Title
55513
    1DOPE     N    1   3.615   5.934   9.342 -0.4041  0.3996 -0.2265
    1DOPE   HN1    2   3.595   5.988   9.429  0.4140 -0.1117  0.2969
    1DOPE   HN2    3   3.528   5.879   9.329  0.3364 -1.0278  0.6306
    1DOPE   HN3    4   3.693   5.870   9.369 -0.9907 -0.3821 -0.3744
    1DOPE   C12    5   3.648   6.023   9.215  0.4327  0.0454  0.5619
    1DOPE  H12A    6   3.727   6.095   9.246  1.0597 -0.8116  0.9863
    1DOPE  H12B    7   3.557   6.086   9.200 -0.3612 -1.3760 -0.8644
    1DOPE   C11    8   3.696   5.937   9.098  0.6140 -0.2717 -0.3137
    1DOPE  H11A    9   3.743   6.001   9.021 -0.0371  2.2398  1.2677
    1DOPE  H11B   10   3.604   5.891   9.054  0.6035  0.7528 -1.4002
    1DOPE     P   11   3.947   5.852   9.110 -0.0995 -0.4442  0.0534
    1DOPE   O13   12   4.023   5.746   9.184  0.4181  0.0973 -0.5867
    1DOPE   O14   13   3.996   5.989   9.134 -0.2372  0.4217  0.0779
    1DOPE   O11   14   3.953   5.816   8.960 -0.1524  0.0768  0.4622
    1DOPE   O12   15   3.791   5.842   9.147  0.0550  0.1180  0.0269
    1DOPE    C1   16   3.879   5.701   8.910 -0.6514 -0.1444 -0.3588
    1DOPE    HA   17   3.770   5.719   8.907 -1.0503 -2.3575 -0.8342
    1DOPE    HB   18   3.893   5.617   8.982 -0.4296  0.0160 -0.2129
    1DOPE    C2   19   3.930   5.658   8.770 -0.6781  0.2646  0.0064
    1DOPE    HS   20   4.035   5.628   8.789 -1.2625 -0.2576  2.8624
    1DOPE   O21   21   3.917   5.767   8.675  1.1755 -0.0125  0.3938
    1DOPE   C21   22   4.030   5.807   8.620 -0.3449  0.2671  0.2517
    1DOPE   O22   23   4.141   5.768   8.640  0.1908  0.7566 -0.3249
    1DOPE   C22   24   3.999   5.899   8.501  0.3517 -0.2644 -0.7411
    1DOPE   H2R   25   4.093   5.941   8.459  0.7062  1.3728  1.4922
    1DOPE   H2S   26   3.937   5.978   8.548 -0.8155 -1.0314 -0.9687
    1DOPE    C3   27   3.858   5.529   8.724 -0.3741 -0.7529  0.8137
    1DOPE    HX   28   3.751   5.557   8.710  0.0665  0.9603  0.5199
    1DOPE    HY   29   3.877   5.458   8.807  2.0131 -1.9300 -0.6344
    1DOPE   O31   30   3.904   5.475   8.598  0.6345 -0.3152 -0.2780
    1DOPE   C31   31   3.995   5.386   8.596  0.1988 -0.1826  0.5945
    1DOPE   O32   32   4.055   5.350   8.696 -0.3253 -0.0544  0.1701
    1DOPE   C32   33   4.023   5.316   8.459  0.1804  0.4708 -0.0050
    1DOPE   H2X   34   4.133   5.315   8.449  0.3154  2.5196  0.8434
    1DOPE   H2Y   35   3.985   5.211   8.466 -3.6174  1.6436 -0.7663
    1DOPE   C23   36   3.910   5.839   8.390  0.1668 -0.2837 -0.1333
    1DOPE   H3R   37   3.810   5.809   8.428 -1.0956  1.5580 -1.7928
    1DOPE   H3S   38   3.967   5.750   8.355  2.0196  0.9000 -0.2696
    1DOPE   C24   39   3.892   5.927   8.273  0.5448 -0.3508  0.1105
    1DOPE   H4R   40   3.988   5.968   8.235  0.0525  0.8883  0.1530
    1DOPE   H4S   41   3.827   6.014   8.297  1.5192  0.2416  0.6238
    1DOPE   C25   42   3.831   5.851   8.154  0.1502 -0.7847 -0.0202
    1DOPE   H5R   43   3.724   5.823   8.171 -0.7117  2.0885 -0.1726
    1DOPE   H5S   44   3.897   5.766   8.126  2.5051  1.3315 -1.3056
    1DOPE   C26   45   3.829   5.951   8.032 -0.0025  0.0290  0.7835
    1DOPE   H6R   46   3.932   5.981   8.004  0.4072 -0.5767  1.6262
    1DOPE   H6S   47   3.767   6.038   8.064 -0.2591  1.4831 -3.0298
    1DOPE   C27   48   3.762   5.895   7.903  0.4198  0.3015  0.3036
    1DOPE   H7R   49   3.657   5.863   7.922  0.5671 -0.2529  0.1989
    1DOPE   H7S   50   3.803   5.796   7.874 -2.8258 -0.8565 -0.7866
    1DOPE   C28   51   3.762   5.983   7.779  0.4830  0.1444 -0.1845
    1DOPE   H8R   52   3.871   6.007   7.770  0.4656  1.8273  2.7924
    1DOPE   H8S   53   3.708   6.077   7.804 -1.9232 -1.1165 -0.4242
    1DOPE   C29   54   3.684   5.923   7.663 -0.0118  0.6921 -0.1019
    1DOPE   H9R   55   3.576   5.934   7.676 -0.1467  1.5324 -1.7065
    1DOPE  C210   56   3.735   5.868   7.551  0.6773  1.0176 -0.1873
    1DOPE  H10R   57   3.663   5.825   7.478  0.9191  0.3635 -0.0452
    1DOPE  C211   58   3.885   5.846   7.513 -0.4380 -0.1597 -0.9820
    1DOPE  H11R   59   3.915   5.740   7.523 -2.1836 -0.7251 -1.4158
    1DOPE  H11S   60   3.951   5.909   7.578 -1.1129  0.5892 -1.0056
    1DOPE  C212   61   3.920   5.883   7.375  0.0926 -0.2226 -0.2398
    1DOPE  H12R   62   4.026   5.850   7.376 -0.3430 -1.7552  2.1430
    1DOPE  H12S   63   3.910   5.993   7.359 -1.2705  0.1238  2.4033
    1DOPE  C213   64   3.852   5.802   7.271 -0.1874  0.0388 -0.8503
    1DOPE  H13R   65   3.743   5.825   7.268 -0.0085  1.4674  1.2481
    1DOPE  H13S   66   3.862   5.693   7.290 -0.4732  0.1816  0.2026
    1DOPE  C214   67   3.909   5.825   7.129 -0.2485 -0.1847 -0.0130
    1DOPE  H14R   68   4.013   5.787   7.119  0.9164  2.6304  0.5199
    1DOPE  H14S   69   3.915   5.935   7.113 -0.2573 -0.0630  0.7941
    1DOPE  C215   70   3.819   5.758   7.026 -0.1248  0.3361 -0.2608
    1DOPE  H15R   71   3.721   5.810   7.026 -0.2252  0.1582  0.7793
    1DOPE  H15S   72   3.803   5.657   7.068  0.2613  0.2706 -0.2682
    1DOPE  C216   73   3.890   5.744   6.890  0.0782 -0.1785  0.2931
    1DOPE  H16R   74   3.822   5.699   6.814  1.3758 -1.1915 -0.3201
    1DOPE  H16S   75   3.979   5.677   6.887  0.0613 -0.1953  0.0933
    1DOPE  C217   76   3.931   5.878   6.823  0.3454  0.3915 -0.3697
    1DOPE  H17R   77   3.975   5.947   6.898 -0.0173 -0.1830  0.3911
    1DOPE  H17S   78   3.841   5.923   6.777  0.4220 -0.3504 -1.2821
    1DOPE  C218   79   4.026   5.861   6.703  0.4614  0.3289 -0.3594
    1DOPE  H18R   80   3.982   5.780   6.642  0.1517  0.9930 -1.0367
    1DOPE  H18S   81   4.127   5.834   6.741  0.6425  0.6596 -0.5977
    1DOPE  H18T   82   4.031   5.951   6.638 -2.5009 -0.6009 -2.0359
    1DOPE   C33   83   3.954   5.394   8.340  0.1680  0.0042 -0.0939
    1DOPE   H3X   84   3.967   5.503   8.358 -0.3290  0.1758 -0.7286
    1DOPE   H3Y   85   3.845   5.371   8.339  0.0276  0.5480 -2.1192
    1DOPE   C34   86   4.014   5.360   8.204  0.9248 -0.4712 -0.0237
    1DOPE   H4X   87   4.125   5.368   8.207  0.8829  0.8877 -1.0492
    1DOPE   H4Y   88   3.993   5.253   8.183 -2.0429 -0.2299  1.1741
    1DOPE   C35   89   3.991   5.447   8.077  0.3800  0.1807  0.4082
    1DOPE   H5X   90   4.028   5.546   8.110 -1.4108  0.7103  0.9861
    1DOPE   H5Y   91   3.883   5.463   8.054  0.1912  0.0179  1.1437
    1DOPE   C36   92   4.078   5.403   7.957 -0.0577  0.1471 -0.1591
    1DOPE   H6X   93   4.053   5.296   7.943 -0.6282  0.1562  0.7339
    1DOPE   H6Y   94   4.184   5.414   7.989  0.4007  1.4057 -1.9330
    1DOPE   C37   95   4.065   5.478   7.824  0.5314 -0.7217 -0.2104
    1DOPE   H7X   96   3.971   5.449   7.772 -0.6630  0.8101  0.9782
    1DOPE   H7Y   97   4.059   5.578   7.872 -1.3840 -1.9460  2.4036
    1DOPE   C38   98   4.169   5.461   7.716 -0.4971 -0.0889 -0.2206
    1DOPE   H8X   99   4.172   5.354   7.686  2.7002 -0.1945  0.1221
    1DOPE   H8Y  100   4.267   5.485   7.764 -1.9401  2.1161  1.8578
    1DOPE   C39  101   4.145   5.556   7.604  0.4493 -0.3262 -0.2200
    1DOPE   H9X  102   4.119   5.659   7.631 -0.1082 -0.5435  0.0822
    1DOPE  C310  103   4.148   5.522   7.470  0.2484  0.9994  0.7682
    1DOPE  H10X  104   4.126   5.596   7.392 -0.0280  0.2176  0.0896
    1DOPE  C311  105   4.144   5.378   7.413 -0.5903  0.3175 -0.0071
    1DOPE  H11X  106   4.248   5.339   7.409 -1.4577 -2.2106  0.2598
    1DOPE  H11Y  107   4.080   5.309   7.473 -1.2848  0.5839 -0.4276
    1DOPE  C312  108   4.094   5.373   7.268  0.5500  0.0754  0.2747
    1DOPE  H12X  109   4.113   5.267   7.240 -0.5455  0.1282 -0.7374
    1DOPE  H12Y  110   4.159   5.436   7.203 -0.4295  0.6240 -0.1952
    1DOPE  C313  111   3.940   5.398   7.253 -0.5580 -0.5212  1.2727
    1DOPE  H13X  112   3.879   5.319   7.301 -1.2826 -1.0523 -0.4472
    1DOPE  H13Y  113   3.925   5.503   7.289 -1.5400  0.3221 -1.3590
    1DOPE  C314  114   3.913   5.389   7.104  0.5345  0.0958 -0.3520
    1DOPE  H14X  115   3.960   5.297   7.064 -0.3091 -0.3402 -0.3759
    1DOPE  H14Y  116   3.946   5.485   7.058 -2.6219  2.4481  1.8453
    1DOPE  C315  117   3.760   5.387   7.079 -0.5596  0.1917  0.5049
    1DOPE  H15X  118   3.721   5.483   7.120  1.6512  1.3894  0.0001
    1DOPE  H15Y  119   3.723   5.300   7.137  1.0860  0.4243  1.9967
    1DOPE  C316  120   3.735   5.381   6.927  0.3580  0.2291  0.1750
    1DOPE  H16X  121   3.821   5.325   6.884  1.3394 -0.5793  2.9476
    1DOPE  H16Y  122   3.735   5.483   6.883  0.5335  0.2488  0.2202
    1DOPE  C317  123   3.603   5.308   6.880 -0.1464  0.7444 -0.0391
    1DOPE  H17X  124   3.603   5.313   6.769  0.0650 -0.5567 -0.1082
    1DOPE  H17Y  125   3.598   5.204   6.917 -1.4280  0.6419 -0.4387
    1DOPE  C318  126   3.473   5.361   6.936 -0.2366 -0.2644  0.2078
    1DOPE  H18X  127   3.452   5.321   7.038  1.6700 -1.6259  0.1067
    1DOPE  H18Y  128   3.473   5.472   6.935 -1.2543 -0.2525 -0.3787
    1DOPE  H18Z  129   3.384   5.316   6.886 -0.6530 -0.8980  1.4710
    2DOPE     N  130   5.232   5.925   9.060  0.5043 -0.3130  0.0714
    2DOPE   HN1  131   5.286   5.848   9.105  0.8974  1.2580  2.4671
    2DOPE   HN2  132   5.289   6.008   9.035  0.0882 -0.3780 -1.1470
    2DOPE   HN3  133   5.148   5.950   9.116  0.1641  1.1765 -1.0519
    2DOPE   C12  134   5.177   5.868   8.930  0.2574  0.6331  0.0354
    2DOPE  H12A  135   5.087   5.807   8.952  1.5982 -0.7522  2.0742
    2DOPE  H12B  136   5.256   5.804   8.885  0.7731  2.7596 -2.2499
    2DOPE   C11  137   5.154   5.979   8.826  0.0869 -0.0167  0.1499
    2DOPE  H11A  138   5.069   6.044   8.856  1.2177  1.4988  0.2511
    2DOPE  H11B  139   5.130   5.927   8.731 -2.7296 -1.2310  1.4105
    2DOPE     P  140   5.283   6.209   8.869  0.4486  0.5945 -0.5814
    2DOPE   O13  141   5.417   6.263   8.851 -0.8022 -0.0783 -0.2314
    2DOPE   O14  142   5.240   6.211   9.010  0.7098 -0.6273  0.3978
    2DOPE   O11  143   5.169   6.288   8.787 -0.0585 -0.3900 -0.0629
    2DOPE   O12  144   5.276   6.054   8.824 -0.4446  0.5056 -0.1597
    2DOPE    C1  145   5.181   6.319   8.650 -0.0420 -0.2412 -0.6753
    2DOPE    HA  146   5.287   6.322   8.615 -0.3572  2.7723 -1.6908
    2DOPE    HB  147   5.134   6.417   8.628  1.8401  1.1985  1.3588
    2DOPE    C2  148   5.104   6.226   8.557 -0.6835 -0.0110 -0.3567
    2DOPE    HS  149   5.158   6.129   8.561  0.2598  0.4834 -0.6068
    2DOPE   O21  150   5.108   6.284   8.426  0.3407 -0.3530  0.0246
    2DOPE   C21  151   5.205   6.241   8.354  0.1986  0.3747  0.2958
    2DOPE   O22  152   5.293   6.166   8.389  0.3871 -0.9739  0.1267
    2DOPE   C22  153   5.195   6.301   8.213  0.2067  0.5155  0.8082
    2DOPE   H2R  154   5.289   6.270   8.163 -0.8785 -1.7213  0.0433
    2DOPE   H2S  155   5.198   6.410   8.234  2.0293  0.8513 -0.9132
    2DOPE    C3  156   4.959   6.212   8.610 -0.3145 -0.4593  0.4669
    2DOPE    HX  157   4.921   6.316   8.617  1.4357  0.3379 -0.8111
    2DOPE    HY  158   4.970   6.167   8.711  0.2501  0.6752  0.9350
    2DOPE   O31  159   4.883   6.129   8.529  0.2308  0.0332  0.0242
    2DOPE   C31  160   4.782   6.185   8.458  0.1368  0.0744  0.3568
    2DOPE   O32  161   4.742   6.298   8.458 -0.4762 -0.0537 -0.0070
    2DOPE   C32  162   4.735   6.077   8.366 -0.1107 -0.0666  0.0362
    2DOPE   H2X  163   4.830   6.044   8.316  0.7006  1.0080  0.8230
    2DOPE   H2Y  164   4.687   5.991   8.417 -0.9710 -0.1896 -0.9462
    2DOPE   C23  165   5.079   6.247   8.132  1.2377 -0.2527 -0.2832
    2DOPE   H3R  166   4.984   6.281   8.179  1.7656 -1.1299  1.5220
    2DOPE   H3S  167   5.075   6.136   8.132 -1.0945 -0.2140  0.0755
    2DOPE   C24  168   5.087   6.308   7.992 -0.1022  0.3870  0.1870
    2DOPE   H4R  169   5.146   6.401   7.994 -0.2898  0.5122 -0.0919
    2DOPE   H4S  170   4.981   6.326   7.963 -0.3069 -0.2615  0.5043
    2DOPE   C25  171   5.135   6.209   7.882  0.3664  0.4676 -0.0106
    2DOPE   H5R  172   5.087   6.112   7.909  0.5508  0.4592  0.2936
    2DOPE   H5S  173   5.245   6.198   7.887  0.3901  0.9509  0.6666
    2DOPE   C26  174   5.093   6.257   7.746 -0.2883 -0.2587 -0.4212
    2DOPE   H6R  175   5.142   6.352   7.716 -0.1301 -0.3605 -0.4901
    2DOPE   H6S  176   4.989   6.296   7.753  0.3716  1.7203 -1.0383
    2DOPE   C27  177   5.108   6.141   7.644  0.7977  0.2248 -0.2392
    2DOPE   H7R  178   5.043   6.056   7.673  1.0355  0.7937  2.0874
    2DOPE   H7S  179   5.210   6.098   7.628  0.0349 -1.3930 -1.0423
    2DOPE   C28  180   5.061   6.191   7.506 -0.2430  0.4373  0.2669
    2DOPE   H8R  181   4.967   6.249   7.516 -0.4580  0.1056  0.1919
    2DOPE   H8S  182   5.039   6.111   7.432 -1.6711  2.7836 -2.0025
    2DOPE   C29  183   5.173   6.284   7.457  0.2982  0.0434  0.0125
    2DOPE   H9R  184   5.195   6.372   7.519 -1.2467 -0.8500  1.9396
    2DOPE  C210  185   5.240   6.271   7.343 -0.2664  0.1021 -0.2534
    2DOPE  H10R  186   5.310   6.347   7.306 -1.0140  1.8019  1.6285
    2DOPE  C211  187   5.212   6.169   7.232 -0.1946 -0.1886 -0.1468
    2DOPE  H11R  188   5.123   6.108   7.258 -0.1721  0.8968  2.8991
    2DOPE  H11S  189   5.292   6.094   7.215  0.5467  0.6805 -0.5738
    2DOPE  C212  190   5.191   6.230   7.094 -0.1225 -0.7260  0.1442
    2DOPE  H12R  191   5.285   6.280   7.062 -0.8139 -0.2456 -1.2459
    2DOPE  H12S  192   5.123   6.318   7.102 -0.7964 -1.3239  1.1588
    2DOPE  C213  193   5.147   6.135   6.987 -0.1152 -1.8185  0.3703
    2DOPE  H13R  194   5.067   6.069   7.027 -1.4198 -1.1466 -1.0165
    2DOPE  H13S  195   5.223   6.066   6.946  1.2260  0.1651 -0.6860
    2DOPE  C214  196   5.088   6.204   6.862 -0.3097  0.0275 -0.1132
    2DOPE  H14R  197   5.159   6.263   6.801  0.0357 -1.0374 -0.7775
    2DOPE  H14S  198   5.013   6.276   6.901 -0.6943 -0.7595  0.6353
    2DOPE  C215  199   5.016   6.113   6.762  0.5590  0.2461 -0.0384
    2DOPE  H15R  200   4.963   6.040   6.827  1.7324 -1.4793 -0.9428
    2DOPE  H15S  201   5.094   6.064   6.700  0.8437 -0.4305  0.8420
    2DOPE  C216  202   4.916   6.196   6.678  0.1893  0.6579 -0.0476
    2DOPE  H16R  203   4.971   6.277   6.626  0.9097 -0.4093 -1.0017
    2DOPE  H16S  204   4.849   6.249   6.749 -1.3004  1.9197 -2.2621
    2DOPE  C217  205   4.830   6.108   6.578 -0.0538  0.3667  0.8473
    2DOPE  H17R  206   4.800   6.013   6.628 -0.6592  1.0408  1.8247
    2DOPE  H17S  207   4.902   6.083   6.498 -0.2431 -0.4327  0.9186
    2DOPE  C218  208   4.718   6.181   6.506 -0.1775 -0.5879 -0.1760
    2DOPE  H18R  209   4.653   6.100   6.465 -0.9289  0.2330 -0.6361
    2DOPE  H18S  210   4.737   6.254   6.424 -1.2851  0.6257  0.6047
    2DOPE  H18T  211   4.664   6.239   6.583  0.4977 -0.1717 -0.0143
    2DOPE   C33  212   4.629   6.123   8.260  0.5340 -0.1310 -0.0412
    2DOPE   H3X  213   4.556   6.190   8.310 -0.3821  0.0099 -1.5066
    2DOPE   H3Y  214   4.574   6.033   8.226  1.9640 -0.6369 -1.1357
    2DOPE   C34  215   4.691   6.196   8.144 -0.1990 -0.6226 -0.6008
    2DOPE   H4X  216   4.617   6.268   8.102 -0.9283 -1.1677 -0.2649
    2DOPE   H4Y  217   4.789   6.244   8.163  0.9463 -1.9520 -2.7130
    2DOPE   C35  218   4.721   6.103   8.017 -0.0769 -0.3627 -0.2916
    2DOPE   H5X  219   4.644   6.026   7.991  1.3331 -1.5576 -1.0706
    2DOPE   H5Y  220   4.806   6.043   8.055 -0.3200 -0.5805 -0.0907
    2DOPE   C36  221   4.751   6.173   7.884 -0.3633  0.7744 -0.8488
    2DOPE   H6X  222   4.851   6.141   7.846 -0.0527  0.7220  0.0012
    2DOPE   H6Y  223   4.763   6.282   7.896  0.8816  0.4909  0.9268
    2DOPE   C37  224   4.655   6.141   7.770  0.1260  0.0581 -0.5821
    2DOPE   H7X  225   4.639   6.034   7.745  1.0599 -0.0158 -0.9028
    2DOPE   H7Y  226   4.557   6.173   7.813  0.3345 -0.8899  0.6359
    2DOPE   C38  227   4.682   6.224   7.646  0.7077 -0.3424  0.5894
    2DOPE   H8X  228   4.780   6.191   7.606  0.8788  2.3810 -1.5057
    2DOPE   H8Y  229   4.705   6.331   7.665  2.0324 -0.1034 -1.9629
    2DOPE   C39  230   4.576   6.217   7.541 -0.2590 -0.0939 -0.0108
    2DOPE   H9X  231   4.480   6.256   7.579 -0.1352 -0.5408  0.7906
    2DOPE  C310  232   4.591   6.165   7.416  0.3735  0.4959  0.1704
    2DOPE  H10X  233   4.512   6.192   7.344  0.2538  2.9533  1.1150
    2DOPE  C311  234   4.713   6.111   7.350 -0.7003 -0.2124  0.0217
    2DOPE  H11X  235   4.793   6.101   7.427 -0.9384  0.2237  0.3279
    2DOPE  H11Y  236   4.692   6.008   7.314  2.8579 -1.6310  1.5397
    2DOPE  C312  237   4.756   6.201   7.226  0.2840 -0.0573 -0.3395
    2DOPE  H12X  238   4.864   6.184   7.208  1.4974  3.6532  2.1094
    2DOPE  H12Y  239   4.759   6.307   7.261  1.3326 -0.0297 -0.4898
    2DOPE  C313  240   4.669   6.179   7.097 -0.6753  0.4354 -0.5920
    2DOPE  H13X  241   4.560   6.175   7.118 -0.4044  0.4147  0.9183
    2DOPE  H13Y  242   4.689   6.264   7.028 -0.4415 -1.2697 -2.7298
    2DOPE  C314  243   4.708   6.049   7.021  0.4138 -0.3368 -0.4551
    2DOPE  H14X  244   4.665   5.962   7.074  0.0220  1.8111  3.0560
    2DOPE  H14Y  245   4.818   6.032   7.018  0.4646 -0.8780  2.1417
    2DOPE  C315  246   4.656   6.043   6.876 -0.3395 -0.3502 -0.1169
    2DOPE  H15X  247   4.690   5.947   6.832 -0.1817 -0.3086 -0.0870
    2DOPE  H15Y  248   4.704   6.114   6.804  0.1554 -0.9013 -0.3413
    2DOPE  C316  249   4.507   6.063   6.860 -0.2865  0.6836 -0.0125
    2DOPE  H16X  250   4.486   6.172   6.864  1.8490  1.1105  0.9215
    2DOPE  H16Y  251   4.453   6.002   6.935 -0.7990  0.2391 -0.7258
    2DOPE  C317  252   4.452   6.013   6.726 -0.7779 -0.4710 -0.3550
    2DOPE  H17X  253   4.511   6.060   6.643 -0.9305 -0.3484 -0.3956
    2DOPE  H17Y  254   4.447   5.903   6.718 -0.4423 -0.6301  1.2524
    2DOPE  C318  255   4.307   6.051   6.707  0.2307  0.6365 -0.1612
    2DOPE  H18X  256   4.264   5.992   6.624  0.8631  2.3199 -1.7506
    2DOPE  H18Y  257   4.246   6.019   6.794 -1.5213  0.4875 -1.3840
    2DOPE  H18Z  258   4.289   6.160   6.699 -2.8248  0.7732  4.3618
    3DOPE     N  259   2.715   0.902   9.306 -0.1827 -0.0012 -0.2238
    3DOPE   HN1  260   2.759   0.810   9.284 -2.1463 -0.8662 -0.6919
    3DOPE   HN2  261   2.621   0.903   9.263 -0.4654 -1.2901  0.3239
    3DOPE   HN3  262   2.778   0.970   9.259 -0.9558 -0.1078 -1.4633
    3DOPE   C12  263   2.725   0.924   9.457  0.3113  0.8390  0.3846
    3DOPE  H12A  264   2.680   0.837   9.509 -1.0003  0.4787 -1.2594
    3DOPE  H12B  265   2.667   1.018   9.471  1.0796  1.5642 -1.0623
    3DOPE   C11  266   2.878   0.944   9.481 -0.7050  0.6214  0.1621
    3DOPE  H11A  267   2.901   0.957   9.589 -0.0100 -0.7160  0.2002
    3DOPE  H11B  268   2.889   1.042   9.431 -0.6031  0.8851  0.6955
    3DOPE     P  269   3.116   0.866   9.440 -0.0772 -0.5098  0.0994
    3DOPE   O13  270   3.161   0.757   9.535  0.3139  0.1863 -0.0444
    3DOPE   O14  271   3.158   1.005   9.466  0.5407 -0.3035  0.8917
    3DOPE   O11  272   3.160   0.830   9.287 -0.2612 -0.3567  0.1538
    3DOPE   O12  273   2.957   0.843   9.424  0.0550  0.1666  0.2574
    3DOPE    C1  274   3.077   0.755   9.198 -0.3748  0.4913  0.5326
    3DOPE    HA  275   2.975   0.794   9.182  0.2236  1.3686 -1.5522
    3DOPE    HB  276   3.072   0.656   9.248 -1.5757  0.5363  0.5293
    3DOPE    C2  277   3.141   0.731   9.060  0.1775 -0.0261  0.1644
    3DOPE    HS  278   3.246   0.698   9.073  0.8240  0.7551 -2.4804
    3DOPE   O21  279   3.148   0.858   8.991  0.5336 -0.3546  0.1190
    3DOPE   C21  280   3.254   0.923   8.987 -0.5681  0.8621 -0.3054
    3DOPE   O22  281   3.364   0.894   9.035  0.0875  0.3980 -0.0603
    3DOPE   C22  282   3.227   1.056   8.913  0.1820  0.3871  0.1137
    3DOPE   H2R  283   3.215   1.127   8.997 -1.0227  0.6373 -0.2512
    3DOPE   H2S  284   3.137   1.048   8.848  1.9469 -0.6412 -2.3880
    3DOPE    C3  285   3.053   0.626   8.988  0.5793  0.1118 -0.7447
    3DOPE    HX  286   2.948   0.649   9.014  1.0185 -1.5354  3.2946
    3DOPE    HY  287   3.083   0.524   9.023 -0.3507  0.2307  0.4811
    3DOPE   O31  288   3.082   0.631   8.847 -0.5575  0.2146  0.1637
    3DOPE   C31  289   3.020   0.725   8.769 -0.7528  0.8635  0.6813
    3DOPE   O32  290   2.926   0.791   8.810 -0.2334  0.6272  0.7418
    3DOPE   C32  291   3.079   0.718   8.627 -0.4877 -0.2982 -0.5074
    3DOPE   H2X  292   3.184   0.752   8.621 -0.0821 -1.5125 -0.4947
    3DOPE   H2Y  293   3.087   0.616   8.586 -0.4325  0.2265 -1.8589
    3DOPE   C23  294   3.345   1.100   8.826 -0.5458 -0.4985  0.5321
    3DOPE   H3R  295   3.443   1.107   8.878  0.7062 -2.6813 -1.3286
    3DOPE   H3S  296   3.326   1.202   8.786  0.4712 -1.4584 -2.7693
    3DOPE   C24  297   3.372   1.004   8.704 -0.4275  0.2643 -0.2660
    3DOPE   H4R  298   3.285   1.008   8.635 -2.4332  1.1269  2.1667
    3DOPE   H4S  299   3.391   0.900   8.737 -0.2764  0.7259  1.2041
    3DOPE   C25  300   3.492   1.056   8.623 -0.5229  0.0901  1.1316
    3DOPE   H5R  301   3.590   1.059   8.676  0.4610  0.2635 -0.6147
    3DOPE   H5S  302   3.464   1.161   8.598 -1.0364 -0.5747 -1.3123
    3DOPE   C26  303   3.509   0.980   8.492 -0.3148 -0.0512  0.7381
    3DOPE   H6R  304   3.418   0.984   8.427 -0.9543 -1.1690  1.5304
    3DOPE   H6S  305   3.521   0.872   8.515  0.3470 -0.5277 -1.5663
    3DOPE   C27  306   3.623   1.019   8.394 -0.2753  0.2108 -0.3123
    3DOPE   H7R  307   3.716   1.005   8.453 -0.6155 -0.6451  0.0371
    3DOPE   H7S  308   3.632   1.127   8.370 -1.4150  0.6446  1.0453
    3DOPE   C28  309   3.621   0.928   8.276  0.2884  0.3373 -0.4758
    3DOPE   H8R  310   3.519   0.917   8.233  1.7745 -0.4998 -4.1731
    3DOPE   H8S  311   3.651   0.829   8.316  2.0139  0.9169 -0.2645
    3DOPE   C29  312   3.732   0.958   8.176  0.1739  0.3144  0.1207
    3DOPE   H9R  313   3.747   1.067   8.164 -2.8655  0.8675  0.6867
    3DOPE  C210  314   3.819   0.876   8.116  0.6030  0.8124 -0.1672
    3DOPE  H10R  315   3.896   0.919   8.050  0.4486 -0.6708 -1.3704
    3DOPE  C211  316   3.799   0.723   8.114  0.2296 -0.5277  0.4630
    3DOPE  H11R  317   3.695   0.689   8.131 -0.0011 -0.9603 -1.5398
    3DOPE  H11S  318   3.863   0.664   8.183  1.0213 -1.1220 -0.7371
    3DOPE  C212  319   3.818   0.654   7.976  0.5639  0.1667  0.3775
    3DOPE  H12R  320   3.804   0.545   7.992 -0.6265  0.0065 -1.4290
    3DOPE  H12S  321   3.925   0.661   7.949  0.7358  0.4910  1.1061
    3DOPE  C213  322   3.724   0.695   7.859 -0.4939  0.6241  0.4370
    3DOPE  H13R  323   3.714   0.806   7.860 -2.7902  0.5146 -1.3972
    3DOPE  H13S  324   3.626   0.647   7.883 -0.7505  1.6109  1.4630
    3DOPE  C214  325   3.773   0.642   7.721  0.6162  0.4800 -0.1833
    3DOPE  H14R  326   3.803   0.536   7.734 -0.3907  0.3822  1.7146
    3DOPE  H14S  327   3.863   0.694   7.681  0.9607 -0.4863 -0.6900
    3DOPE  C215  328   3.662   0.652   7.605  0.1666 -0.4567 -0.0573
    3DOPE  H15R  329   3.652   0.761   7.582  0.8438 -0.0672  1.3777
    3DOPE  H15S  330   3.570   0.606   7.646  0.6540 -1.3406  0.0573
    3DOPE  C216  331   3.695   0.573   7.476  0.4553 -0.6249 -0.0507
    3DOPE  H16R  332   3.715   0.465   7.493 -0.8727 -0.8584  0.1030
    3DOPE  H16S  333   3.795   0.616   7.452  0.2809 -0.4167 -0.4127
    3DOPE  C217  334   3.581   0.580   7.368  0.1414  0.1527  0.1097
    3DOPE  H17R  335   3.583   0.687   7.338 -1.5316 -0.1270 -1.1171
    3DOPE  H17S  336   3.491   0.565   7.432  0.1401  1.3825  0.4408
    3DOPE  C218  337   3.595   0.489   7.253 -0.5564 -0.0559  0.6202
    3DOPE  H18R  338   3.634   0.388   7.277  1.7079  0.6327  0.0210
    3DOPE  H18S  339   3.666   0.532   7.179 -1.5172  1.1930  0.3848
    3DOPE  H18T  340   3.498   0.478   7.200  1.4260 -0.7019 -3.1630
    3DOPE   C33  341   2.975   0.793   8.535 -0.9629 -0.3956 -0.1760
    3DOPE   H3X  342   2.973   0.899   8.569  2.0344 -0.1957 -0.4219
    3DOPE   H3Y  343   2.880   0.735   8.531 -1.6831  0.7397 -0.1040
    3DOPE   C34  344   3.028   0.812   8.388  0.1090  0.6659 -0.7970
    3DOPE   H4X  345   3.136   0.839   8.392 -0.2657  2.4943 -2.2075
    3DOPE   H4Y  346   3.015   0.708   8.352 -1.1983  0.6126 -0.2137
    3DOPE   C35  347   2.948   0.909   8.306  0.0603 -0.0864 -0.7646
    3DOPE   H5X  348   3.006   1.002   8.321  0.6102 -0.4133 -0.8326
    3DOPE   H5Y  349   2.843   0.916   8.341  0.1981 -2.5953  0.3753
    3DOPE   C36  350   2.944   0.873   8.156  0.5809  0.0092 -1.3960
    3DOPE   H6X  351   2.893   0.775   8.142  0.1608  0.2508 -1.5557
    3DOPE   H6Y  352   3.048   0.880   8.118 -0.1829  1.2882 -3.3910
    3DOPE   C37  353   2.871   0.975   8.067 -0.6285  0.1258  0.2668
    3DOPE   H7X  354   2.763   0.971   8.092 -0.5348 -0.0468  0.6458
    3DOPE   H7Y  355   2.917   1.076   8.073 -1.9892  0.8096 -0.4109
    3DOPE   C38  356   2.869   0.950   7.913 -0.4106 -0.2011  0.9008
    3DOPE   H8X  357   2.971   0.972   7.876  0.4903 -1.4576  2.4713
    3DOPE   H8Y  358   2.793   1.012   7.862  1.8473  0.4778 -1.8543
    3DOPE   C39  359   2.824   0.804   7.883 -0.2876 -0.0778  1.0192
    3DOPE   H9X  360   2.768   0.752   7.962 -0.6835 -1.2024  0.0341
    3DOPE  C310  361   2.825   0.752   7.756  0.1583 -0.4818  0.0567
    3DOPE  H10X  362   2.799   0.645   7.748  0.4101 -0.5132 -0.3609
    3DOPE  C311  363   2.873   0.821   7.634  0.5785 -0.4861 -0.3870
    3DOPE  H11X  364   2.809   0.910   7.615  2.0672  0.4940 -0.9813
    3DOPE  H11Y  365   2.981   0.844   7.648  0.3802  0.0697  0.2397
    3DOPE  C312  366   2.834   0.742   7.504 -0.0306  1.0316  0.1039
    3DOPE  H12X  367   2.733   0.699   7.524  0.1651  2.0079  3.8502
    3DOPE  H12Y  368   2.901   0.653   7.505 -1.4258 -0.1005  2.7050
    3DOPE  C313  369   2.837   0.821   7.372  0.9598 -0.1768 -0.6519
    3DOPE  H13X  370   2.766   0.905   7.387  0.2763 -0.8381 -0.0842
    3DOPE  H13Y  371   2.941   0.857   7.359  0.8421  0.3468 -0.1690
    3DOPE  C314  372   2.795   0.746   7.241 -0.3711  0.1978 -0.4691
    3DOPE  H14X  373   2.853   0.652   7.256 -0.2567  0.4244  0.6035
    3DOPE  H14Y  374   2.834   0.793   7.148 -1.4096 -0.8288 -1.4533
    3DOPE  C315  375   2.653   0.698   7.227  0.1394 -0.3377  0.0069
    3DOPE  H15X  376   2.579   0.777   7.251  3.1088  2.2395  1.4175
    3DOPE  H15Y  377   2.643   0.623   7.309  2.2956 -0.2166  0.4550
    3DOPE  C316  378   2.632   0.612   7.108 -0.4441  0.2156 -0.5020
    3DOPE  H16X  379   2.688   0.518   7.127 -3.3049 -1.5260 -0.1520
    3DOPE  H16Y  380   2.650   0.663   7.011 -0.5789 -0.9653 -1.1619
    3DOPE  C317  381   2.489   0.553   7.090  0.1127 -0.0381  0.7210
    3DOPE  H17X  382   2.462   0.505   7.187 -2.0572 -0.0327  0.1585
    3DOPE  H17Y  383   2.425   0.643   7.081  0.4835  0.0428 -1.8991
    3DOPE  C318  384   2.468   0.458   6.971 -0.3636  0.3767  0.0680
    3DOPE  H18X  385   2.364   0.419   6.973  0.3585 -1.6740  1.4972
    3DOPE  H18Y  386   2.494   0.501   6.872 -0.2605  0.1630 -0.0006
    3DOPE  H18Z  387   2.523   0.363   6.989  0.0448  0.9178  1.9126
    4DOPE     N  388   5.704   5.214   8.684  0.3540 -0.0077  0.3771
    4DOPE   HN1  389   5.732   5.117   8.709  1.3880  0.2078  0.1015
    4DOPE   HN2  390   5.787   5.263   8.646  0.9828 -1.6086 -0.3814
    4DOPE   HN3  391   5.683   5.267   8.771  2.9891  0.4228  0.8173
    4DOPE   C12  392   5.602   5.232   8.586 -0.1981 -0.1083  0.5885
    4DOPE  H12A  393   5.609   5.151   8.511  0.2193 -0.5933  1.1405
    4DOPE  H12B  394   5.640   5.323   8.534  1.7545  1.0090  3.6491
    4DOPE   C11  395   5.465   5.252   8.645 -0.1505 -0.2127 -0.0290
    4DOPE  H11A  396   5.391   5.249   8.562  2.2189  1.5088 -2.3690
    4DOPE  H11B  397   5.466   5.357   8.683  1.5697  0.3353 -1.4789
    4DOPE     P  398   5.425   5.010   8.733 -0.0650  0.1825 -0.6942
    4DOPE   O13  399   5.321   4.939   8.811 -0.3934 -0.6244 -0.3243
    4DOPE   O14  400   5.562   4.952   8.746  0.2513 -0.6614  0.2697
    4DOPE   O11  401   5.394   5.007   8.582 -0.3357  0.2158 -0.0980
    4DOPE   O12  402   5.424   5.164   8.761  0.1293  0.3208  0.3672
    4DOPE    C1  403   5.329   4.898   8.519 -0.4195 -0.1527  0.0976
    4DOPE    HA  404   5.230   4.882   8.566  0.1731 -0.4387  1.3107
    4DOPE    HB  405   5.394   4.808   8.522  0.2225  0.2982 -0.1194
    4DOPE    C2  406   5.313   4.939   8.368  0.6499 -0.3787 -0.1650
    4DOPE    HS  407   5.415   4.944   8.323  0.8457  0.7368  0.3737
    4DOPE   O21  408   5.234   5.057   8.374  0.0899 -0.8796  0.6217
    4DOPE   C21  409   5.274   5.151   8.294 -0.0167 -0.2371 -0.2698
    4DOPE   O22  410   5.368   5.152   8.215  0.8400 -0.2211 -0.5646
    4DOPE   C22  411   5.186   5.277   8.314 -0.1641 -0.1021 -0.1517
    4DOPE   H2R  412   5.210   5.324   8.411 -0.5457  0.9348 -0.5391
    4DOPE   H2S  413   5.078   5.249   8.317 -0.1677 -0.0411  0.2673
    4DOPE    C3  414   5.239   4.814   8.304 -0.1479 -0.7678 -0.5336
    4DOPE    HX  415   5.143   4.799   8.360 -0.4786  0.8918 -0.6248
    4DOPE    HY  416   5.299   4.720   8.311  2.1357  0.7217  1.8437
    4DOPE   O31  417   5.207   4.846   8.173 -0.2392  0.4793  0.6831
    4DOPE   C31  418   5.294   4.810   8.080 -0.7227  0.1479  0.3925
    4DOPE   O32  419   5.386   4.733   8.087  0.9826  0.2184 -0.4980
    4DOPE   C32  420   5.261   4.879   7.947 -0.4533  0.1064  0.1167
    4DOPE   H2X  421   5.153   4.867   7.924 -0.8940  2.5026  0.6598
    4DOPE   H2Y  422   5.286   4.987   7.958 -3.5386  0.7071  2.6019
    4DOPE   C23  423   5.210   5.382   8.198  0.5447 -0.3967 -0.0823
    4DOPE   H3R  424   5.318   5.410   8.194  0.1457  1.1622 -0.8379
    4DOPE   H3S  425   5.163   5.481   8.217  1.1369  0.0407 -0.8252
    4DOPE   C24  426   5.151   5.329   8.073  0.2525 -0.4733  0.3107
    4DOPE   H4R  427   5.040   5.330   8.074  0.2243 -1.8016  0.6814
    4DOPE   H4S  428   5.179   5.223   8.053  0.0865 -0.6904  1.1668
    4DOPE   C25  429   5.197   5.417   7.950 -0.6375 -0.2587  0.1053
    4DOPE   H5R  430   5.307   5.425   7.959 -0.4933 -0.1556 -1.4606
    4DOPE   H5S  431   5.160   5.521   7.958 -1.8969 -0.5503 -1.3186
    4DOPE   C26  432   5.147   5.373   7.811 -1.1717 -0.5630 -0.1592
    4DOPE   H6R  433   5.202   5.279   7.789  1.5430  1.0607 -0.9057
    4DOPE   H6S  434   5.179   5.445   7.733  1.5981  0.8028  2.0625
    4DOPE   C27  435   4.994   5.341   7.807  0.0072 -0.3247 -0.0109
    4DOPE   H7R  436   4.926   5.423   7.840  0.2659  0.6108 -1.6876
    4DOPE   H7S  437   4.982   5.255   7.876  0.5028 -1.1294 -0.9045
    4DOPE   C28  438   4.943   5.296   7.667  0.4578  0.2080  0.5965
    4DOPE   H8R  439   4.836   5.267   7.678 -0.0988  2.1121  0.5979
    4DOPE   H8S  440   4.996   5.203   7.637  1.3752  1.0189 -0.3894
    4DOPE   C29  441   4.953   5.413   7.568  0.1758 -0.2382 -0.1324
    4DOPE   H9R  442   4.900   5.508   7.583  0.9640  0.4478 -1.5306
    4DOPE  C210  443   5.019   5.400   7.450 -0.6519  0.5037  0.1451
    4DOPE  H10R  444   5.016   5.473   7.367  0.5477 -2.0586 -2.3603
    4DOPE  C211  445   5.102   5.287   7.405 -0.2963 -0.7167  0.2267
    4DOPE  H11R  446   5.147   5.222   7.482  0.9007  0.0752  0.2140
    4DOPE  H11S  447   5.191   5.329   7.354 -2.2737 -0.3576 -3.2784
    4DOPE  C212  448   5.023   5.202   7.300 -0.1732  0.0651 -0.2134
    4DOPE  H12R  449   4.924   5.175   7.343  1.4985 -1.0992  3.3244
    4DOPE  H12S  450   5.086   5.114   7.273  1.5037  1.2601 -0.4038
    4DOPE  C213  451   5.000   5.274   7.167  0.0301  0.1861 -0.6799
    4DOPE  H13R  452   4.964   5.379   7.178  1.2210  0.7162 -1.5253
    4DOPE  H13S  453   4.915   5.223   7.117  0.4003 -1.5167  0.3550
    4DOPE  C214  454   5.122   5.268   7.079  0.2394 -0.4553 -0.9963
    4DOPE  H14R  455   5.131   5.160   7.056 -3.5256 -0.8890 -1.1067
    4DOPE  H14S  456   5.225   5.292   7.113  0.6404 -2.1874 -0.9024
    4DOPE  C215  457   5.099   5.336   6.946  0.0523  0.3604 -0.7788
    4DOPE  H15R  458   5.065   5.442   6.952 -2.1952 -0.3428 -0.0810
    4DOPE  H15S  459   5.024   5.276   6.889 -0.3515  0.3648 -0.2568
    4DOPE  C216  460   5.221   5.338   6.860 -0.2065 -0.0491 -0.7214
    4DOPE  H16R  461   5.266   5.236   6.860  0.0790  0.0572  0.9334
    4DOPE  H16S  462   5.292   5.404   6.914  1.0090 -1.9076  0.0616
    4DOPE  C217  463   5.193   5.386   6.717  0.2721 -0.2554 -0.2637
    4DOPE  H17R  464   5.277   5.450   6.683 -0.0280  0.6657  0.7188
    4DOPE  H17S  465   5.113   5.461   6.732  0.4551 -0.3526  1.4100
    4DOPE  C218  466   5.146   5.283   6.625  0.0970  0.0917 -0.2296
    4DOPE  H18R  467   5.090   5.320   6.536  0.0498  0.3730 -0.0841
    4DOPE  H18S  468   5.090   5.207   6.684  0.0407 -0.0067 -0.4074
    4DOPE  H18T  469   5.237   5.227   6.595 -0.4211 -0.5455 -0.6487
    4DOPE   C33  470   5.333   4.823   7.823  0.3123 -0.1331 -0.2912
    4DOPE   H3X  471   5.312   4.716   7.805  1.1386 -0.4611  0.5786
    4DOPE   H3Y  472   5.444   4.837   7.828  0.2759 -0.1295  1.0271
    4DOPE   C34  473   5.289   4.897   7.689 -0.3007  0.3814  0.0759
    4DOPE   H4X  474   5.180   4.883   7.677 -0.1782  0.0510 -0.6961
    4DOPE   H4Y  475   5.302   5.007   7.696 -0.4611  0.3995  0.0931
    4DOPE   C35  476   5.361   4.849   7.563  0.2693  0.1437 -0.6912
    4DOPE   H5X  477   5.367   4.738   7.565 -0.6210  0.0416 -2.1788
    4DOPE   H5Y  478   5.465   4.887   7.567 -0.2706  1.5857 -0.0122
    4DOPE   C36  479   5.290   4.902   7.435  0.0160  0.1416  0.3437
    4DOPE   H6X  480   5.296   5.013   7.441 -0.7945  0.3417 -1.7460
    4DOPE   H6Y  481   5.183   4.871   7.444  0.3568 -0.9434  0.7826
    4DOPE   C37  482   5.352   4.846   7.302  0.2249 -0.6629 -0.4649
    4DOPE   H7X  483   5.454   4.891   7.297  0.0085  0.1826  1.6249
    4DOPE   H7Y  484   5.370   4.739   7.327  0.0264 -0.3710  1.0421
    4DOPE   C38  485   5.268   4.878   7.170 -0.3388 -0.0314 -0.5808
    4DOPE   H8X  486   5.260   4.988   7.153  0.2120  0.2325  0.7466
    4DOPE   H8Y  487   5.162   4.853   7.194  0.1123 -0.8292  0.6368
    4DOPE   C39  488   5.323   4.801   7.051  1.0618  0.6737 -1.1076
    4DOPE   H9X  489   5.429   4.772   7.056  0.4833 -1.5118 -0.2451
    4DOPE  C310  490   5.238   4.762   6.948  0.1076 -0.1729 -0.5293
    4DOPE  H10X  491   5.288   4.713   6.862  2.0263 -1.1248  1.0433
    4DOPE  C311  492   5.092   4.802   6.932  0.3997  0.1148 -0.0596
    4DOPE  H11X  493   5.048   4.714   6.880 -1.4987  1.1048 -0.2111
    4DOPE  H11Y  494   5.033   4.811   7.026 -0.2675 -1.4691 -0.2969
    4DOPE  C312  495   5.064   4.916   6.829 -1.0156  0.2664 -0.4343
    4DOPE  H12X  496   5.130   4.906   6.740  1.7559 -1.0333  1.5920
    4DOPE  H12Y  497   5.083   5.006   6.893 -1.1257 -0.2010  0.2684
    4DOPE  C313  498   4.918   4.910   6.796  0.5808  0.5986 -0.3353
    4DOPE  H13X  499   4.893   4.825   6.728 -0.6100 -0.4203  1.2888
    4DOPE  H13Y  500   4.859   4.903   6.890 -0.7996  1.5709 -1.0956
    4DOPE  C314  501   4.865   5.037   6.736  0.7176  0.2343 -0.3684
    4DOPE  H14X  502   4.905   5.052   6.634  0.4329  2.4285 -0.2043
    4DOPE  H14Y  503   4.894   5.123   6.799  2.4497 -1.9774  2.0711
    4DOPE  C315  504   4.711   5.043   6.711 -0.5118 -0.3745 -0.1488
    4DOPE  H15X  505   4.659   5.081   6.802 -0.4272 -0.0827 -0.2204
    4DOPE  H15Y  506   4.662   4.953   6.668  0.4954 -0.1979 -1.7322
    4DOPE  C316  507   4.687   5.148   6.598 -0.2702 -1.1889  0.3047
    4DOPE  H16X  508   4.750   5.117   6.512  0.6144  0.6161  0.2621
    4DOPE  H16Y  509   4.724   5.247   6.630 -1.9002 -0.4744  0.0982
    4DOPE  C317  510   4.534   5.152   6.553 -0.6657  0.2604 -0.2411
    4DOPE  H17X  511   4.509   5.045   6.538 -1.4899  0.3018  0.7313
    4DOPE  H17Y  512   4.470   5.181   6.639  0.7949 -1.1118  1.3973
    4DOPE  C318  513   4.509   5.239   6.430 -0.6395 -0.9835 -0.8967
    4DOPE  H18X  514   4.523   5.343   6.466 -0.2902 -0.2943 -2.9029
    4DOPE  H18Y  515   4.579   5.233   6.344 -1.4072 -0.8976 -1.5353
    4DOPE  H18Z  516   4.408   5.221   6.388 -1.5827 -1.6188  1.4508
    5DOPE     N  517   2.316   5.678   9.357  0.6858  0.1343 -0.4968
    5DOPE   HN1  518   2.217   5.699   9.381  0.6879 -1.0956  0.6825
    5DOPE   HN2  519   2.369   5.691   9.445  0.8294  1.2443 -0.7255
    5DOPE   HN3  520   2.347   5.743   9.282  3.2152  1.0980  1.2475
    5DOPE   C12  521   2.326   5.536   9.308 -0.2821  0.2977  0.5664
    5DOPE  H12A  522   2.245   5.515   9.235 -1.9328  3.3051  1.3388
    5DOPE  H12B  523   2.304   5.477   9.399  1.0637 -0.5695  0.3588
    5DOPE   C11  524   2.472   5.500   9.258  0.3041 -0.1415 -0.5264
    5DOPE  H11A  525   2.480   5.553   9.161 -0.4486 -0.8856 -1.0177
    5DOPE  H11B  526   2.473   5.390   9.242  1.7128 -0.3188  0.5913
    5DOPE     P  527   2.679   5.646   9.330  0.4608 -0.2420 -0.3251
    5DOPE   O13  528   2.794   5.629   9.416  0.3426  0.0431 -0.2705
    5DOPE   O14  529   2.610   5.777   9.341  0.3283  0.2696 -0.0643
    5DOPE   O11  530   2.723   5.622   9.177 -0.2673 -0.3744 -0.2676
    5DOPE   O12  531   2.570   5.532   9.354 -0.0696 -0.2090 -0.3294
    5DOPE    C1  532   2.845   5.551   9.139 -0.5022 -0.1914 -0.0085
    5DOPE    HA  533   2.860   5.468   9.212 -2.9621  1.8164  3.0516
    5DOPE    HB  534   2.938   5.611   9.138  0.4493 -1.6189 -1.4013
    5DOPE    C2  535   2.827   5.500   8.998 -0.1074  0.3830  0.3896
    5DOPE    HS  536   2.910   5.434   8.967 -0.6833 -0.3807  0.4417
    5DOPE   O21  537   2.806   5.611   8.912 -0.4266  0.0385  0.3393
    5DOPE   C21  538   2.923   5.674   8.897  0.1727 -0.0655  0.1552
    5DOPE   O22  539   3.030   5.649   8.950  0.6412 -0.2950  0.1154
    5DOPE   C22  540   2.920   5.764   8.774  0.6395  0.0341  0.4681
    5DOPE   H2R  541   2.855   5.852   8.794 -0.7073 -0.5287 -1.1473
    5DOPE   H2S  542   2.870   5.704   8.695  0.0714 -2.2926  2.4842
    5DOPE    C3  543   2.704   5.398   8.994 -0.0714  0.4884 -0.3463
    5DOPE    HX  544   2.608   5.448   9.020  0.1430  0.7405 -0.0334
    5DOPE    HY  545   2.733   5.323   9.071  2.4562  0.1613 -1.5036
    5DOPE   O31  546   2.704   5.326   8.864 -0.7185  0.5287  0.1458
    5DOPE   C31  547   2.583   5.309   8.816  0.0553 -0.2917  0.4786
    5DOPE   O32  548   2.479   5.332   8.876  0.3450 -0.4257 -0.0395
    5DOPE   C32  549   2.597   5.261   8.671 -0.2817  0.3330 -0.3186
    5DOPE   H2X  550   2.647   5.336   8.607  0.6244 -0.3451 -0.4161
    5DOPE   H2Y  551   2.647   5.162   8.674 -1.4802 -0.2883 -0.3446
    5DOPE   C23  552   3.062   5.796   8.718 -0.0537  0.4271 -0.0845
    5DOPE   H3R  553   3.120   5.701   8.722 -1.1363 -0.2314  0.7505
    5DOPE   H3S  554   3.104   5.866   8.793  2.5044 -0.4488 -0.6043
    5DOPE   C24  555   3.062   5.859   8.577  0.0884 -0.2059 -0.3675
    5DOPE   H4R  556   3.030   5.800   8.489  0.1801 -0.9991  0.1286
    5DOPE   H4S  557   3.165   5.896   8.556 -0.8580  1.8285 -1.7722
    5DOPE   C25  558   2.982   5.993   8.565  0.9924 -0.0468 -0.0022
    5DOPE   H5R  559   3.014   6.060   8.647 -0.9010  0.9936 -0.0512
    5DOPE   H5S  560   2.873   5.972   8.573  0.7964  1.5308  2.8075
    5DOPE   C26  561   3.001   6.070   8.439 -0.5489 -0.4503 -0.0249
    5DOPE   H6R  562   3.105   6.079   8.402 -0.8963 -1.1809 -1.2311
    5DOPE   H6S  563   2.971   6.174   8.466 -0.1709 -0.5838  0.9669
    5DOPE   C27  564   2.917   6.012   8.323  0.3658 -0.6770 -0.4099
    5DOPE   H7R  565   2.904   5.903   8.337 -0.7385 -0.4444  0.6000
    5DOPE   H7S  566   2.960   6.030   8.222 -1.9883 -1.7489 -1.6964
    5DOPE   C28  567   2.773   6.077   8.313 -0.2049  0.2735 -0.7320
    5DOPE   H8R  568   2.783   6.188   8.315 -0.5278  0.2952 -0.0472
    5DOPE   H8S  569   2.723   6.051   8.408 -0.5336 -0.5180 -1.1129
    5DOPE   C29  570   2.698   6.027   8.193  0.2191 -0.2983  0.0904
    5DOPE   H9R  571   2.615   5.959   8.216  1.2214 -1.0199  1.8048
    5DOPE  C210  572   2.699   6.060   8.065 -0.4066 -0.6754  0.7779
    5DOPE  H10R  573   2.632   6.005   7.996  1.0786  0.9038 -2.1015
    5DOPE  C211  574   2.784   6.151   7.980 -0.1756 -0.2616 -0.3547
    5DOPE  H11R  575   2.851   6.212   8.045  1.1278  0.3209 -2.1216
    5DOPE  H11S  576   2.719   6.224   7.926  1.1975  0.1752 -1.4991
    5DOPE  C212  577   2.862   6.070   7.869 -0.3256  0.3916  0.7850
    5DOPE  H12R  578   2.916   5.990   7.925 -1.4231 -0.7284  0.2981
    5DOPE  H12S  579   2.929   6.137   7.811 -0.6525  0.1436  0.1122
    5DOPE  C213  580   2.769   5.989   7.772  0.1986 -0.0523  0.4833
    5DOPE  H13R  581   2.698   6.068   7.739 -0.0118 -0.5821 -0.3597
    5DOPE  H13S  582   2.725   5.904   7.830  0.1708 -0.6294 -0.3711
    5DOPE  C214  583   2.831   5.934   7.640  0.1029 -0.1013  0.3844
    5DOPE  H14R  584   2.883   5.836   7.647  0.9178  0.1812 -1.1940
    5DOPE  H14S  585   2.913   6.004   7.610 -0.8173  0.8228 -0.0301
    5DOPE  C215  586   2.736   5.943   7.511  0.9248 -0.1316 -0.3347
    5DOPE  H15R  587   2.703   6.049   7.512 -0.3710 -0.5173  1.4212
    5DOPE  H15S  588   2.639   5.892   7.522  0.1613  0.9472 -1.7209
    5DOPE  C216  589   2.813   5.912   7.382 -0.3353  0.7437  0.3998
    5DOPE  H16R  590   2.850   5.808   7.395 -1.5727  0.1633 -0.4899
    5DOPE  H16S  591   2.903   5.975   7.366  2.2726 -3.2952 -2.9503
    5DOPE  C217  592   2.720   5.903   7.260  1.2873 -0.5511  0.6016
    5DOPE  H17R  593   2.682   6.003   7.231 -0.4810 -1.1058  0.8866
    5DOPE  H17S  594   2.632   5.846   7.297 -0.1489  2.6081  2.3940
    5DOPE  C218  595   2.786   5.829   7.145 -0.8143 -0.8493  0.1385
    5DOPE  H18R  596   2.710   5.809   7.067 -1.3794 -1.4704  0.8278
    5DOPE  H18S  597   2.820   5.727   7.174 -2.2013 -1.6441 -0.9600
    5DOPE  H18T  598   2.868   5.890   7.102 -1.9973  2.2512  1.9291
    5DOPE   C33  599   2.460   5.244   8.604  0.0656  0.4487  0.5155
    5DOPE   H3X  600   2.381   5.312   8.643 -2.3007 -2.4261  1.1502
    5DOPE   H3Y  601   2.402   5.154   8.637 -0.3421 -0.6732 -2.8229
    5DOPE   C34  602   2.472   5.239   8.451  0.0317  0.0901  0.7606
    5DOPE   H4X  603   2.375   5.215   8.404 -1.1656  2.6408  1.7305
    5DOPE   H4Y  604   2.501   5.341   8.416  1.0964 -1.0345 -1.9095
    5DOPE   C35  605   2.583   5.140   8.401  0.0702  0.0817  0.0364
    5DOPE   H5X  606   2.564   5.045   8.454 -1.2240  0.3166  0.0391
    5DOPE   H5Y  607   2.689   5.163   8.426 -0.2522  2.1173 -0.2717
    5DOPE   C36  608   2.583   5.137   8.247 -0.6752  0.3159  0.1474
    5DOPE   H6X  609   2.633   5.226   8.205 -0.1175 -1.4303 -3.3131
    5DOPE   H6Y  610   2.479   5.131   8.209 -0.9047  1.8285  0.4874
    5DOPE   C37  611   2.669   5.016   8.196  0.2538 -0.8231  0.2415
    5DOPE   H7X  612   2.779   5.030   8.208 -0.1948  1.0945  2.8689
    5DOPE   H7Y  613   2.656   4.925   8.259  0.0257 -1.3858 -0.5971
    5DOPE   C38  614   2.648   4.984   8.043 -0.3228 -0.4466 -0.4343
    5DOPE   H8X  615   2.547   4.937   8.039 -1.8022  2.3857  0.7998
    5DOPE   H8Y  616   2.728   4.911   8.017  2.1132  2.3199 -1.2256
    5DOPE   C39  617   2.664   5.105   7.956  0.2419 -0.2619 -0.5233
    5DOPE   H9X  618   2.632   5.196   8.007  0.8750 -0.6234  0.5426
    5DOPE  C310  619   2.684   5.106   7.823  0.3119  0.8260 -0.5340
    5DOPE  H10X  620   2.670   5.198   7.764  0.8759  0.5563 -1.0933
    5DOPE  C311  621   2.709   4.979   7.738  0.1374 -0.2883 -0.8592
    5DOPE  H11X  622   2.735   4.888   7.796 -4.3889 -1.6370 -0.5618
    5DOPE  H11Y  623   2.621   4.934   7.689  0.4192 -0.0231 -1.6179
    5DOPE  C312  624   2.819   5.006   7.623  0.1715 -0.5456  0.3576
    5DOPE  H12X  625   2.912   5.036   7.677  0.1830 -0.1406  0.1084
    5DOPE  H12Y  626   2.783   5.086   7.556  0.3955 -1.6275 -1.1006
    5DOPE  C313  627   2.852   4.890   7.528 -0.4976 -0.1512  0.8879
    5DOPE  H13X  628   2.930   4.941   7.468  1.0376 -1.7711  1.4024
    5DOPE  H13Y  629   2.887   4.804   7.591  0.7526  0.1983  0.7035
    5DOPE  C314  630   2.739   4.837   7.437  0.1093  0.2380  0.2512
    5DOPE  H14X  631   2.641   4.845   7.490 -0.5376  3.7014 -1.2267
    5DOPE  H14Y  632   2.749   4.731   7.405  1.8353  0.7663 -1.1191
    5DOPE  C315  633   2.726   4.918   7.310  0.0103 -0.6294  0.1692
    5DOPE  H15X  634   2.825   4.909   7.260 -1.3133 -1.2587 -2.5333
    5DOPE  H15Y  635   2.713   5.028   7.319  0.7751 -0.4700 -0.5071
    5DOPE  C316  636   2.620   4.866   7.220  0.5267 -0.1158  0.5344
    5DOPE  H16X  637   2.523   4.890   7.267 -0.2169  0.9863 -1.4570
    5DOPE  H16Y  638   2.639   4.756   7.215  3.6841  0.2359  2.1276
    5DOPE  C317  639   2.604   4.952   7.092 -0.0373 -0.4633 -0.0431
    5DOPE  H17X  640   2.629   5.057   7.121 -1.9775  0.5314 -1.7107
    5DOPE  H17Y  641   2.672   4.925   7.009  2.5366 -0.0028  1.8013
    5DOPE  C318  642   2.465   4.963   7.030  0.1091  0.6366  0.4425
    5DOPE  H18X  643   2.464   5.041   6.951  0.8227  0.8836  0.6694
    5DOPE  H18Y  644   2.441   4.862   6.991 -0.0860  0.2994  1.4155
    5DOPE  H18Z  645   2.380   4.968   7.101 -1.1245 -2.0703 -0.6956
    6DOPE     N  646   2.526   6.031   9.298  0.1383 -0.2971 -0.1459
    6DOPE   HN1  647   2.463   6.001   9.220 -0.8091  2.4345 -0.5701
    6DOPE   HN2  648   2.580   5.949   9.331 -2.0111 -0.8378  2.4144
    6DOPE   HN3  649   2.466   6.059   9.378  0.9510 -1.2427  0.8169
    6DOPE   C12  650   2.610   6.155   9.256 -0.2063 -0.0424  0.4117
    6DOPE  H12A  651   2.558   6.211   9.175 -1.2676  0.3292  1.3233
    6DOPE  H12B  652   2.706   6.114   9.219 -0.3262 -1.4364  1.5677
    6DOPE   C11  653   2.634   6.256   9.369 -0.9137  0.2756  0.1345
    6DOPE  H11A  654   2.702   6.332   9.324 -0.5580  0.5800  1.1350
    6DOPE  H11B  655   2.695   6.205   9.447 -1.0053 -0.3185 -0.1780
    6DOPE     P  656   2.439   6.421   9.332 -0.0893 -0.3779 -0.3606
    6DOPE   O13  657   2.409   6.530   9.427  0.1035  0.1851  0.4989
    6DOPE   O14  658   2.323   6.357   9.266  0.2735  0.3528 -0.0324
    6DOPE   O11  659   2.535   6.485   9.225  0.2833  0.7155  0.1783
    6DOPE   O12  660   2.515   6.312   9.420  0.0859  0.1130 -0.1888
    6DOPE    C1  661   2.497   6.583   9.127  0.2283 -0.0166  0.1806
    6DOPE    HA  662   2.527   6.682   9.167 -1.4875  0.9002 -0.6936
    6DOPE    HB  663   2.388   6.575   9.106  0.2550  0.1239 -0.0157
    6DOPE    C2  664   2.575   6.553   9.002  0.4311  0.0044  0.8792
    6DOPE    HS  665   2.542   6.629   8.928  1.5268 -2.1935 -2.0615
    6DOPE   O21  666   2.534   6.426   8.952  0.4161  0.1302  0.1841
    6DOPE   C21  667   2.522   6.411   8.823 -0.0758 -0.5436  0.0397
    6DOPE   O22  668   2.544   6.495   8.737 -0.0862 -0.3050  0.2390
    6DOPE   C22  669   2.466   6.269   8.794 -0.2384 -0.3059 -0.2743
    6DOPE   H2R  670   2.366   6.259   8.842  1.1689  0.7570  3.1766
    6DOPE   H2S  671   2.542   6.202   8.840  1.1325  1.4748  0.1295
    6DOPE    C3  672   2.728   6.561   9.021  0.3791 -0.0715  0.1344
    6DOPE    HX  673   2.769   6.476   9.080  0.5966 -0.6888 -0.8849
    6DOPE    HY  674   2.747   6.652   9.082 -1.4159 -0.0459  0.7064
    6DOPE   O31  675   2.807   6.575   8.899 -0.2224 -0.7163 -0.0721
    6DOPE   C31  676   2.853   6.458   8.847 -0.0128 -0.0897  0.5105
    6DOPE   O32  677   2.813   6.348   8.886  0.7866 -0.0573 -0.1169
    6DOPE   C32  678   2.960   6.491   8.744 -0.5044 -0.2814 -0.0207
    6DOPE   H2X  679   2.925   6.553   8.659 -1.9711  0.1362  0.8386
    6DOPE   H2Y  680   3.045   6.540   8.796  1.5260 -0.9401 -2.5362
    6DOPE   C23  681   2.463   6.240   8.645  0.3275  0.0621  0.1422
    6DOPE   H3R  682   2.559   6.271   8.596  1.8669 -1.5201  2.0042
    6DOPE   H3S  683   2.373   6.282   8.596 -1.1479 -2.5913  0.4210
    6DOPE   C24  684   2.463   6.091   8.604 -0.1086 -0.3093 -0.0554
    6DOPE   H4R  685   2.548   6.041   8.655  0.1050  1.0725  1.0240
    6DOPE   H4S  686   2.483   6.095   8.495  1.6827  2.9515  0.2432
    6DOPE   C25  687   2.330   6.028   8.623  0.3654 -0.3209 -0.7650
    6DOPE   H5R  688   2.245   6.088   8.584  0.4380  1.5102  1.6643
    6DOPE   H5S  689   2.307   6.024   8.731 -0.0731 -2.2915 -0.8971
    6DOPE   C26  690   2.328   5.883   8.575 -0.2103 -0.2640 -0.9815
    6DOPE   H6R  691   2.319   5.884   8.464  1.4919  0.7630 -1.1434
    6DOPE   H6S  692   2.236   5.838   8.619 -0.7221 -0.1193 -1.8748
    6DOPE   C27  693   2.452   5.796   8.606  0.1477  0.4833 -0.5068
    6DOPE   H7R  694   2.450   5.797   8.718  1.6486 -1.7863 -0.3813
    6DOPE   H7S  695   2.543   5.853   8.580 -0.8515  2.6456  0.4338
    6DOPE   C28  696   2.456   5.646   8.551 -0.3896 -0.4114  0.2537
    6DOPE   H8R  697   2.367   5.596   8.595 -0.5169  0.7006  1.3209
    6DOPE   H8S  698   2.545   5.599   8.597 -0.1799  1.6699  2.1863
    6DOPE   C29  699   2.445   5.644   8.400 -0.4518 -0.0647 -0.2521
    6DOPE   H9R  700   2.346   5.679   8.367 -0.3006  1.2418  0.6084
    6DOPE  C210  701   2.541   5.612   8.308 -0.1919 -0.4014 -0.4922
    6DOPE  H10R  702   2.517   5.630   8.202  2.4956 -0.5703 -1.2084
    6DOPE  C211  703   2.679   5.563   8.340 -0.2151 -0.3635  0.6892
    6DOPE  H11R  704   2.688   5.459   8.302 -2.8370  0.0312 -1.2667
    6DOPE  H11S  705   2.702   5.568   8.449  0.8883  0.6481  0.4356
    6DOPE  C212  706   2.781   5.645   8.258 -0.0384 -0.2170  0.0559
    6DOPE  H12R  707   2.885   5.625   8.291 -0.4650  1.1724  2.4759
    6DOPE  H12S  708   2.754   5.752   8.263  1.1187  0.1145 -0.6001
    6DOPE  C213  709   2.781   5.601   8.116  0.4143  0.7314 -0.1927
    6DOPE  H13R  710   2.675   5.584   8.089 -0.3065 -0.7219  3.0972
    6DOPE  H13S  711   2.837   5.505   8.110  1.0239  1.0920 -0.4268
    6DOPE  C214  712   2.853   5.697   8.023  0.8531  0.5404 -0.5094
    6DOPE  H14R  713   2.941   5.733   8.081  0.3000  1.1072 -0.0135
    6DOPE  H14S  714   2.792   5.788   8.009  0.3935  0.2986 -0.1075
    6DOPE  C215  715   2.908   5.636   7.900  0.2099  0.3772 -0.1990
    6DOPE  H15R  716   2.962   5.718   7.849 -0.9807  0.9734 -0.5488
    6DOPE  H15S  717   2.822   5.605   7.837  1.2362 -0.7182 -1.0927
    6DOPE  C216  718   3.003   5.517   7.906  0.0752  0.5005 -0.3589
    6DOPE  H16R  719   2.953   5.422   7.932 -1.1827  0.1010 -3.7069
    6DOPE  H16S  720   3.089   5.531   7.975 -1.4135 -0.7695  1.8582
    6DOPE  C217  721   3.067   5.484   7.771 -0.1129  1.0115 -0.3892
    6DOPE  H17R  722   3.120   5.575   7.736 -2.7895  2.5546 -0.7659
    6DOPE  H17S  723   2.987   5.470   7.695  0.4163 -0.7393 -0.6581
    6DOPE  C218  724   3.155   5.353   7.783  0.0564  0.1093  0.5957
    6DOPE  H18R  725   3.084   5.273   7.814 -0.7762  0.3741 -0.5673
    6DOPE  H18S  726   3.240   5.362   7.854 -1.8608 -0.5025  3.1371
    6DOPE  H18T  727   3.192   5.330   7.681 -0.4632 -1.3422  0.7068
    6DOPE   C33  728   3.020   6.363   8.675 -0.0521  0.2765  0.4950
    6DOPE   H3X  729   2.937   6.302   8.633  0.4520 -0.0557 -0.0383
    6DOPE   H3Y  730   3.067   6.319   8.766 -1.0009 -1.1739  0.3044
    6DOPE   C34  731   3.116   6.383   8.558 -0.5206  0.2403  0.6581
    6DOPE   H4X  732   3.189   6.451   8.606  0.8769 -2.5993  2.8835
    6DOPE   H4Y  733   3.169   6.290   8.528  0.1342  1.0409 -0.7400
    6DOPE   C35  734   3.052   6.440   8.425  0.0665 -0.1917 -0.1661
    6DOPE   H5X  735   3.030   6.547   8.442  1.9031  0.1721  0.0922
    6DOPE   H5Y  736   2.952   6.393   8.412 -0.1415  0.4067 -0.8180
    6DOPE   C36  737   3.128   6.419   8.293 -0.0882 -0.1095 -1.1724
    6DOPE   H6X  738   3.161   6.313   8.304 -0.6256 -0.3389 -1.6858
    6DOPE   H6Y  739   3.220   6.481   8.286  1.4476 -2.3219 -1.6189
    6DOPE   C37  740   3.047   6.421   8.165  0.0485  0.1169  0.7809
    6DOPE   H7X  741   2.971   6.341   8.182 -1.0025  0.9181 -0.0573
    6DOPE   H7Y  742   2.996   6.516   8.140 -2.1455 -1.4386 -1.1358
    6DOPE   C38  743   3.121   6.390   8.029  1.2700  0.4058  0.4325
    6DOPE   H8X  744   3.034   6.375   7.962 -0.4314  0.6952  2.4486
    6DOPE   H8Y  745   3.169   6.290   8.038  1.0865  0.3710  1.1110
    6DOPE   C39  746   3.219   6.492   7.972  0.2772 -0.3339 -0.0550
    6DOPE   H9X  747   3.305   6.525   8.032  1.7695  2.2556 -3.3041
    6DOPE  C310  748   3.215   6.535   7.842  0.3192  0.4394 -0.6997
    6DOPE  H10X  749   3.284   6.613   7.808 -0.2408  0.9495 -0.6783
    6DOPE  C311  750   3.108   6.501   7.745 -1.2505 -0.3575  0.7239
    6DOPE  H11X  751   3.008   6.467   7.778 -3.0426  1.6364 -2.2007
    6DOPE  H11Y  752   3.078   6.599   7.703 -0.4506 -0.4810 -0.1698
    6DOPE  C312  753   3.169   6.409   7.634 -0.4415 -0.0083 -0.1505
    6DOPE  H12X  754   3.212   6.321   7.687  0.0575  0.1153 -0.3439
    6DOPE  H12Y  755   3.252   6.464   7.584  2.0673 -4.1373 -1.0412
    6DOPE  C313  756   3.066   6.358   7.520 -0.7251  0.6003 -1.0686
    6DOPE  H13X  757   2.982   6.297   7.559  2.1681 -1.7887  1.9611
    6DOPE  H13Y  758   3.015   6.442   7.466 -0.4652  0.6370 -1.2573
    6DOPE  C314  759   3.142   6.272   7.420 -0.4146 -0.4404  0.6860
    6DOPE  H14X  760   3.168   6.170   7.456  0.4316 -0.3917  0.2478
    6DOPE  H14Y  761   3.229   6.326   7.378 -0.9798  0.3865  0.5436
    6DOPE  C315  762   3.054   6.265   7.299  0.1587 -0.6497  0.3566
    6DOPE  H15X  763   3.039   6.365   7.255  1.9481 -0.1219  0.8632
    6DOPE  H15Y  764   2.959   6.217   7.334  0.1454  0.1810  1.5360
    6DOPE  C316  765   3.114   6.172   7.183  0.6909  0.1171 -0.0532
    6DOPE  H16X  766   3.102   6.067   7.219 -0.7250  0.6435  1.1421
    6DOPE  H16Y  767   3.223   6.186   7.174  0.9813 -0.8840  1.5109
    6DOPE  C317  768   3.041   6.192   7.043 -0.4410  0.1483  0.0610
    6DOPE  H17X  769   2.934   6.169   7.063 -0.5285  0.2039 -0.3434
    6DOPE  H17Y  770   3.065   6.297   7.017  3.4405 -0.6471 -0.1770
    6DOPE  C318  771   3.092   6.094   6.941  0.5232  0.3778 -0.2501
    6DOPE  H18X  772   3.058   6.114   6.837  1.5157  0.1212 -0.6282
    6DOPE  H18Y  773   3.203   6.096   6.941  0.5430 -0.0525 -1.2044
    6DOPE  H18Z  774   3.060   5.991   6.970  0.7538  0.5716  0.7224
    7DOPE     N  775   4.640   1.870   8.495 -0.0623  0.1523 -0.3891
    7DOPE   HN1  776   4.610   1.958   8.448  0.4168  0.2816 -0.4600
    7DOPE   HN2  777   4.691   1.810   8.426 -0.5868  0.7186 -1.2980
    7DOPE   HN3  778   4.546   1.826   8.501  1.0245 -2.1263  2.1544
    7DOPE   C12  779   4.704   1.880   8.636 -0.5691  0.0188 -0.6502
    7DOPE  H12A  780   4.742   1.781   8.670 -1.4719  0.3177  1.3886
    7DOPE  H12B  781   4.617   1.896   8.703 -1.1141 -1.3281 -0.9926
    7DOPE   C11  782   4.802   1.995   8.636  0.1647  0.1257  0.0435
    7DOPE  H11A  783   4.852   2.002   8.735  3.2738  0.3937 -1.4186
    7DOPE  H11B  784   4.746   2.089   8.619 -1.0882 -0.2924  1.5819
    7DOPE     P  785   5.016   2.088   8.526 -0.1688  0.1150  0.6372
    7DOPE   O13  786   5.114   2.060   8.416  0.1052 -0.0018 -0.3114
    7DOPE   O14  787   5.071   2.115   8.659  0.6050 -0.1432 -0.2605
    7DOPE   O11  788   4.933   2.213   8.476  0.2986  0.1235  0.1300
    7DOPE   O12  789   4.905   1.979   8.541 -0.3051  0.4412 -0.3430
    7DOPE    C1  790   4.848   2.209   8.364 -0.0591 -0.7992  0.1648
    7DOPE    HA  791   4.806   2.312   8.366  2.0587  0.0983  2.5600
    7DOPE    HB  792   4.759   2.144   8.380 -0.7757  0.0774 -0.1594
    7DOPE    C2  793   4.913   2.189   8.223 -0.4624 -0.2708 -0.6510
    7DOPE    HS  794   4.977   2.098   8.222  0.3856  0.1857  2.4785
    7DOPE   O21  795   4.986   2.306   8.187 -0.3677 -0.2493 -0.2044
    7DOPE   C21  796   5.085   2.291   8.103  0.2373 -0.0840 -0.0985
    7DOPE   O22  797   5.142   2.193   8.063 -0.0827  0.7031  0.4434
    7DOPE   C22  798   5.120   2.440   8.073  0.5106 -0.0909 -0.2441
    7DOPE   H2R  799   5.198   2.470   8.146 -1.6509  1.9773  1.3570
    7DOPE   H2S  800   5.036   2.507   8.101  0.5646 -0.5757  1.1054
    7DOPE    C3  801   4.808   2.154   8.110 -0.3455  0.7238  0.4207
    7DOPE    HX  802   4.741   2.242   8.102  0.2839  1.1799  0.0716
    7DOPE    HY  803   4.738   2.074   8.142 -1.7427  1.1212 -1.4575
    7DOPE   O31  804   4.864   2.128   7.975  0.2325  0.3892 -0.0658
    7DOPE   C31  805   4.914   2.006   7.972  0.2297  0.7701  1.5771
    7DOPE   O32  806   4.902   1.921   8.058 -0.6526  0.3480  0.2388
    7DOPE   C32  807   4.998   1.983   7.842  0.2933 -0.0753 -0.3012
    7DOPE   H2X  808   5.104   2.000   7.872  0.1969  0.4795 -0.2796
    7DOPE   H2Y  809   4.993   1.873   7.822  0.9470 -0.1801  0.0941
    7DOPE   C23  810   5.144   2.462   7.925  0.2820 -0.5592  0.1611
    7DOPE   H3R  811   5.136   2.572   7.908  0.5085 -0.0668  2.8296
    7DOPE   H3S  812   5.063   2.420   7.862  0.9024 -1.2857 -0.1683
    7DOPE   C24  813   5.281   2.425   7.859  0.4060  0.0253 -0.0303
    7DOPE   H4R  814   5.323   2.348   7.927 -0.0930 -1.8252 -1.7208
    7DOPE   H4S  815   5.345   2.516   7.870  0.4960 -0.2361  2.0158
    7DOPE   C25  816   5.280   2.376   7.716 -0.1081 -0.3003 -0.3071
    7DOPE   H5R  817   5.201   2.300   7.699 -0.2502  0.1339 -1.6866
    7DOPE   H5S  818   5.377   2.324   7.704  0.0417 -0.0042 -0.3794
    7DOPE   C26  819   5.272   2.486   7.607 -0.3721 -0.1556  0.5180
    7DOPE   H6R  820   5.352   2.562   7.596 -0.3053 -0.2533  0.3204
    7DOPE   H6S  821   5.174   2.538   7.619 -0.7598 -0.4029 -1.3169
    7DOPE   C27  822   5.270   2.424   7.463  0.4760  0.1553  0.5863
    7DOPE   H7R  823   5.181   2.357   7.459 -0.4998  1.4746 -0.9016
    7DOPE   H7S  824   5.366   2.375   7.438  1.1914  0.6662  2.1845
    7DOPE   C28  825   5.243   2.534   7.354  0.3325 -0.5085  0.4903
    7DOPE   H8R  826   5.332   2.600   7.347 -1.1728  1.6373  0.5948
    7DOPE   H8S  827   5.160   2.597   7.392  0.4103 -0.0242 -0.1306
    7DOPE   C29  828   5.208   2.463   7.225  0.9042  0.5176  0.8804
    7DOPE   H9R  829   5.169   2.362   7.245  0.6335  0.6193  0.8719
    7DOPE  C210  830   5.195   2.511   7.100 -0.1729 -0.2556  0.2072
    7DOPE  H10R  831   5.165   2.439   7.023 -0.7936 -2.1866  2.1469
    7DOPE  C211  832   5.222   2.660   7.066  0.3750  1.1784 -0.2240
    7DOPE  H11R  833   5.330   2.683   7.056  1.0316 -1.1830  0.5446
    7DOPE  H11S  834   5.193   2.720   7.154  0.5013 -2.1299  2.2895
    7DOPE  C212  835   5.137   2.712   6.948  0.0966 -0.5666 -0.1237
    7DOPE  H12R  836   5.135   2.823   6.946  0.3334 -0.5506 -2.3296
    7DOPE  H12S  837   5.033   2.678   6.966 -0.6526  2.4206  2.0551
    7DOPE  C213  838   5.177   2.644   6.816  0.1655  0.0891 -0.1692
    7DOPE  H13R  839   5.182   2.533   6.822 -2.7821 -0.1271 -0.1337
    7DOPE  H13S  840   5.276   2.680   6.782 -0.2970  0.7779 -0.8347
    7DOPE  C214  841   5.088   2.675   6.699  0.0493  0.3172 -0.4000
    7DOPE  H14R  842   5.150   2.657   6.609  0.1814  0.5615 -0.3578
    7DOPE  H14S  843   5.055   2.781   6.702  0.1513  0.3426 -0.1610
    7DOPE  C215  844   4.964   2.582   6.676 -0.1879 -0.3997  0.5375
    7DOPE  H15R  845   4.890   2.607   6.755 -0.4730 -0.0083  0.1532
    7DOPE  H15S  846   4.995   2.476   6.673  1.4000  0.0629 -0.6862
    7DOPE  C216  847   4.906   2.619   6.537  0.0138 -0.4850  0.6896
    7DOPE  H16R  848   4.980   2.621   6.454 -0.9622  3.2748 -0.2913
    7DOPE  H16S  849   4.881   2.726   6.553 -1.1476 -0.7522  0.7195
    7DOPE  C217  850   4.775   2.550   6.482 -0.3211 -0.2782  0.1334
    7DOPE  H17R  851   4.692   2.568   6.554  0.5031  1.4165  0.7321
    7DOPE  H17S  852   4.798   2.443   6.466 -0.8297 -0.1356 -1.7980
    7DOPE  C218  853   4.719   2.610   6.350 -0.2591 -0.3990  0.2169
    7DOPE  H18R  854   4.787   2.591   6.264 -2.7868 -2.5211 -1.4822
    7DOPE  H18S  855   4.712   2.720   6.364  0.7981 -0.6645  3.7288
    7DOPE  H18T  856   4.622   2.562   6.321  0.6609 -1.4603 -1.2818
    7DOPE   C33  857   4.935   2.057   7.724 -0.5175  0.1287 -0.7360
    7DOPE   H3X  858   4.925   2.162   7.758  1.1937  0.8146 -2.1827
    7DOPE   H3Y  859   4.830   2.025   7.701 -1.1354  2.0952 -0.8266
    7DOPE   C34  860   5.016   2.059   7.595  0.7853  0.1391 -0.0749
    7DOPE   H4X  861   5.123   2.086   7.610  0.3872  1.1056  1.2159
    7DOPE   H4Y  862   5.015   1.953   7.561 -1.7329 -0.0896  0.5152
    7DOPE   C35  863   4.943   2.135   7.485  0.1567 -0.1938  0.5746
    7DOPE   H5X  864   4.964   2.242   7.504  0.7571  0.1298 -1.5968
    7DOPE   H5Y  865   4.834   2.116   7.468  0.4916 -0.6767 -1.3649
    7DOPE   C36  866   5.007   2.115   7.345 -0.6387 -0.6358  0.0168
    7DOPE   H6X  867   5.117   2.118   7.359 -0.4989  2.1237 -0.9593
    7DOPE   H6Y  868   4.989   2.202   7.277 -0.6807 -0.1992  0.5835
    7DOPE   C37  869   4.957   1.986   7.272  0.1883  0.2000  0.0004
    7DOPE   H7X  870   4.970   1.897   7.337  2.5303  1.5458  1.5473
    7DOPE   H7Y  871   4.848   2.002   7.261  0.3255  1.1140 -0.1016
    7DOPE   C38  872   5.014   1.960   7.130 -0.2920 -0.5539 -0.2315
    7DOPE   H8X  873   4.981   1.862   7.092  1.3460 -0.7269 -1.2782
    7DOPE   H8Y  874   5.125   1.953   7.120 -0.2880 -2.5961  0.7602
    7DOPE   C39  875   4.978   2.071   7.025 -0.0952  1.0785  0.1507
    7DOPE   H9X  876   4.978   2.176   7.057 -2.1884  1.5494 -1.1621
    7DOPE  C310  877   4.957   2.044   6.891 -0.4189  0.3952  0.0271
    7DOPE  H10X  878   4.926   2.121   6.819  0.3375  1.0958  0.4277
    7DOPE  C311  879   4.955   1.912   6.823  0.3140 -0.4442 -0.0940
    7DOPE  H11X  880   4.975   1.829   6.895  3.6399 -0.0767 -0.4120
    7DOPE  H11Y  881   4.850   1.899   6.791  0.2170 -0.6933  0.3174
    7DOPE  C312  882   5.061   1.894   6.711  0.1488 -0.2056  0.2779
    7DOPE  H12X  883   5.167   1.883   6.742  0.4778 -1.5884 -1.2111
    7DOPE  H12Y  884   5.072   1.981   6.643  0.7064 -1.6306 -1.5246
    7DOPE  C313  885   5.021   1.779   6.629 -0.7983  0.2485  0.9351
    7DOPE  H13X  886   4.984   1.702   6.699 -2.8636  0.4606  0.1261
    7DOPE  H13Y  887   4.938   1.802   6.560  1.5591  0.8819 -1.8623
    7DOPE  C314  888   5.145   1.714   6.553 -0.0265 -0.3716  0.1701
    7DOPE  H14X  889   5.222   1.678   6.625  0.2853  1.0968  0.6170
    7DOPE  H14Y  890   5.204   1.788   6.495 -0.7149  0.0504 -0.0076
    7DOPE  C315  891   5.102   1.604   6.456 -0.6977  0.3829 -0.1092
    7DOPE  H15X  892   5.032   1.649   6.382  0.0899  2.6332  0.4197
    7DOPE  H15Y  893   5.058   1.526   6.522  0.3687 -1.1507 -1.1300
    7DOPE  C316  894   5.221   1.552   6.372  0.2520  0.6565 -0.5796
    7DOPE  H16X  895   5.278   1.472   6.424 -1.6367 -0.9858 -0.8807
    7DOPE  H16Y  896   5.281   1.641   6.344 -0.9348  1.5747 -0.2823
    7DOPE  C317  897   5.167   1.487   6.245  0.1969 -1.3388  0.3179
    7DOPE  H17X  898   5.075   1.430   6.271 -0.7090 -0.2047 -0.3415
    7DOPE  H17Y  899   5.147   1.578   6.185 -1.3841 -0.0037  2.6805
    7DOPE  C318  900   5.267   1.394   6.180 -0.0159  0.1826 -0.1415
    7DOPE  H18X  901   5.356   1.451   6.148 -0.3436  2.6437  2.7918
    7DOPE  H18Y  902   5.302   1.307   6.240 -0.5660 -0.4536 -0.7282
    7DOPE  H18Z  903   5.223   1.354   6.086  0.7019  0.0270 -0.4121
    8DOPE     N  904   4.783   0.458   9.020 -0.5130 -0.3903  0.0449
    8DOPE   HN1  905   4.787   0.558   8.991 -0.6606 -0.7342 -1.2314
    8DOPE   HN2  906   4.878   0.430   9.049 -1.2008 -0.7766  2.0717
    8DOPE   HN3  907   4.770   0.402   8.933  0.4553 -1.3501  0.5019
    8DOPE   C12  908   4.681   0.410   9.116  0.6392 -0.4341 -0.0424
    8DOPE  H12A  909   4.658   0.500   9.178  0.8535 -0.3781 -0.0428
    8DOPE  H12B  910   4.714   0.316   9.165  0.7756 -1.1482 -1.4442
    8DOPE   C11  911   4.546   0.373   9.043 -0.7229  0.3011  0.7215
    8DOPE  H11A  912   4.510   0.444   8.965 -3.0351 -1.3762  0.1522
    8DOPE  H11B  913   4.475   0.365   9.127 -0.4954 -1.8852  0.7487
    8DOPE     P  914   4.540   0.111   9.040  0.1496 -0.1702 -0.6513
    8DOPE   O13  915   4.466   0.122   9.167 -0.3546  0.2705 -0.2529
    8DOPE   O14  916   4.674   0.052   9.059 -0.3888  0.1106 -0.2127
    8DOPE   O11  917   4.458   0.024   8.938 -0.1070 -0.4993  0.1559
    8DOPE   O12  918   4.557   0.245   8.968  0.1647 -0.6211  0.2497
    8DOPE    C1  919   4.318   0.025   8.952  0.1701  0.1809  0.3268
    8DOPE    HA  920   4.274   0.127   8.950 -0.7506 -0.1752  1.5281
    8DOPE    HB  921   4.285  -0.017   9.050 -0.0827 -1.6288 -0.5076
    8DOPE    C2  922   4.248  -0.062   8.833  0.2945 -0.0132  0.4771
    8DOPE    HS  923   4.295  -0.163   8.835 -1.5883 -0.9096  2.8047
    8DOPE   O21  924   4.268   0.004   8.703  0.5105 -0.5599 -0.2576
    8DOPE   C21  925   4.363  -0.048   8.628 -0.2149 -0.3666  0.2812
    8DOPE   O22  926   4.444  -0.138   8.662  0.7060 -0.4144 -0.4691
    8DOPE   C22  927   4.358   0.002   8.488  0.1614 -0.5297 -0.8962
    8DOPE   H2R  928   4.375   0.111   8.489  1.7228 -0.7401 -1.3552
    8DOPE   H2S  929   4.255  -0.004   8.448  0.1357  0.9764 -1.1052
    8DOPE    C3  930   4.094  -0.086   8.853  0.0279 -0.2770  0.2674
    8DOPE    HX  931   4.058   0.018   8.868 -1.0062 -0.8926  2.5991
    8DOPE    HY  932   4.077  -0.131   8.953 -2.5323 -1.5907 -0.6777
    8DOPE   O31  933   4.019  -0.143   8.742 -0.0294  0.1364  0.1186
    8DOPE   C31  934   3.955  -0.262   8.772 -0.1776 -0.2307  0.2290
    8DOPE   O32  935   3.982  -0.334   8.864 -0.1192 -0.2764 -1.2110
    8DOPE   C32  936   3.839  -0.283   8.682  0.5076 -0.1911 -0.1645
    8DOPE   H2X  937   3.777  -0.369   8.715 -0.9307  0.8475 -0.0850
    8DOPE   H2Y  938   3.769  -0.199   8.700  1.2897  0.3512  0.3881
    8DOPE   C23  939   4.449  -0.076   8.391  0.2777 -0.9101 -0.4079
    8DOPE   H3R  940   4.427  -0.184   8.406  1.1461 -1.0589 -0.1004
    8DOPE   H3S  941   4.555  -0.055   8.418  0.8072 -0.0752 -2.8991
    8DOPE   C24  942   4.412  -0.048   8.252 -0.0585  0.4616 -0.0454
    8DOPE   H4R  943   4.425   0.061   8.236 -0.0240  0.7352  1.6431
    8DOPE   H4S  944   4.306  -0.080   8.235  0.8554 -1.9719 -1.6914
    8DOPE   C25  945   4.489  -0.123   8.154 -0.4730  0.4277  0.4340
    8DOPE   H5R  946   4.468  -0.232   8.159 -0.5514  0.3594 -1.0926
    8DOPE   H5S  947   4.598  -0.107   8.171 -0.0769 -1.5574 -0.0678
    8DOPE   C26  948   4.459  -0.094   8.004  0.5828 -0.5257  0.0276
    8DOPE   H6R  949   4.489   0.007   7.967 -0.2601 -1.1506 -2.5459
    8DOPE   H6S  950   4.349  -0.099   7.991  0.4151 -1.2300  1.5628
    8DOPE   C27  951   4.518  -0.194   7.908 -0.0366 -0.0669 -1.0331
    8DOPE   H7R  952   4.495  -0.296   7.945  2.0592  0.0096  0.7023
    8DOPE   H7S  953   4.629  -0.193   7.915  0.0220  0.2402 -1.9190
    8DOPE   C28  954   4.467  -0.173   7.769 -0.3192 -0.3880  0.6890
    8DOPE   H8R  955   4.357  -0.163   7.770 -0.1223  3.1740  1.0707
    8DOPE   H8S  956   4.495  -0.266   7.716  0.9477 -0.7825  1.9850
    8DOPE   C29  957   4.518  -0.053   7.689  0.2368  0.5572  0.6765
    8DOPE   H9R  958   4.565   0.029   7.745  2.3975  0.1562 -0.4635
    8DOPE  C210  959   4.505  -0.032   7.557 -0.3052 -0.2232  0.2137
    8DOPE  H10R  960   4.553   0.056   7.512 -0.3119 -1.1946 -1.7899
    8DOPE  C211  961   4.428  -0.125   7.469  0.2021 -0.6406 -0.4478
    8DOPE  H11R  962   4.326  -0.085   7.451 -0.2008  0.3012  3.1395
    8DOPE  H11S  963   4.415  -0.226   7.515 -3.0651  0.1776  0.7226
    8DOPE  C212  964   4.492  -0.139   7.332 -0.2298 -0.0770 -0.1363
    8DOPE  H12R  965   4.587  -0.197   7.341  0.0084  0.3732  0.3427
    8DOPE  H12S  966   4.519  -0.042   7.286 -0.2007  0.5468  1.1514
    8DOPE  C213  967   4.395  -0.202   7.225  0.0826  0.2074  0.1902
    8DOPE  H13R  968   4.302  -0.142   7.218  0.6531  1.1176  0.1462
    8DOPE  H13S  969   4.362  -0.301   7.261  1.8185 -0.5877 -0.3137
    8DOPE  C214  970   4.463  -0.212   7.092 -0.6615  0.3873 -0.6220
    8DOPE  H14R  971   4.557  -0.271   7.100  0.9422  2.1839 -4.0483
    8DOPE  H14S  972   4.508  -0.112   7.070  1.6873 -0.3229  0.5912
    8DOPE  C215  973   4.373  -0.262   6.977 -0.6357  0.0180  0.3548
    8DOPE  H15R  974   4.270  -0.222   6.979 -0.4971  0.5140 -1.0996
    8DOPE  H15S  975   4.353  -0.370   6.995 -0.4927  0.2914  2.3679
    8DOPE  C216  976   4.434  -0.234   6.843  0.3069  0.4202 -1.1174
    8DOPE  H16R  977   4.518  -0.306   6.827  0.2911  0.7191 -2.7439
    8DOPE  H16S  978   4.473  -0.130   6.843 -1.1282  0.9752 -1.1415
    8DOPE  C217  979   4.338  -0.249   6.726  0.9488 -0.7146  0.4124
    8DOPE  H17R  980   4.271  -0.161   6.739  2.2418  0.5778 -1.2098
    8DOPE  H17S  981   4.281  -0.344   6.735 -2.0007  0.8220 -0.4513
    8DOPE  C218  982   4.401  -0.230   6.586 -0.1535 -0.5259  0.5696
    8DOPE  H18R  983   4.434  -0.126   6.568 -1.7888 -0.3652 -1.9803
    8DOPE  H18S  984   4.321  -0.237   6.509 -0.3330  4.2836  0.0679
    8DOPE  H18T  985   4.478  -0.307   6.564 -2.1039 -1.5926 -3.5860
    8DOPE   C33  986   3.878  -0.306   8.529  0.2054  0.5385 -0.0441
    8DOPE   H3X  987   3.923  -0.405   8.510  0.4987  0.1178  2.4783
    8DOPE   H3Y  988   3.947  -0.228   8.490  0.5548  0.9685  1.3692
    8DOPE   C34  989   3.766  -0.300   8.428  0.0680 -0.0423  0.5378
    8DOPE   H4X  990   3.709  -0.391   8.456  0.2506 -0.7963 -1.4300
    8DOPE   H4Y  991   3.721  -0.198   8.435  2.0923  1.1037 -1.6732
    8DOPE   C35  992   3.814  -0.323   8.288  0.5782  0.8531  0.0508
    8DOPE   H5X  993   3.867  -0.418   8.268 -1.9820 -0.2707 -2.0137
    8DOPE   H5Y  994   3.888  -0.242   8.268 -0.5166  1.6386 -0.9592
    8DOPE   C36  995   3.704  -0.298   8.179  0.2354 -0.2866  0.2770
    8DOPE   H6X  996   3.679  -0.190   8.180  1.7504  0.0886  0.9813
    8DOPE   H6Y  997   3.610  -0.350   8.209 -0.1347  0.4803  0.4763
    8DOPE   C37  998   3.738  -0.330   8.028  0.2209 -0.1152 -0.3634
    8DOPE   H7X  999   3.842  -0.293   8.017 -0.0097  0.1174 -2.1049
    8DOPE   H7Y 1000   3.749  -0.439   8.010  0.9094 -0.0706 -0.2202
    8DOPE   C38 1001   3.664  -0.234   7.926 -0.0759  1.0964 -0.1873
    8DOPE   H8X 1002   3.741  -0.218   7.848  1.8443 -1.8606  0.9459
    8DOPE   H8Y 1003   3.646  -0.134   7.972  3.2382  1.2088  1.1238
    8DOPE   C39 1004   3.546  -0.304   7.857  0.1137  0.5982  0.1861
    8DOPE   H9X 1005   3.465  -0.342   7.921 -1.9482  1.1368 -1.9621
    8DOPE  C310 1006   3.529  -0.341   7.735  0.1820 -0.3353  0.2434
    8DOPE  H10X 1007   3.439  -0.402   7.715 -0.1854  0.8422 -1.9945
    8DOPE  C311 1008   3.621  -0.314   7.614  0.2413  0.0678 -0.7382
    8DOPE  H11X 1009   3.644  -0.205   7.610  0.6726  0.0387  0.5191
    8DOPE  H11Y 1010   3.723  -0.359   7.613  0.2895  0.1737 -0.6448
    8DOPE  C312 1011   3.554  -0.350   7.477 -0.1448  0.3054  0.4646
    8DOPE  H12X 1012   3.620  -0.308   7.399  0.1874 -2.0176 -0.5750
    8DOPE  H12Y 1013   3.458  -0.294   7.465 -0.0605 -0.1342 -3.2003
    8DOPE  C313 1014   3.547  -0.496   7.448  0.1748  0.0780 -0.0774
    8DOPE  H13X 1015   3.645  -0.542   7.474 -0.5900 -0.4076  2.2166
    8DOPE  H13Y 1016   3.478  -0.553   7.513  0.0703  0.6091  0.2819
    8DOPE  C314 1017   3.503  -0.521   7.304 -0.5587  0.1582 -0.5711
    8DOPE  H14X 1018   3.549  -0.442   7.240  3.7954 -0.1569  1.7421
    8DOPE  H14Y 1019   3.392  -0.522   7.304 -0.5557 -1.1967 -0.2965
    8DOPE  C315 1020   3.558  -0.654   7.251 -0.1901  0.0705 -0.4117
    8DOPE  H15X 1021   3.520  -0.732   7.321 -1.7895  0.5107 -0.7478
    8DOPE  H15Y 1022   3.668  -0.660   7.260 -0.3914 -1.2944  2.1649
    8DOPE  C316 1023   3.511  -0.681   7.103 -0.5545  0.1877 -0.4554
    8DOPE  H16X 1024   3.401  -0.670   7.106 -0.5561  0.4212 -1.3027
    8DOPE  H16Y 1025   3.543  -0.786   7.087  1.0861  0.5609  0.1765
    8DOPE  C317 1026   3.564  -0.581   7.001  0.1389 -0.0120 -0.7685
    8DOPE  H17X 1027   3.538  -0.618   6.900  2.4961  0.1430 -1.4772
    8DOPE  H17Y 1028   3.520  -0.479   7.009 -0.4316 -0.3315  0.4629
    8DOPE  C318 1029   3.717  -0.576   6.995 -0.1812 -0.0086  0.2518
    8DOPE  H18X 1030   3.766  -0.672   6.968  1.1463  0.9392 -0.8582
    8DOPE  H18Y 1031   3.762  -0.535   7.088 -0.5103  2.4758 -0.6028
    8DOPE  H18Z 1032   3.743  -0.500   6.918 -2.1383  0.4443 -0.0090
    9DOPE     N 1033   1.573   3.570   8.713 -0.2609 -0.2515  0.1860
    9DOPE   HN1 1034   1.582   3.483   8.657 -1.7076 -0.6205  0.5010
    9DOPE   HN2 1035   1.623   3.556   8.803 -0.7569 -0.5762  0.4133
    9DOPE   HN3 1036   1.470   3.574   8.721 -0.2464  0.9442  0.0043
    9DOPE   C12 1037   1.622   3.690   8.633 -0.5727 -0.1803 -0.3392
    9DOPE  H12A 1038   1.568   3.696   8.536  0.1683  0.0800 -0.7406
    9DOPE  H12B 1039   1.726   3.662   8.606  0.3283 -0.2967  2.8033
    9DOPE   C11 1040   1.609   3.810   8.721  0.1530 -0.5744 -0.0837
    9DOPE  H11A 1041   1.622   3.897   8.653 -0.6767 -0.3347  0.0583
    9DOPE  H11B 1042   1.690   3.803   8.797  1.3453  0.9902 -1.1536
    9DOPE     P 1043   1.441   3.958   8.858 -0.1907  0.0912  0.0430
    9DOPE   O13 1044   1.559   4.001   8.936 -0.2132 -0.2484  0.3048
    9DOPE   O14 1045   1.314   3.926   8.933 -0.3940  0.6264 -0.0867
    9DOPE   O11 1046   1.416   4.051   8.733 -0.5140  0.2410 -0.3092
    9DOPE   O12 1047   1.478   3.824   8.783  0.0237  0.3308  0.3275
    9DOPE    C1 1048   1.320   4.012   8.639 -0.1795  0.3973  0.3982
    9DOPE    HA 1049   1.241   4.090   8.649 -2.4391 -1.8485  1.0766
    9DOPE    HB 1050   1.252   3.931   8.672 -3.3139  2.3670 -0.7888
    9DOPE    C2 1051   1.369   3.999   8.491 -0.2218  0.2779 -0.5180
    9DOPE    HS 1052   1.406   3.896   8.474  0.4755  0.1896  1.3340
    9DOPE   O21 1053   1.471   4.098   8.456  0.5041 -0.0404  0.0433
    9DOPE   C21 1054   1.588   4.057   8.420 -0.7229 -0.0873 -0.1299
    9DOPE   O22 1055   1.625   3.944   8.421 -0.5344 -0.3754  0.1441
    9DOPE   C22 1056   1.674   4.182   8.377 -0.2514  0.1440  0.2306
    9DOPE   H2R 1057   1.777   4.145   8.399 -0.3635 -0.6194 -0.4952
    9DOPE   H2S 1058   1.647   4.268   8.443 -0.3473  1.0584 -0.9626
    9DOPE    C3 1059   1.246   4.015   8.400  0.2265 -0.8080 -0.5044
    9DOPE    HX 1060   1.216   4.122   8.392  1.0321 -0.3344  1.9111
    9DOPE    HY 1061   1.159   3.974   8.455 -0.1084 -1.0393 -1.1976
    9DOPE   O31 1062   1.260   3.951   8.273  0.0695  0.7700  0.0652
    9DOPE   C31 1063   1.283   4.021   8.163  0.2262 -0.4191  0.0168
    9DOPE   O32 1064   1.277   4.143   8.165  0.6985 -0.6092 -0.0684
    9DOPE   C32 1065   1.324   3.933   8.046  0.5075 -0.1217 -0.3004
    9DOPE   H2X 1066   1.434   3.934   8.057  0.2843 -0.5541  3.0759
    9DOPE   H2Y 1067   1.279   3.833   8.068  2.2335 -1.3520 -1.9901
    9DOPE   C23 1068   1.648   4.216   8.227  0.1043  0.1932  0.0347
    9DOPE   H3R 1069   1.705   4.311   8.213  0.0679  0.4768  1.5701
    9DOPE   H3S 1070   1.541   4.234   8.203 -0.1552 -2.1308 -0.7396
    9DOPE   C24 1071   1.705   4.115   8.128 -0.1319 -0.2368 -0.6464
    9DOPE   H4R 1072   1.661   4.013   8.139 -0.0367 -0.1761  0.4475
    9DOPE   H4S 1073   1.814   4.095   8.138 -0.2334 -1.0105 -1.0080
    9DOPE   C25 1074   1.672   4.152   7.976 -0.4584  0.1048  0.5448
    9DOPE   H5R 1075   1.712   4.254   7.952 -3.5542  0.7749 -2.5785
    9DOPE   H5S 1076   1.563   4.153   7.957 -0.4072 -0.8663  0.1593
    9DOPE   C26 1077   1.733   4.055   7.870 -0.4838  0.4141 -0.3117
    9DOPE   H6R 1078   1.708   3.950   7.897  1.1507  0.3737  1.2355
    9DOPE   H6S 1079   1.843   4.048   7.856 -0.3834 -0.2244  0.7105
    9DOPE   C27 1080   1.662   4.082   7.738  0.3185 -0.5161  0.9677
    9DOPE   H7R 1081   1.680   4.187   7.707 -0.4771 -0.1763  1.6389
    9DOPE   H7S 1082   1.553   4.084   7.757 -0.0848 -0.4563 -1.1044
    9DOPE   C28 1083   1.707   3.989   7.623 -0.0642  0.3740 -0.4817
    9DOPE   H8R 1084   1.665   3.891   7.653  0.8703  0.9440  3.1754
    9DOPE   H8S 1085   1.816   3.973   7.613 -0.1217 -0.6292  0.3478
    9DOPE   C29 1086   1.652   4.029   7.484  0.4710  0.4034  0.5259
    9DOPE   H9R 1087   1.543   4.043   7.489  0.4380  2.8044 -3.2930
    9DOPE  C210 1088   1.699   4.021   7.361 -0.3936  0.9073  0.0789
    9DOPE  H10R 1089   1.632   4.044   7.277  1.0676 -1.2167 -1.7813
    9DOPE  C211 1090   1.829   3.983   7.324 -0.7974  0.2513 -0.0505
    9DOPE  H11R 1091   1.875   3.916   7.400  0.8315 -0.0240 -1.2296
    9DOPE  H11S 1092   1.889   4.076   7.334 -1.8115  0.9123 -0.0171
    9DOPE  C212 1093   1.843   3.930   7.177 -0.0488 -0.1017  0.6248
    9DOPE  H12R 1094   1.778   3.841   7.160 -2.9338  2.0352 -0.4153
    9DOPE  H12S 1095   1.945   3.896   7.150 -0.5232 -0.9758 -0.1397
    9DOPE  C213 1096   1.811   4.022   7.055  0.1474  0.1912  0.7564
    9DOPE  H13R 1097   1.846   4.125   7.077 -2.6853  1.3154  0.3824
    9DOPE  H13S 1098   1.703   4.045   7.060 -0.0980 -0.0828 -1.7958
    9DOPE  C214 1099   1.853   3.960   6.919  0.3054  0.7632 -0.1021
    9DOPE  H14R 1100   1.796   3.865   6.905  0.0957  1.0151 -0.9976
    9DOPE  H14S 1101   1.963   3.949   6.918  0.6321  3.5189 -0.6789
    9DOPE  C215 1102   1.831   4.049   6.800  0.0183 -0.6228  0.5109
    9DOPE  H15R 1103   1.923   4.110   6.784 -2.2323  3.1838  0.6670
    9DOPE  H15S 1104   1.746   4.120   6.792 -1.1686 -2.1611 -1.4205
    9DOPE  C216 1105   1.826   3.964   6.673  0.3031  0.0807 -0.1546
    9DOPE  H16R 1106   1.737   3.898   6.689  0.2692 -0.1962 -1.3579
    9DOPE  H16S 1107   1.921   3.908   6.662  0.2388  0.0612 -0.6454
    9DOPE  C217 1108   1.798   4.040   6.544 -0.5943 -0.2080 -0.3211
    9DOPE  H17R 1109   1.702   4.090   6.569 -0.7315  0.4421 -2.0462
    9DOPE  H17S 1110   1.781   3.960   6.469  0.0745 -1.2258  0.5704
    9DOPE  C218 1111   1.910   4.140   6.504 -0.1826  0.3876 -0.2868
    9DOPE  H18R 1112   1.921   4.220   6.581  0.4803 -0.8184  0.9182
    9DOPE  H18S 1113   1.880   4.202   6.417  2.3204  2.2675  0.0835
    9DOPE  H18T 1114   2.013   4.103   6.483 -0.7125 -0.5699 -1.3045
    9DOPE   C33 1115   1.281   3.986   7.912 -0.2370  0.1145  0.5826
    9DOPE   H3X 1116   1.322   4.089   7.910 -1.1927  0.4971  0.0796
    9DOPE   H3Y 1117   1.170   3.988   7.904 -0.2258 -0.1507  0.3681
    9DOPE   C34 1118   1.332   3.898   7.795  0.0960  0.5766  0.1133
    9DOPE   H4X 1119   1.441   3.916   7.781 -0.2213  1.9451 -0.8615
    9DOPE   H4Y 1120   1.313   3.790   7.813 -0.1506  0.8479  1.5819
    9DOPE   C35 1121   1.276   3.933   7.665  0.6695 -1.0315  0.8847
    9DOPE   H5X 1122   1.305   4.039   7.647 -0.0880 -0.4996  2.5666
    9DOPE   H5Y 1123   1.166   3.948   7.667  0.5473 -0.9734 -1.9080
    9DOPE   C36 1124   1.312   3.830   7.556  0.1098 -0.1050  0.1262
    9DOPE   H6X 1125   1.268   3.733   7.588  0.8283 -0.0892  1.2308
    9DOPE   H6Y 1126   1.420   3.802   7.553  0.3026  0.6871 -0.7347
    9DOPE   C37 1127   1.257   3.861   7.423  0.5359 -0.3941  0.1982
    9DOPE   H7X 1128   1.148   3.883   7.432  0.6559 -0.6643  3.6800
    9DOPE   H7Y 1129   1.307   3.955   7.394  0.3002 -0.8905 -1.9524
    9DOPE   C38 1130   1.291   3.758   7.321  0.1720 -0.1535  0.1323
    9DOPE   H8X 1131   1.241   3.663   7.348 -0.9273  0.3322 -0.1426
    9DOPE   H8Y 1132   1.402   3.752   7.331  0.2485 -0.1912 -0.6942
    9DOPE   C39 1133   1.252   3.794   7.179 -0.1934  0.3317  0.2321
    9DOPE   H9X 1134   1.143   3.805   7.169 -0.5202 -0.4333  2.4909
    9DOPE  C310 1135   1.329   3.785   7.067 -0.7609  0.4064 -0.3495
    9DOPE  H10X 1136   1.276   3.802   6.972  1.1948  0.7965 -1.4208
    9DOPE  C311 1137   1.473   3.752   7.055 -0.0180 -0.1224  0.1724
    9DOPE  H11X 1138   1.526   3.845   7.029 -1.4613  1.0445  1.2565
    9DOPE  H11Y 1139   1.520   3.703   7.143 -0.8553 -0.3725  0.4948
    9DOPE  C312 1140   1.510   3.663   6.927 -0.2034 -0.0190  0.3444
    9DOPE  H12X 1141   1.446   3.573   6.931  3.2647 -2.6306  2.1751
    9DOPE  H12Y 1142   1.610   3.616   6.935 -0.9244 -1.6612  0.0269
    9DOPE  C313 1143   1.490   3.735   6.789 -0.5038 -0.5197 -0.3276
    9DOPE  H13X 1144   1.398   3.797   6.783 -0.7261 -1.0000 -3.1942
    9DOPE  H13Y 1145   1.581   3.792   6.762  0.8741  0.2520  4.8299
    9DOPE  C314 1146   1.480   3.637   6.668  0.1651  0.3737 -0.9969
    9DOPE  H14X 1147   1.392   3.573   6.689  0.1514  1.4430  3.0656
    9DOPE  H14Y 1148   1.564   3.566   6.656  1.3914  1.8896 -1.8584
    9DOPE  C315 1149   1.460   3.720   6.541  0.0364  0.2393  0.7528
    9DOPE  H15X 1150   1.423   3.819   6.576  3.2606  1.3182  1.4472
    9DOPE  H15Y 1151   1.371   3.684   6.485  0.3133  1.8951 -0.8312
    9DOPE  C316 1152   1.579   3.712   6.447  0.2598 -0.4527 -0.6070
    9DOPE  H16X 1153   1.610   3.606   6.439  0.5742 -0.3143 -1.3644
    9DOPE  H16Y 1154   1.669   3.764   6.486 -1.6177  2.4365  0.1526
    9DOPE  C317 1155   1.542   3.772   6.312 -0.4618  0.0842 -0.0573
    9DOPE  H17X 1156   1.447   3.727   6.277  0.5972 -1.2080 -1.4453
    9DOPE  H17Y 1157   1.541   3.883   6.318 -0.7145  0.0223  1.4695
    9DOPE  C318 1158   1.642   3.724   6.201  0.3070 -0.5183  0.3528
    9DOPE  H18X 1159   1.615   3.776   6.106  0.9979 -0.0310  0.4139
    9DOPE  H18Y 1160   1.746   3.751   6.232  0.0127 -1.6099  2.4470
    9DOPE  H18Z 1161   1.627   3.615   6.183  0.5844 -0.4272 -0.4767
   10DOPE     N 1162   2.407   1.366   8.998 -0.3847 -0.2226  0.1277
   10DOPE   HN1 1163   2.384   1.448   8.938  2.3070  0.0840 -0.6306
   10DOPE   HN2 1164   2.317   1.316   9.007 -0.9703  0.0768 -2.8973
   10DOPE   HN3 1165   2.428   1.417   9.086  0.7832  1.4178 -1.0416
   10DOPE   C12 1166   2.504   1.265   8.937  0.0545  0.1577  0.4599
   10DOPE  H12A 1167   2.605   1.311   8.933  0.6060 -1.0440 -3.2230
   10DOPE  H12B 1168   2.479   1.253   8.830 -0.4014 -0.4971  0.6345
   10DOPE   C11 1169   2.513   1.132   9.017  0.2462  0.0548  0.2864
   10DOPE  H11A 1170   2.526   1.157   9.125 -4.3367 -0.2513  1.1277
   10DOPE  H11B 1171   2.601   1.074   8.981  0.1616  0.3853 -0.4762
   10DOPE     P 1172   2.392   0.909   9.028 -0.1422 -0.1247  0.1587
   10DOPE   O13 1173   2.252   0.865   9.062  0.0802 -0.4772  0.4302
   10DOPE   O14 1174   2.501   0.877   9.129 -0.4420 -0.6613  0.4457
   10DOPE   O11 1175   2.431   0.838   8.893 -0.0503  0.1675  0.6138
   10DOPE   O12 1176   2.391   1.060   8.990  0.1303 -0.3373 -0.1325
   10DOPE    C1 1177   2.354   0.859   8.773 -0.4735 -0.2442  0.2006
   10DOPE    HA 1178   2.253   0.902   8.791 -0.3658 -0.0381  0.3160
   10DOPE    HB 1179   2.340   0.760   8.724 -1.1910 -1.6819  3.0837
   10DOPE    C2 1180   2.438   0.931   8.672 -0.7905  0.0314  0.2904
   10DOPE    HS 1181   2.432   1.038   8.698 -1.9706  0.6385 -2.1829
   10DOPE   O21 1182   2.381   0.908   8.544 -0.3415  0.0791  0.2939
   10DOPE   C21 1183   2.409   1.004   8.452  0.5245  0.4886 -0.3075
   10DOPE   O22 1184   2.498   1.087   8.461  0.3219  0.2636 -0.1916
   10DOPE   C22 1185   2.308   0.991   8.336 -1.1087  0.0290 -0.3725
   10DOPE   H2R 1186   2.257   1.088   8.319 -0.7366  0.0852 -1.2229
   10DOPE   H2S 1187   2.226   0.923   8.368 -1.3453  1.0269  1.2529
   10DOPE    C3 1188   2.585   0.881   8.665 -0.4037 -0.5094  0.7959
   10DOPE    HX 1189   2.626   0.914   8.763 -0.1133  1.9368 -0.0844
   10DOPE    HY 1190   2.633   0.942   8.586 -1.8752 -0.4199 -0.0511
   10DOPE   O31 1191   2.605   0.738   8.658 -0.2531 -0.2799  0.9000
   10DOPE   C31 1192   2.616   0.695   8.533  0.3078 -0.2858 -1.5237
   10DOPE   O32 1193   2.615   0.766   8.432 -0.5034 -0.4001 -0.2722
   10DOPE   C32 1194   2.629   0.544   8.536  0.3604 -0.1182 -0.1418
   10DOPE   H2X 1195   2.698   0.513   8.617  1.6741  1.3767 -0.6303
   10DOPE   H2Y 1196   2.534   0.489   8.552  0.3264 -0.9463 -2.7478
   10DOPE   C23 1197   2.369   0.937   8.206  1.0792  0.6157  0.5667
   10DOPE   H3R 1198   2.393   0.829   8.224  1.1278  0.5098 -0.1155
   10DOPE   H3S 1199   2.464   0.989   8.182  1.0757 -0.0096 -0.9435
   10DOPE   C24 1200   2.272   0.952   8.087  0.9886 -0.9991  0.6392
   10DOPE   H4R 1201   2.285   1.057   8.052  1.3405 -1.3867 -0.4322
   10DOPE   H4S 1202   2.169   0.937   8.126  0.8469  0.9108  1.0861
   10DOPE   C25 1203   2.294   0.859   7.961  0.5274  0.5306 -0.1963
   10DOPE   H5R 1204   2.317   0.755   7.993 -0.1444  0.3117 -0.4205
   10DOPE   H5S 1205   2.379   0.899   7.901  0.2181  0.0765 -0.9581
   10DOPE   C26 1206   2.176   0.843   7.864 -0.0264  0.3142 -0.5798
   10DOPE   H6R 1207   2.155   0.945   7.825 -1.9394  1.0616  2.1443
   10DOPE   H6S 1208   2.088   0.811   7.923 -0.3135 -1.5113 -1.8937
   10DOPE   C27 1209   2.207   0.746   7.751 -0.5074 -0.1017  0.2042
   10DOPE   H7R 1210   2.190   0.642   7.787  0.6224 -0.3395  0.0980
   10DOPE   H7S 1211   2.309   0.753   7.707 -0.5788  0.2474  0.0914
   10DOPE   C28 1212   2.106   0.780   7.634  0.8586 -0.0109  0.1018
   10DOPE   H8R 1213   2.130   0.882   7.599 -2.3563  0.9750  0.4485
   10DOPE   H8S 1214   2.000   0.782   7.666  0.5579 -0.7264 -0.7893
   10DOPE   C29 1215   2.122   0.666   7.530 -0.1225 -0.1974 -0.1128
   10DOPE   H9R 1216   2.090   0.569   7.570 -1.5643  0.4597  0.4286
   10DOPE  C210 1217   2.187   0.670   7.408 -0.2828 -0.5069  0.4633
   10DOPE  H10R 1218   2.200   0.579   7.348 -0.9862  0.0828 -0.6118
   10DOPE  C211 1219   2.243   0.797   7.347 -0.4881 -0.2105  0.0535
   10DOPE  H11R 1220   2.352   0.798   7.367 -0.3325  0.5646 -0.7651
   10DOPE  H11S 1221   2.204   0.889   7.396 -3.3191 -0.4371 -1.5216
   10DOPE  C212 1222   2.213   0.804   7.190 -0.0017  0.3858 -0.2948
   10DOPE  H12R 1223   2.238   0.710   7.137 -0.1657  1.2485 -1.9739
   10DOPE  H12S 1224   2.271   0.887   7.146 -0.4628  0.9015  0.0542
   10DOPE  C213 1225   2.059   0.811   7.157 -0.4233  0.2346  0.2267
   10DOPE  H13R 1226   2.016   0.904   7.201 -1.5875 -0.4522  0.5725
   10DOPE  H13S 1227   2.009   0.723   7.204 -1.1609  0.2440 -0.5294
   10DOPE  C214 1228   2.018   0.834   7.009 -0.5359 -0.0247  0.0656
   10DOPE  H14R 1229   2.076   0.920   6.969  1.7674 -0.7863  1.5578
   10DOPE  H14S 1230   1.912   0.868   7.013 -0.9217 -1.1883  0.0721
   10DOPE  C215 1231   2.014   0.710   6.909 -0.1274 -0.0580 -0.0617
   10DOPE  H15R 1232   1.916   0.656   6.914 -0.4172  0.4186 -0.5473
   10DOPE  H15S 1233   2.090   0.634   6.936  0.4407  0.6266  0.3099
   10DOPE  C216 1234   2.023   0.760   6.759 -0.1120 -0.1110 -0.4667
   10DOPE  H16R 1235   1.937   0.829   6.744 -1.9524 -2.3425 -0.8924
   10DOPE  H16S 1236   1.980   0.678   6.697 -2.9949 -0.4935  1.8540
   10DOPE  C217 1237   2.154   0.825   6.721 -0.0849  0.5029  0.1250
   10DOPE  H17R 1238   2.143   0.929   6.760  3.1637  0.3148  1.8122
   10DOPE  H17S 1239   2.165   0.830   6.610  1.1141 -2.7727  0.0042
   10DOPE  C218 1240   2.280   0.762   6.775  0.4703 -0.0282  0.8231
   10DOPE  H18R 1241   2.301   0.665   6.726  0.6478 -0.0953  1.0284
   10DOPE  H18S 1242   2.276   0.730   6.882  0.7188 -1.0451  0.5318
   10DOPE  H18T 1243   2.370   0.827   6.768  0.5682 -0.1366  1.0526
   10DOPE   C33 1244   2.711   0.500   8.411 -0.0267 -0.7421 -0.5703
   10DOPE   H3X 1245   2.768   0.408   8.437  1.3730 -0.2891 -1.8940
   10DOPE   H3Y 1246   2.786   0.579   8.391 -0.4394 -0.0881  0.4186
   10DOPE   C34 1247   2.623   0.481   8.288  0.3070 -0.0918  0.0148
   10DOPE   H4X 1248   2.524   0.451   8.328 -0.1501  0.3606 -0.7371
   10DOPE   H4Y 1249   2.601   0.578   8.238  2.1287 -0.7197 -2.1831
   10DOPE   C35 1250   2.673   0.376   8.195 -0.2704 -0.1329  0.9684
   10DOPE   H5X 1251   2.683   0.282   8.253  0.7278  1.4190  3.4838
   10DOPE   H5Y 1252   2.775   0.406   8.161 -0.1927  1.2343  2.3172
   10DOPE   C36 1253   2.580   0.351   8.077  0.0198  0.2245  0.2786
   10DOPE   H6X 1254   2.484   0.316   8.121  0.5264  0.5022  1.6853
   10DOPE   H6Y 1255   2.627   0.265   8.025  2.6196  0.1079  2.5694
   10DOPE   C37 1256   2.554   0.466   7.976 -0.1148  0.2743 -0.1485
   10DOPE   H7X 1257   2.446   0.482   7.958 -0.2638 -1.4580 -1.0275
   10DOPE   H7Y 1258   2.589   0.563   8.019 -0.7837 -0.0104  1.0837
   10DOPE   C38 1259   2.620   0.448   7.835  0.5598 -0.0375  0.5279
   10DOPE   H8X 1260   2.604   0.341   7.808  0.3341 -0.4739  2.2708
   10DOPE   H8Y 1261   2.727   0.456   7.865  0.3096  0.0172  1.4311
   10DOPE   C39 1262   2.580   0.551   7.734 -0.2838  0.0599 -0.3519
   10DOPE   H9X 1263   2.569   0.650   7.780  0.2306 -0.5896  1.2296
   10DOPE  C310 1264   2.526   0.539   7.609  0.1387 -0.0026  0.4128
   10DOPE  H10X 1265   2.495   0.633   7.560  1.4413 -1.3641 -3.4120
   10DOPE  C311 1266   2.513   0.417   7.517  0.5229  0.1619 -0.2158
   10DOPE  H11X 1267   2.528   0.449   7.412  0.8044  1.0196  0.0784
   10DOPE  H11Y 1268   2.584   0.339   7.551 -1.3846 -1.7666 -0.4688
   10DOPE  C312 1269   2.369   0.354   7.522  0.5161 -0.1518 -0.4405
   10DOPE  H12X 1270   2.293   0.435   7.515 -0.2728 -0.8558 -0.2285
   10DOPE  H12Y 1271   2.347   0.299   7.616 -3.3677  0.3517 -0.8956
   10DOPE  C313 1272   2.326   0.260   7.404 -0.6381 -0.1914 -0.9262
   10DOPE  H13X 1273   2.363   0.302   7.308  1.2908 -2.1560 -1.1135
   10DOPE  H13Y 1274   2.383   0.167   7.426  1.7958  1.4048 -0.0284
   10DOPE  C314 1275   2.174   0.226   7.400 -0.2905  0.5173  0.4862
   10DOPE  H14X 1276   2.128   0.326   7.388 -0.5064  0.4327  0.6081
   10DOPE  H14Y 1277   2.147   0.176   7.496 -0.6991 -1.5610 -0.6633
   10DOPE  C315 1278   2.138   0.136   7.287 -0.3594 -0.1928 -0.1400
   10DOPE  H15X 1279   2.207   0.051   7.269 -0.4266 -0.1133 -0.8124
   10DOPE  H15Y 1280   2.128   0.195   7.193  0.2527  0.3403  0.1197
   10DOPE  C316 1281   2.003   0.063   7.315 -0.4830 -0.3012 -0.0956
   10DOPE  H16X 1282   1.952   0.148   7.366 -0.4977 -0.3213 -0.0770
   10DOPE  H16Y 1283   2.027  -0.019   7.385  2.0353 -0.4697 -1.0549
   10DOPE  C317 1284   1.931   0.032   7.187  0.0443  0.1718 -0.0451
   10DOPE  H17X 1285   1.830  -0.005   7.218  0.0305 -0.9487 -1.3213
   10DOPE  H17Y 1286   1.910   0.125   7.131  1.1703 -0.0547 -0.8787
   10DOPE  C318 1287   1.995  -0.070   7.086 -0.5454  0.1856 -0.2907
   10DOPE  H18X 1288   2.009  -0.170   7.134  0.9685 -0.5725 -2.1728
   10DOPE  H18Y 1289   1.925  -0.080   7.001  0.4041 -0.7485 -0.9990
   10DOPE  H18Z 1290   2.099  -0.044   7.056 -0.0538 -0.7478  0.5153
   11DOPE     N 1291   0.577   3.222   8.885 -0.3772  0.1845  0.3037
   11DOPE   HN1 1292   0.646   3.222   8.963 -0.4415  0.2654  0.3611
   11DOPE   HN2 1293   0.499   3.291   8.893  1.4099  2.6957 -1.9197
   11DOPE   HN3 1294   0.539   3.128   8.865 -1.6399  0.2757  1.9869
   11DOPE   C12 1295   0.657   3.265   8.760  0.2040  0.6481 -0.2956
   11DOPE  H12A 1296   0.727   3.181   8.741 -1.9977 -1.7659  1.4146
   11DOPE  H12B 1297   0.705   3.361   8.787 -0.5716  0.7246  0.9123
   11DOPE   C11 1298   0.571   3.298   8.641  0.6373  0.1361  0.3657
   11DOPE  H11A 1299   0.636   3.340   8.562  2.1608 -1.0110  0.9584
   11DOPE  H11B 1300   0.487   3.368   8.661 -0.4329 -1.6889  2.9047
   11DOPE     P 1301   0.586   3.073   8.514 -0.3975 -0.0055 -0.0068
   11DOPE   O13 1302   0.491   2.977   8.464  0.3120  0.4310 -0.0522
   11DOPE   O14 1303   0.691   3.012   8.602  0.0056 -0.2074  0.6431
   11DOPE   O11 1304   0.654   3.153   8.390  0.1949 -0.1975 -0.1629
   11DOPE   O12 1305   0.510   3.182   8.597 -0.0225  0.0520 -0.6018
   11DOPE    C1 1306   0.575   3.232   8.303  0.5311 -0.4910  0.0169
   11DOPE    HA 1307   0.620   3.332   8.286 -1.8258  0.5374 -0.5994
   11DOPE    HB 1308   0.475   3.254   8.346  0.0425 -2.3063 -0.0909
   11DOPE    C2 1309   0.559   3.166   8.165 -0.1632  0.6845 -0.1335
   11DOPE    HS 1310   0.548   3.058   8.190 -0.6570  0.5668 -0.8589
   11DOPE   O21 1311   0.677   3.183   8.091 -0.0615 -0.3050  0.5194
   11DOPE   C21 1312   0.705   3.094   7.998 -0.4304 -0.8341 -0.1561
   11DOPE   O22 1313   0.642   2.993   7.972  0.0669  0.4904  0.4782
   11DOPE   C22 1314   0.813   3.157   7.911  0.5494  0.5625  0.0244
   11DOPE   H2R 1315   0.834   3.078   7.837  1.1999 -0.9680  1.7812
   11DOPE   H2S 1316   0.908   3.160   7.968  0.6404  4.2203 -0.0615
   11DOPE    C3 1317   0.437   3.210   8.088 -0.0369 -0.2600 -0.0198
   11DOPE    HX 1318   0.460   3.312   8.051  2.6646 -1.2100 -1.2287
   11DOPE    HY 1319   0.349   3.216   8.155  0.3487 -0.1584  0.4875
   11DOPE   O31 1320   0.415   3.129   7.970  0.6178  0.0046  0.2993
   11DOPE   C31 1321   0.347   3.020   7.986 -0.9075  0.4170  0.6557
   11DOPE   O32 1322   0.311   2.972   8.092  0.5145  0.1293 -0.1033
   11DOPE   C32 1323   0.329   2.948   7.849 -0.6803 -0.0344  0.0389
   11DOPE   H2X 1324   0.425   2.904   7.817 -1.1544 -0.3980 -0.9393
   11DOPE   H2Y 1325   0.251   2.869   7.855 -0.6181 -0.0929  0.0685
   11DOPE   C23 1326   0.769   3.285   7.846  0.5797 -0.3000  1.0126
   11DOPE   H3R 1327   0.848   3.329   7.782 -1.2339  2.0113  0.2540
   11DOPE   H3S 1328   0.775   3.353   7.934  2.0370  1.0654 -0.0943
   11DOPE   C24 1329   0.635   3.292   7.759  0.1697  0.0988  0.1259
   11DOPE   H4R 1330   0.547   3.277   7.825 -0.4434  1.6816 -0.3018
   11DOPE   H4S 1331   0.627   3.214   7.681 -1.8707 -0.3150  0.6962
   11DOPE   C25 1332   0.613   3.425   7.685 -0.0628 -0.1806  0.6708
   11DOPE   H5R 1333   0.664   3.503   7.746  0.1501  0.7135 -0.6033
   11DOPE   H5S 1334   0.506   3.457   7.689 -0.3413 -0.4325 -2.3691
   11DOPE   C26 1335   0.653   3.420   7.540  0.1539 -0.4585  0.4879
   11DOPE   H6R 1336   0.762   3.402   7.528 -0.3086 -1.2719 -4.1782
   11DOPE   H6S 1337   0.631   3.516   7.488  0.2035 -0.5002  0.3911
   11DOPE   C27 1338   0.575   3.322   7.446  0.1200 -0.3034 -0.7304
   11DOPE   H7R 1339   0.465   3.337   7.455  0.3334  0.0429  4.4316
   11DOPE   H7S 1340   0.600   3.217   7.470  1.2992 -0.3558 -2.0414
   11DOPE   C28 1341   0.610   3.344   7.300 -0.4650 -0.2970 -0.1391
   11DOPE   H8R 1342   0.719   3.330   7.285  0.1887  0.6861  3.0465
   11DOPE   H8S 1343   0.589   3.451   7.276 -0.4652  0.6901  3.5963
   11DOPE   C29 1344   0.539   3.247   7.213  0.0882 -0.4863  0.3783
   11DOPE   H9R 1345   0.520   3.148   7.256 -2.8043 -1.0154 -1.8153
   11DOPE  C210 1346   0.488   3.268   7.089  0.1588 -0.6874 -0.2388
   11DOPE  H10R 1347   0.448   3.179   7.039  0.4758 -0.4147 -0.9869
   11DOPE  C211 1348   0.476   3.396   7.017  0.3273  0.0149  0.0214
   11DOPE  H11R 1349   0.507   3.482   7.081  1.2168 -0.4829  0.2779
   11DOPE  H11S 1350   0.369   3.415   6.994  0.9900  0.9096 -2.6407
   11DOPE  C212 1351   0.548   3.393   6.887  0.2153 -0.0044 -1.1510
   11DOPE  H12R 1352   0.655   3.362   6.882  0.8416  1.6160  0.7643
   11DOPE  H12S 1353   0.557   3.500   6.858  0.2649  0.5180  0.6720
   11DOPE  C213 1354   0.475   3.317   6.782 -0.5335  0.3974 -0.3103
   11DOPE  H13R 1355   0.370   3.354   6.779 -1.0173 -0.2499  3.2839
   11DOPE  H13S 1356   0.449   3.213   6.812 -0.7814  0.7699  0.8371
   11DOPE  C214 1357   0.548   3.316   6.647  0.1436  0.0882  0.3871
   11DOPE  H14R 1358   0.624   3.236   6.652 -1.9658 -2.0544 -0.0207
   11DOPE  H14S 1359   0.597   3.412   6.617 -2.2454  0.5814 -2.5363
   11DOPE  C215 1360   0.463   3.274   6.520 -0.3141  0.4395 -0.3315
   11DOPE  H15R 1361   0.362   3.319   6.525 -0.1509  0.9109 -1.1410
   11DOPE  H15S 1362   0.459   3.164   6.506  0.2657  0.5376 -1.3371
   11DOPE  C216 1363   0.545   3.312   6.392  0.1719  0.5677 -0.5497
   11DOPE  H16R 1364   0.650   3.275   6.391 -0.0804 -0.2177  0.3258
   11DOPE  H16S 1365   0.553   3.421   6.410 -0.3444  0.7733 -1.5342
   11DOPE  C217 1366   0.466   3.292   6.268 -0.3153 -0.3797  0.2445
   11DOPE  H17R 1367   0.367   3.339   6.286 -1.1099 -1.9929  0.2535
   11DOPE  H17S 1368   0.461   3.181   6.261 -0.1521 -0.3829  0.1720
   11DOPE  C218 1369   0.521   3.348   6.132 -0.0898  0.2553 -0.0600
   11DOPE  H18R 1370   0.473   3.317   6.037 -1.2039 -0.6574  0.7782
   11DOPE  H18S 1371   0.622   3.303   6.125 -0.4746 -0.4066 -1.6456
   11DOPE  H18T 1372   0.534   3.457   6.115  1.0189  0.2629  0.6791
   11DOPE   C33 1373   0.270   3.038   7.743  0.9757  0.3665  0.5516
   11DOPE   H3X 1374   0.336   3.127   7.736  2.1111 -0.5683 -2.0637
   11DOPE   H3Y 1375   0.164   3.064   7.765  1.2265  1.0405  0.9681
   11DOPE   C34 1376   0.275   2.975   7.599  0.6722 -0.0803  0.2699
   11DOPE   H4X 1377   0.377   2.933   7.584  0.6145 -0.3896  0.7442
   11DOPE   H4Y 1378   0.206   2.889   7.591 -0.2612  0.7851 -1.5536
   11DOPE   C35 1379   0.234   3.080   7.495 -0.1948  0.4109 -0.3899
   11DOPE   H5X 1380   0.295   3.169   7.521 -0.7850  1.4639 -2.3696
   11DOPE   H5Y 1381   0.130   3.116   7.510  0.5252  2.4048  0.1706
   11DOPE   C36 1382   0.267   3.045   7.340  0.7344  0.1705 -0.7854
   11DOPE   H6X 1383   0.370   3.003   7.348  0.2616 -0.7598  1.1199
   11DOPE   H6Y 1384   0.266   3.132   7.271  1.3281 -2.0376 -3.7884
   11DOPE   C37 1385   0.184   2.928   7.279  0.5528 -0.6903  0.4568
   11DOPE   H7X 1386   0.176   2.854   7.362  0.4042  0.7687  1.7831
   11DOPE   H7Y 1387   0.084   2.973   7.261  1.7895  1.8169 -0.6165
   11DOPE   C38 1388   0.247   2.860   7.154 -0.0890  0.1772  0.2387
   11DOPE   H8X 1389   0.189   2.768   7.133  1.4797 -1.2012  1.5921
   11DOPE   H8Y 1390   0.351   2.839   7.188 -0.0946  1.1411  0.8942
   11DOPE   C39 1391   0.247   2.964   7.044  0.4488  0.2153 -0.1434
   11DOPE   H9X 1392   0.212   3.063   7.077  0.3974 -0.3651  1.6748
   11DOPE  C310 1393   0.270   2.942   6.905  0.1491  0.2182 -0.0286
   11DOPE  H10X 1394   0.265   3.027   6.836  0.0511  0.2869  0.0610
   11DOPE  C311 1395   0.303   2.812   6.838  0.9564 -0.2855 -0.2286
   11DOPE  H11X 1396   0.392   2.830   6.774  1.5578 -1.6779  0.1807
   11DOPE  H11Y 1397   0.335   2.739   6.915  1.9358 -0.3824 -0.7088
   11DOPE  C312 1398   0.200   2.744   6.747  0.2224  0.3524  0.1424
   11DOPE  H12X 1399   0.104   2.741   6.803  0.0722 -2.1616 -0.1162
   11DOPE  H12Y 1400   0.241   2.643   6.724  0.4532  0.8374 -1.7385
   11DOPE  C313 1401   0.175   2.801   6.606  0.7112  0.0674 -0.8362
   11DOPE  H13X 1402   0.110   2.730   6.551  0.0684  0.1500 -0.2119
   11DOPE  H13Y 1403   0.099   2.881   6.622 -0.9346 -1.5156 -0.3570
   11DOPE  C314 1404   0.295   2.850   6.522 -0.1423 -0.0665  0.6831
   11DOPE  H14X 1405   0.368   2.767   6.511  0.6345  0.7447 -0.6549
   11DOPE  H14Y 1406   0.342   2.933   6.578 -0.6123 -0.0661  1.0844
   11DOPE  C315 1407   0.257   2.888   6.374  0.1818 -0.0374 -0.1685
   11DOPE  H15X 1408   0.219   2.805   6.312 -1.6848 -0.4344  1.4076
   11DOPE  H15Y 1409   0.351   2.924   6.327  0.8988 -0.6443  0.7624
   11DOPE  C316 1410   0.166   3.010   6.363  0.4682 -0.0776  0.4484
   11DOPE  H16X 1411   0.203   3.063   6.272 -3.3111  1.4984 -0.3440
   11DOPE  H16Y 1412   0.189   3.084   6.442 -2.3107  2.1085 -0.6357
   11DOPE  C317 1413   0.018   2.975   6.346 -0.6668  0.3512 -0.4691
   11DOPE  H17X 1414  -0.004   2.925   6.249 -3.5152  0.6401 -0.0757
   11DOPE  H17Y 1415   0.002   2.890   6.416  2.7759 -0.1176 -0.0963
   11DOPE  C318 1416  -0.075   3.089   6.377 -0.0976  0.6367  0.2461
   11DOPE  H18X 1417  -0.051   3.182   6.322 -0.4880 -0.6223 -2.2234
   11DOPE  H18Y 1418  -0.181   3.064   6.358 -0.2091  1.1488  0.1848
   11DOPE  H18Z 1419  -0.061   3.111   6.485  0.0641  0.1533  0.3267
   12DOPE     N 1420   3.721   1.523   8.629 -0.5701  0.4717 -0.0240
   12DOPE   HN1 1421   3.813   1.505   8.585 -2.0097 -0.5277 -2.9261
   12DOPE   HN2 1422   3.653   1.560   8.560 -1.8784 -1.8675 -0.0744
   12DOPE   HN3 1423   3.728   1.594   8.705 -1.3200  0.3199  0.1934
   12DOPE   C12 1424   3.660   1.395   8.683  0.5856  0.3244  0.1141
   12DOPE  H12A 1425   3.731   1.351   8.756  2.5443  1.9391 -0.7245
   12DOPE  H12B 1426   3.654   1.332   8.591 -0.2166  2.3358 -1.2855
   12DOPE   C11 1427   3.530   1.429   8.756  0.1719 -0.5600 -0.1746
   12DOPE  H11A 1428   3.544   1.514   8.826 -1.6536 -2.6232  2.9362
   12DOPE  H11B 1429   3.490   1.347   8.819  0.4605 -1.2765 -0.9000
   12DOPE     P 1430   3.281   1.510   8.701 -0.2328 -0.4180 -0.1616
   12DOPE   O13 1431   3.289   1.649   8.759  0.6285  0.4639 -0.2098
   12DOPE   O14 1432   3.213   1.414   8.789  0.3894  0.3177  0.2911
   12DOPE   O11 1433   3.206   1.528   8.560  0.0129  0.1924  0.0347
   12DOPE   O12 1434   3.424   1.455   8.664 -0.1794 -0.1855 -0.2795
   12DOPE    C1 1435   3.269   1.610   8.466 -0.3695  0.9631 -0.2106
   12DOPE    HA 1436   3.376   1.624   8.489 -0.0174 -0.6480 -0.7023
   12DOPE    HB 1437   3.211   1.704   8.453 -1.3131  0.6405  1.3362
   12DOPE    C2 1438   3.273   1.529   8.335  0.4378  0.4894  0.1865
   12DOPE    HS 1439   3.360   1.570   8.279  1.1739  0.6733  1.4359
   12DOPE   O21 1440   3.147   1.537   8.271  0.2580 -0.4724  0.1871
   12DOPE   C21 1441   3.136   1.546   8.133  0.0510  1.0568 -0.6057
   12DOPE   O22 1442   3.234   1.546   8.065  0.4103  0.3581 -0.3354
   12DOPE   C22 1443   2.981   1.561   8.106 -0.5768  0.1917 -0.4075
   12DOPE   H2R 1444   2.958   1.670   8.115 -3.1200 -0.3840  0.9834
   12DOPE   H2S 1445   2.924   1.499   8.178  0.1892  0.6083  0.5834
   12DOPE    C3 1446   3.320   1.378   8.362 -0.1350  1.0324 -0.2446
   12DOPE    HX 1447   3.235   1.332   8.418  0.2899  0.3503 -0.1442
   12DOPE    HY 1448   3.407   1.374   8.430  0.5100 -0.4611 -1.1004
   12DOPE   O31 1449   3.364   1.311   8.243  0.1321 -0.2629  0.8664
   12DOPE   C31 1450   3.271   1.232   8.190 -0.1134 -0.2116  0.4618
   12DOPE   O32 1451   3.158   1.207   8.229  0.0141 -0.2828  0.4381
   12DOPE   C32 1452   3.324   1.183   8.050 -0.2968  0.4090 -0.4236
   12DOPE   H2X 1453   3.301   1.262   7.975 -2.4833  0.7727  0.5392
   12DOPE   H2Y 1454   3.432   1.171   8.071 -0.8438 -0.6052  2.1497
   12DOPE   C23 1455   2.951   1.511   7.961 -0.7197 -0.4464 -0.1377
   12DOPE   H3R 1456   3.029   1.564   7.902  0.1026 -0.2881  1.0579
   12DOPE   H3S 1457   2.851   1.549   7.931 -0.0494 -0.6298 -2.9293
   12DOPE   C24 1458   2.958   1.357   7.934  0.3382 -0.0651 -0.3581
   12DOPE   H4R 1459   2.853   1.321   7.942  0.1538  0.7313  1.3059
   12DOPE   H4S 1460   3.013   1.300   8.011  0.2815  0.0996 -0.1956
   12DOPE   C25 1461   3.015   1.328   7.795  0.5132  0.1447  1.4728
   12DOPE   H5R 1462   3.075   1.236   7.802 -0.3850 -0.9160 -2.4615
   12DOPE   H5S 1463   3.090   1.399   7.752 -1.5436  1.5623  0.0045
   12DOPE   C26 1464   2.909   1.308   7.683  0.2695 -0.2767 -1.0934
   12DOPE   H6R 1465   2.813   1.362   7.700  0.1359 -0.3302 -1.6549
   12DOPE   H6S 1466   2.879   1.202   7.671  0.4022 -0.5067  0.4074
   12DOPE   C27 1467   2.965   1.345   7.553 -0.1376 -0.1272  0.3046
   12DOPE   H7R 1468   3.058   1.286   7.540  0.3798  0.3723  1.6741
   12DOPE   H7S 1469   2.998   1.451   7.544  0.8745 -0.2849  1.7943
   12DOPE   C28 1470   2.876   1.321   7.431  0.0752 -0.3309  0.2196
   12DOPE   H8R 1471   2.784   1.383   7.441 -0.9465 -1.7403 -0.1807
   12DOPE   H8S 1472   2.835   1.218   7.432 -0.7181 -0.0297 -0.0078
   12DOPE   C29 1473   2.938   1.364   7.299  0.7934  0.8974 -0.7519
   12DOPE   H9R 1474   2.990   1.459   7.316  0.2631  0.5706  3.9256
   12DOPE  C210 1475   2.928   1.302   7.177 -0.0461  0.2056  0.3139
   12DOPE  H10R 1476   2.972   1.344   7.085  1.4120 -2.1268 -0.1348
   12DOPE  C211 1477   2.857   1.173   7.154  0.2319  0.2347  0.2934
   12DOPE  H11R 1478   2.821   1.126   7.248 -1.1878 -1.3501 -0.9793
   12DOPE  H11S 1479   2.928   1.099   7.111  1.1687  0.4873  1.3595
   12DOPE  C212 1480   2.734   1.177   7.061 -0.1340 -0.2523  0.0244
   12DOPE  H12R 1481   2.667   1.256   7.102  1.9553  0.7189  1.7737
   12DOPE  H12S 1482   2.700   1.072   7.056  2.2511 -1.3703  3.4487
   12DOPE  C213 1483   2.765   1.194   6.909  0.1349 -0.1099 -0.6263
   12DOPE  H13R 1484   2.862   1.142   6.890  0.3473  1.1691 -3.6258
   12DOPE  H13S 1485   2.779   1.303   6.890  0.6200  0.5881  3.0219
   12DOPE  C214 1486   2.655   1.149   6.822  0.4723 -0.0142  0.0155
   12DOPE  H14R 1487   2.568   1.215   6.845 -1.6573 -2.4622 -0.5681
   12DOPE  H14S 1488   2.615   1.048   6.845 -0.4483  0.2176 -0.5181
   12DOPE  C215 1489   2.687   1.156   6.670  0.2844 -0.9664  0.6526
   12DOPE  H15R 1490   2.750   1.071   6.637  0.7586 -0.2145 -0.4541
   12DOPE  H15S 1491   2.738   1.253   6.654 -0.9806 -0.5902 -1.4053
   12DOPE  C216 1492   2.557   1.157   6.586 -0.4748 -0.0486  0.7895
   12DOPE  H16R 1493   2.490   1.245   6.582 -0.2518  0.1891  1.9911
   12DOPE  H16S 1494   2.492   1.079   6.631 -0.0792 -1.7079 -1.3346
   12DOPE  C217 1495   2.568   1.094   6.447  0.3060 -1.0327  0.0440
   12DOPE  H17R 1496   2.464   1.083   6.410  0.2281  1.3493 -0.5780
   12DOPE  H17S 1497   2.629   1.002   6.444  0.4981 -0.8883 -1.6424
   12DOPE  C218 1498   2.651   1.177   6.346  0.2862  0.5089 -0.6828
   12DOPE  H18R 1499   2.655   1.121   6.250 -1.1370 -1.2485  0.2150
   12DOPE  H18S 1500   2.758   1.176   6.376 -0.2857 -1.5516  1.6109
   12DOPE  H18T 1501   2.607   1.279   6.335  0.0531  0.2951 -1.8503
   12DOPE   C33 1502   3.265   1.049   7.998 -0.2090  0.2602 -0.5351
   12DOPE   H3X 1503   3.157   1.063   7.976 -0.5142  0.2900  0.8804
   12DOPE   H3Y 1504   3.278   0.971   8.076 -2.3030  0.5668  0.1812
   12DOPE   C34 1505   3.347   0.996   7.885 -0.0678  0.4563  0.1551
   12DOPE   H4X 1506   3.379   1.083   7.824  0.9649  0.9361  1.3561
   12DOPE   H4Y 1507   3.441   0.954   7.926  1.1210  1.9824 -0.9353
   12DOPE   C35 1508   3.273   0.909   7.784 -0.9289  0.4546 -0.4831
   12DOPE   H5X 1509   3.182   0.964   7.751 -1.0082 -0.5497 -2.0437
   12DOPE   H5Y 1510   3.237   0.814   7.830 -0.6792 -0.4529 -2.0998
   12DOPE   C36 1511   3.366   0.865   7.667 -0.4460 -0.1712  0.0774
   12DOPE   H6X 1512   3.339   0.761   7.638 -0.2631  0.0671 -0.9682
   12DOPE   H6Y 1513   3.474   0.865   7.693 -0.0247 -1.3351 -1.5132
   12DOPE   C37 1514   3.337   0.970   7.558  0.5347 -0.6877 -0.2054
   12DOPE   H7X 1515   3.226   0.969   7.551  0.5754 -2.3908 -0.9549
   12DOPE   H7Y 1516   3.370   1.071   7.592 -0.2908 -1.3471  2.9078
   12DOPE   C38 1517   3.403   0.941   7.418 -0.6562 -0.0289 -0.3116
   12DOPE   H8X 1518   3.502   0.894   7.440 -1.3649 -0.8570  1.3014
   12DOPE   H8Y 1519   3.415   1.041   7.371 -0.9113 -0.7568 -2.0041
   12DOPE   C39 1520   3.336   0.834   7.330  0.1465  0.4859 -0.0122
   12DOPE   H9X 1521   3.358   0.728   7.352 -0.8610 -0.0594 -1.4488
   12DOPE  C310 1522   3.246   0.862   7.230 -0.2155  0.0317 -0.3076
   12DOPE  H10X 1523   3.191   0.785   7.174  1.3068 -0.7487 -0.7740
   12DOPE  C311 1524   3.206   1.003   7.198 -0.3264 -0.0208  0.0440
   12DOPE  H11X 1525   3.120   1.037   7.260  0.5988  0.5012  1.0755
   12DOPE  H11Y 1526   3.285   1.080   7.214  0.4136 -0.8233  0.3718
   12DOPE  C312 1527   3.153   1.015   7.048  0.1737  0.2423  0.2973
   12DOPE  H12X 1528   3.142   1.125   7.034  1.6618  0.5947  1.6004
   12DOPE  H12Y 1529   3.055   0.964   7.034  0.0752  0.8762 -1.5599
   12DOPE  C313 1530   3.241   0.956   6.937 -0.2112  0.4436 -0.0317
   12DOPE  H13X 1531   3.234   0.845   6.944  1.7236  0.1811 -1.5403
   12DOPE  H13Y 1532   3.202   0.978   6.836  0.7298  2.7886  0.0675
   12DOPE  C314 1533   3.379   1.011   6.949  0.8994  1.2358 -0.3594
   12DOPE  H14X 1534   3.420   0.952   7.034 -0.6589 -0.9706 -1.0559
   12DOPE  H14Y 1535   3.372   1.122   6.956  0.2733  1.1690  0.1082
   12DOPE  C315 1536   3.457   0.992   6.819  0.3984 -0.3777 -1.1894
   12DOPE  H15X 1537   3.563   1.024   6.829  0.8933 -0.6023 -4.4495
   12DOPE  H15Y 1538   3.410   1.057   6.742  0.0814 -0.5353 -1.1311
   12DOPE  C316 1539   3.450   0.851   6.778 -0.0455  0.5587  0.0183
   12DOPE  H16X 1540   3.346   0.824   6.750 -0.6556  2.2917  0.5299
   12DOPE  H16Y 1541   3.488   0.782   6.857 -1.0421  0.5338  0.5011
   12DOPE  C317 1542   3.533   0.821   6.656 -1.0146  0.8030  0.4381
   12DOPE  H17X 1543   3.525   0.887   6.567  4.1352  1.4092  0.1456
   12DOPE  H17Y 1544   3.634   0.843   6.697 -0.3388 -1.5752  0.2015
   12DOPE  C318 1545   3.526   0.678   6.613 -0.4685  0.3519  0.1306
   12DOPE  H18X 1546   3.610   0.642   6.550 -0.7335 -2.2673  1.1827
   12DOPE  H18Y 1547   3.527   0.614   6.704  1.0393  1.9047  1.2768
   12DOPE  H18Z 1548   3.427   0.668   6.564 -1.6923  4.3653  1.3969
   13DOPE     N 1549   2.274   3.535   9.232 -0.5039  0.3952 -0.2854
   13DOPE   HN1 1550   2.316   3.517   9.325  0.9857 -0.0535 -1.0102
   13DOPE   HN2 1551   2.297   3.630   9.195  2.1880 -0.0275  0.0572
   13DOPE   HN3 1552   2.173   3.514   9.225 -0.1132 -1.4812 -0.6082
   13DOPE   C12 1553   2.340   3.441   9.143 -0.6825 -0.3490 -0.2678
   13DOPE  H12A 1554   2.316   3.336   9.172  0.4942 -0.9235 -1.2500
   13DOPE  H12B 1555   2.451   3.448   9.142 -0.6634 -0.0988  1.4146
   13DOPE   C11 1556   2.296   3.456   8.996 -0.3307  0.1044  0.0716
   13DOPE  H11A 1557   2.187   3.445   8.975 -0.5081  1.8623 -0.1631
   13DOPE  H11B 1558   2.357   3.390   8.932  1.6586 -0.4097  2.3835
   13DOPE     P 1559   2.265   3.666   8.839 -0.0278 -0.0388 -0.1746
   13DOPE   O13 1560   2.359   3.760   8.777 -0.0973  0.1475  0.4876
   13DOPE   O14 1561   2.141   3.719   8.892 -0.1280 -0.4249 -0.1699
   13DOPE   O11 1562   2.225   3.557   8.731  0.2941 -0.1006 -0.2012
   13DOPE   O12 1563   2.340   3.588   8.950 -0.3191 -0.0062 -0.0774
   13DOPE    C1 1564   2.313   3.531   8.615 -0.1280 -0.1748  0.1722
   13DOPE    HA 1565   2.283   3.430   8.578 -0.7409 -0.5502  1.6140
   13DOPE    HB 1566   2.422   3.529   8.639  0.0782  0.4054 -0.6950
   13DOPE    C2 1567   2.303   3.627   8.500  0.8004 -0.6686  0.3237
   13DOPE    HS 1568   2.346   3.728   8.520  0.7138 -0.2553 -1.4112
   13DOPE   O21 1569   2.164   3.641   8.456  0.5626 -0.3958  0.7625
   13DOPE   C21 1570   2.133   3.761   8.418  0.2490  0.8814 -0.0906
   13DOPE   O22 1571   2.200   3.860   8.418 -0.9521 -0.6238 -0.4459
   13DOPE   C22 1572   1.990   3.748   8.377 -0.0606  0.1728  0.0328
   13DOPE   H2R 1573   1.937   3.744   8.474  0.6561  4.1378  0.7474
   13DOPE   H2S 1574   1.983   3.651   8.323 -1.6067 -0.4836  1.3475
   13DOPE    C3 1575   2.392   3.565   8.382  0.3105 -0.2643  0.6892
   13DOPE    HX 1576   2.342   3.471   8.348 -0.8995  0.8668 -0.8326
   13DOPE    HY 1577   2.493   3.536   8.416  0.3587  0.5628  1.2824
   13DOPE   O31 1578   2.402   3.648   8.264  0.7825 -0.3481 -0.2501
   13DOPE   C31 1579   2.513   3.727   8.259  0.6675  0.3876 -0.2806
   13DOPE   O32 1580   2.612   3.715   8.330 -0.0629  0.0479 -0.6535
   13DOPE   C32 1581   2.499   3.824   8.146  0.8305 -0.1942  0.0843
   13DOPE   H2X 1582   2.492   3.927   8.188  1.8642 -0.1251  0.1094
   13DOPE   H2Y 1583   2.592   3.808   8.088  0.4192  0.3089 -0.7316
   13DOPE   C23 1584   1.936   3.861   8.300  0.2069  0.0963  0.4983
   13DOPE   H3R 1585   1.955   3.955   8.356 -0.6391 -0.3881  1.6328
   13DOPE   H3S 1586   1.825   3.870   8.297  0.3129  1.4338  0.1784
   13DOPE   C24 1587   1.980   3.858   8.146  0.4000  0.0893 -0.1667
   13DOPE   H4R 1588   2.082   3.902   8.151 -0.0719  1.1176  1.2350
   13DOPE   H4S 1589   1.925   3.938   8.091 -0.6402  0.2930  1.1186
   13DOPE   C25 1590   1.975   3.725   8.069  0.1863 -0.4961 -0.1163
   13DOPE   H5R 1591   1.868   3.696   8.075  0.2817 -0.7185  0.5661
   13DOPE   H5S 1592   2.038   3.650   8.120 -3.8418 -3.5110  0.9528
   13DOPE   C26 1593   2.010   3.744   7.920  0.0127 -0.0628 -0.8365
   13DOPE   H6R 1594   2.113   3.786   7.919 -0.2131  0.6348  1.0679
   13DOPE   H6S 1595   1.951   3.822   7.867 -1.0018 -1.5415 -1.9508
   13DOPE   C27 1596   2.021   3.610   7.838 -0.2681 -0.3277 -0.6288
   13DOPE   H7R 1597   1.914   3.582   7.825 -0.1797 -2.9260  2.9510
   13DOPE   H7S 1598   2.070   3.535   7.903 -2.3349  0.2631  1.7442
   13DOPE   C28 1599   2.108   3.625   7.711 -1.0312 -0.6130 -0.4647
   13DOPE   H8R 1600   2.144   3.528   7.671  1.4685  0.5741 -1.3083
   13DOPE   H8S 1601   2.202   3.679   7.733 -1.4241  0.1722 -0.6542
   13DOPE   C29 1602   2.039   3.699   7.600  0.3637  0.0332 -0.5649
   13DOPE   H9R 1603   2.010   3.803   7.623  0.3630  0.0112 -0.4677
   13DOPE  C210 1604   1.994   3.633   7.492  0.0072 -0.1309  1.6343
   13DOPE  H10R 1605   1.932   3.692   7.423  1.7262  2.2652  2.0330
   13DOPE  C211 1606   2.003   3.489   7.452 -0.1404 -0.1392  0.1601
   13DOPE  H11R 1607   1.919   3.435   7.501 -0.4003  0.2266  0.1200
   13DOPE  H11S 1608   2.094   3.436   7.487  0.6046  0.4142 -0.9050
   13DOPE  C212 1609   1.994   3.465   7.302 -0.8609  0.7655 -0.3934
   13DOPE  H12R 1610   2.086   3.497   7.248 -1.0789 -1.0795 -1.9647
   13DOPE  H12S 1611   1.909   3.517   7.252 -2.0929 -0.9297 -0.1541
   13DOPE  C213 1612   1.988   3.313   7.266 -1.2299  0.2414 -0.5700
   13DOPE  H13R 1613   1.887   3.274   7.288 -1.9279  1.4932 -1.4219
   13DOPE  H13S 1614   2.066   3.264   7.327 -2.2179  0.7802  1.1981
   13DOPE  C214 1615   2.007   3.283   7.117  0.2822  0.5628 -0.3055
   13DOPE  H14R 1616   2.093   3.344   7.081 -0.6982  0.8877 -2.2430
   13DOPE  H14S 1617   1.917   3.308   7.058 -0.9232 -1.8148  0.4064
   13DOPE  C215 1618   2.025   3.130   7.099 -0.0851  0.0160  0.0860
   13DOPE  H15R 1619   1.927   3.085   7.123  1.1048 -2.7018  0.2785
   13DOPE  H15S 1620   2.095   3.076   7.166  2.2478  0.9318 -1.4679
   13DOPE  C216 1621   2.065   3.090   6.954 -0.5339  0.1784  0.6235
   13DOPE  H16R 1622   2.004   3.147   6.880  2.3626  0.0083 -2.1052
   13DOPE  H16S 1623   2.034   2.984   6.938 -0.7962  0.4574 -0.8437
   13DOPE  C217 1624   2.207   3.118   6.937  0.0583  0.7126  0.1656
   13DOPE  H17R 1625   2.269   3.060   7.010  2.7135 -0.6076 -2.9105
   13DOPE  H17S 1626   2.224   3.227   6.948  1.4461  0.8263 -2.4427
   13DOPE  C218 1627   2.259   3.077   6.795 -0.5004  0.1581  0.0563
   13DOPE  H18R 1628   2.247   2.969   6.773 -1.0211  0.4486 -1.1623
   13DOPE  H18S 1629   2.367   3.095   6.779 -0.4147 -1.2324 -1.1319
   13DOPE  H18T 1630   2.206   3.124   6.710 -0.3922 -0.7449 -0.5212
   13DOPE   C33 1631   2.383   3.806   8.046 -0.0473 -0.6653 -0.9755
   13DOPE   H3X 1632   2.285   3.829   8.092  0.6623 -0.9665  0.7709
   13DOPE   H3Y 1633   2.388   3.698   8.019 -0.3151 -0.2965 -2.6101
   13DOPE   C34 1634   2.408   3.892   7.922 -0.6123  0.1644 -0.6617
   13DOPE   H4X 1635   2.310   3.929   7.885 -0.3480  0.1882 -1.3559
   13DOPE   H4Y 1636   2.471   3.979   7.949  1.3407 -1.2606 -0.3432
   13DOPE   C35 1637   2.497   3.822   7.817 -1.0505  0.4219  0.6853
   13DOPE   H5X 1638   2.454   3.725   7.783  1.2415 -0.1660 -0.8342
   13DOPE   H5Y 1639   2.599   3.803   7.856  0.5082  2.5159 -1.9647
   13DOPE   C36 1640   2.531   3.897   7.683 -0.2819 -0.2027  0.1791
   13DOPE   H6X 1641   2.600   3.982   7.703 -0.4912 -0.7641  3.9252
   13DOPE   H6Y 1642   2.445   3.949   7.638 -0.2799 -0.6980 -0.4132
   13DOPE   C37 1643   2.605   3.804   7.581  0.3849 -0.6713 -0.6791
   13DOPE   H7X 1644   2.700   3.783   7.635  0.4552  0.8255 -0.1767
   13DOPE   H7Y 1645   2.541   3.714   7.568 -2.2425  0.8676  0.7352
   13DOPE   C38 1646   2.638   3.874   7.445 -0.4710 -0.3790  0.5189
   13DOPE   H8X 1647   2.718   3.950   7.457 -1.4503  0.5269  1.5385
   13DOPE   H8Y 1648   2.545   3.930   7.419 -1.3197 -1.8404  0.2971
   13DOPE   C39 1649   2.669   3.772   7.337 -0.6744  0.2756 -0.0400
   13DOPE   H9X 1650   2.778   3.758   7.328 -0.5890  0.3946  0.7521
   13DOPE  C310 1651   2.578   3.699   7.271 -0.0323 -0.0496 -0.0490
   13DOPE  H10X 1652   2.608   3.622   7.198 -0.5706  0.6731 -1.0571
   13DOPE  C311 1653   2.431   3.712   7.284  1.0255  0.0913 -0.2297
   13DOPE  H11X 1654   2.385   3.614   7.307 -0.3746  0.7849 -0.0091
   13DOPE  H11Y 1655   2.402   3.776   7.370 -1.5616  2.7326 -2.8792
   13DOPE  C312 1656   2.355   3.777   7.163 -0.2357  0.0033 -0.8321
   13DOPE  H12X 1657   2.424   3.857   7.132  0.4022  0.0982  0.7568
   13DOPE  H12Y 1658   2.260   3.816   7.207  0.7539  1.2546  0.2748
   13DOPE  C313 1659   2.328   3.667   7.061 -0.1190 -0.1018  0.0015
   13DOPE  H13X 1660   2.419   3.603   7.060 -0.2000 -0.3704  2.4492
   13DOPE  H13Y 1661   2.248   3.592   7.076  1.3998 -2.0832 -1.4343
   13DOPE  C314 1662   2.294   3.741   6.932 -0.6768  0.2560 -0.4066
   13DOPE  H14X 1663   2.370   3.819   6.913  0.2172  0.2428  2.5909
   13DOPE  H14Y 1664   2.201   3.798   6.951  0.3429  2.0711 -0.6139
   13DOPE  C315 1665   2.269   3.655   6.806 -0.3900  0.3573 -0.1568
   13DOPE  H15X 1666   2.224   3.728   6.735 -0.7381 -0.9790 -1.3546
   13DOPE  H15Y 1667   2.191   3.585   6.843  0.8896 -0.9798  0.0761
   13DOPE  C316 1668   2.394   3.581   6.742  0.3952 -0.1186 -0.5841
   13DOPE  H16X 1669   2.474   3.558   6.815  0.3858 -0.7697 -0.7664
   13DOPE  H16Y 1670   2.445   3.658   6.681  1.0838  1.9161  2.3676
   13DOPE  C317 1671   2.365   3.464   6.646 -0.9823  0.1084  0.1874
   13DOPE  H17X 1672   2.453   3.398   6.632 -1.1702  0.1550 -1.3617
   13DOPE  H17Y 1673   2.288   3.404   6.699 -1.1785 -0.3407 -0.5952
   13DOPE  C318 1674   2.306   3.497   6.512 -0.1137  0.0489 -0.1208
   13DOPE  H18X 1675   2.285   3.397   6.467  0.7328  0.0847 -0.6175
   13DOPE  H18Y 1676   2.215   3.558   6.525 -0.3899 -0.4999  0.5744
   13DOPE  H18Z 1677   2.377   3.556   6.450 -1.9710  2.4929 -0.0581
   14DOPE     N 1678   1.394   5.261   8.553  0.2629 -0.3568 -0.3383
   14DOPE   HN1 1679   1.423   5.174   8.506 -1.9230 -1.9114  0.9892
   14DOPE   HN2 1680   1.308   5.293   8.504  1.4166  1.2252 -1.4305
   14DOPE   HN3 1681   1.460   5.339   8.534 -0.6166  1.6540  3.7293
   14DOPE   C12 1682   1.384   5.247   8.706  0.5061 -0.2988  0.1323
   14DOPE  H12A 1683   1.325   5.156   8.727  0.4834 -0.3173 -0.0098
   14DOPE  H12B 1684   1.329   5.337   8.742  0.8031 -0.2878  0.5579
   14DOPE   C11 1685   1.527   5.242   8.766 -0.2256 -0.1378  0.1449
   14DOPE  H11A 1686   1.597   5.190   8.697  0.7423 -0.8672  1.6302
   14DOPE  H11B 1687   1.519   5.181   8.859 -2.3415  1.1921  0.9034
   14DOPE     P 1688   1.676   5.413   8.909  0.0453  0.2684  0.0208
   14DOPE   O13 1689   1.787   5.319   8.882 -0.4211  0.5418  0.5120
   14DOPE   O14 1690   1.601   5.407   9.040 -0.1758 -0.6597  0.1140
   14DOPE   O11 1691   1.725   5.560   8.872 -0.0226 -0.0971  0.1042
   14DOPE   O12 1692   1.571   5.373   8.798 -0.4489  0.4878 -0.0876
   14DOPE    C1 1693   1.629   5.650   8.807  0.0436  0.0862  0.8494
   14DOPE    HA 1694   1.647   5.757   8.827  0.3098 -0.2166  2.3228
   14DOPE    HB 1695   1.522   5.625   8.822  0.0095  0.8014  1.8680
   14DOPE    C2 1696   1.646   5.636   8.643  0.2601  0.2416 -0.0914
   14DOPE    HS 1697   1.659   5.527   8.634  1.2638  0.0577  2.5138
   14DOPE   O21 1698   1.760   5.707   8.595  0.1307 -0.2983 -0.1694
   14DOPE   C21 1699   1.868   5.635   8.575  0.7242  0.4990  0.3412
   14DOPE   O22 1700   1.885   5.519   8.609 -0.0248 -0.2172  0.0319
   14DOPE   C22 1701   1.983   5.715   8.510 -0.7536  0.2423 -0.0501
   14DOPE   H2R 1702   2.071   5.678   8.566 -1.9164 -0.0333  1.6471
   14DOPE   H2S 1703   1.971   5.822   8.539  1.2261  0.0874  1.5609
   14DOPE    C3 1704   1.517   5.678   8.560  0.0663  1.0263  0.2848
   14DOPE    HX 1705   1.501   5.783   8.595  0.2076  0.9893  0.4576
   14DOPE    HY 1706   1.420   5.633   8.589  1.2056 -0.3528  2.1436
   14DOPE   O31 1707   1.526   5.684   8.421 -0.0153 -0.2092  0.1138
   14DOPE   C31 1708   1.527   5.556   8.362 -0.1910 -0.2289 -0.6302
   14DOPE   O32 1709   1.531   5.454   8.427  0.0641  0.0422 -0.5083
   14DOPE   C32 1710   1.518   5.572   8.211  0.2590  0.2143  0.0159
   14DOPE   H2X 1711   1.448   5.658   8.203 -1.2138 -0.7445  1.7629
   14DOPE   H2Y 1712   1.624   5.593   8.189  1.0257 -2.3223  0.9752
   14DOPE   C23 1713   2.003   5.682   8.361 -1.0088  0.1180 -0.0154
   14DOPE   H3R 1714   2.060   5.771   8.327 -2.2061  0.4916 -1.1009
   14DOPE   H3S 1715   1.909   5.670   8.303 -1.2903 -2.2090  0.8470
   14DOPE   C24 1716   2.099   5.564   8.330  0.2124  0.2812  0.0678
   14DOPE   H4R 1717   2.039   5.471   8.342  0.1806  0.1599 -0.9773
   14DOPE   H4S 1718   2.179   5.559   8.407  0.4307 -1.9611 -0.2174
   14DOPE   C25 1719   2.158   5.563   8.189 -0.1944 -0.3927 -0.1630
   14DOPE   H5R 1720   2.214   5.655   8.163  1.1696  0.0996  3.8768
   14DOPE   H5S 1721   2.070   5.559   8.122  1.1285 -0.8567 -1.9567
   14DOPE   C26 1722   2.229   5.430   8.160 -0.5877  0.3564 -0.4031
   14DOPE   H6R 1723   2.180   5.344   8.211 -0.6659 -1.1296 -2.8427
   14DOPE   H6S 1724   2.332   5.427   8.202 -1.0771  0.6153  0.8500
   14DOPE   C27 1725   2.228   5.399   8.006  0.3777 -0.0530 -1.1851
   14DOPE   H7R 1726   2.121   5.409   7.976  0.0128 -0.0352  0.0829
   14DOPE   H7S 1727   2.277   5.300   7.989 -0.4353 -0.6758 -0.0557
   14DOPE   C28 1728   2.294   5.508   7.920 -0.0852  0.8148  0.3875
   14DOPE   H8R 1729   2.254   5.610   7.941 -0.6117  0.3323  1.8363
   14DOPE   H8S 1730   2.264   5.495   7.813  1.2164  0.9809 -0.0207
   14DOPE   C29 1731   2.448   5.491   7.933  0.4032  0.0062 -0.4460
   14DOPE   H9R 1732   2.485   5.451   8.029  0.7185 -0.9905 -0.9691
   14DOPE  C210 1733   2.523   5.487   7.825 -0.1755  0.5212  0.2860
   14DOPE  H10R 1734   2.628   5.458   7.835 -0.2979  0.0387  0.1876
   14DOPE  C211 1735   2.480   5.534   7.689  0.6052 -0.5930 -0.3369
   14DOPE  H11R 1736   2.451   5.640   7.699  1.5304 -0.2300 -1.2787
   14DOPE  H11S 1737   2.406   5.475   7.631 -1.5704  2.1227 -0.5035
   14DOPE  C212 1738   2.603   5.570   7.593  0.2247  1.0378 -0.4344
   14DOPE  H12R 1739   2.661   5.654   7.638  0.7123  0.2433  0.4627
   14DOPE  H12S 1740   2.567   5.602   7.492  1.2423  1.3549 -0.7117
   14DOPE  C213 1741   2.698   5.454   7.563  0.5235 -0.2829 -0.4348
   14DOPE  H13R 1742   2.630   5.372   7.530 -2.1821  1.9172 -0.7675
   14DOPE  H13S 1743   2.755   5.422   7.652 -0.9868  1.1139  1.1176
   14DOPE  C214 1744   2.801   5.485   7.453 -0.2018 -0.1746  0.3820
   14DOPE  H14R 1745   2.882   5.546   7.499  0.3658 -1.4993  1.1890
   14DOPE  H14S 1746   2.754   5.554   7.380 -1.6740 -0.7441  0.7670
   14DOPE  C215 1747   2.856   5.350   7.391 -0.2377 -0.2899 -0.1040
   14DOPE  H15R 1748   2.778   5.302   7.327  1.5926 -2.3843 -0.9022
   14DOPE  H15S 1749   2.872   5.272   7.469 -0.1318 -0.4006 -0.2357
   14DOPE  C216 1750   2.991   5.363   7.317 -0.0933 -0.2178  0.0717
   14DOPE  H16R 1751   3.070   5.399   7.387 -1.1097 -0.5132  1.4054
   14DOPE  H16S 1752   2.977   5.432   7.231  0.4554  0.8494  0.8215
   14DOPE  C217 1753   3.028   5.228   7.253  0.2372 -0.0499 -0.7038
   14DOPE  H17R 1754   3.081   5.242   7.156 -1.6105  0.0635 -1.7443
   14DOPE  H17S 1755   2.941   5.161   7.235 -0.0298  0.1184 -0.0670
   14DOPE  C218 1756   3.119   5.154   7.349 -0.3396  0.2327  0.4999
   14DOPE  H18R 1757   3.060   5.123   7.438 -1.4132 -0.0943 -0.2983
   14DOPE  H18S 1758   3.208   5.212   7.379  0.3202 -1.7983  2.7402
   14DOPE  H18T 1759   3.155   5.061   7.301 -0.2405  0.1968  0.6446
   14DOPE   C33 1760   1.471   5.450   8.130 -0.2151 -0.1776  0.4880
   14DOPE   H3X 1761   1.372   5.420   8.172 -0.3712  2.0727  1.9421
   14DOPE   H3Y 1762   1.547   5.371   8.142  1.2949  1.1606  0.0366
   14DOPE   C34 1763   1.446   5.490   7.981  0.7931 -0.1589 -0.0310
   14DOPE   H4X 1764   1.364   5.564   7.970  0.8734 -0.1593 -0.6302
   14DOPE   H4Y 1765   1.543   5.535   7.952  1.0820 -1.3316 -0.9584
   14DOPE   C35 1766   1.400   5.369   7.897 -0.8916 -0.0479  0.2128
   14DOPE   H5X 1767   1.310   5.314   7.929 -0.9913 -0.3702 -0.6000
   14DOPE   H5Y 1768   1.482   5.294   7.904 -0.7123  0.0850 -0.3756
   14DOPE   C36 1769   1.389   5.402   7.747  0.0822 -0.6400 -0.0586
   14DOPE   H6X 1770   1.477   5.460   7.713 -0.9433  0.7030 -0.5323
   14DOPE   H6Y 1771   1.291   5.452   7.727  1.5663  2.1700 -0.8383
   14DOPE   C37 1772   1.391   5.266   7.663  0.6867  0.1685  0.0671
   14DOPE   H7X 1773   1.464   5.194   7.705  0.8801  0.1512 -0.2939
   14DOPE   H7Y 1774   1.286   5.230   7.668  0.7019  0.0442 -0.4596
   14DOPE   C38 1775   1.440   5.295   7.517  0.4105 -0.4607  0.5438
   14DOPE   H8X 1776   1.468   5.192   7.486  2.3295 -0.0426  0.7854
   14DOPE   H8Y 1777   1.536   5.346   7.536 -0.2711  0.3692  2.0259
   14DOPE   C39 1778   1.343   5.365   7.424 -0.2987  0.1378  1.1610
   14DOPE   H9X 1779   1.287   5.448   7.469 -1.5854  1.6299 -2.7032
   14DOPE  C310 1780   1.315   5.331   7.295  0.2274  0.0055 -0.6100
   14DOPE  H10X 1781   1.245   5.399   7.244  0.9968  0.5274 -0.9845
   14DOPE  C311 1782   1.398   5.236   7.211  0.4177  0.2695 -0.4400
   14DOPE  H11X 1783   1.498   5.249   7.256  0.3151  0.3080 -0.2233
   14DOPE  H11Y 1784   1.379   5.126   7.216  0.8044  0.2439  0.6524
   14DOPE  C312 1785   1.413   5.288   7.065 -1.2821 -0.3804 -0.2125
   14DOPE  H12X 1786   1.496   5.229   7.021 -0.4683  1.7226 -1.7034
   14DOPE  H12Y 1787   1.452   5.392   7.056  0.4518 -1.1094 -1.9614
   14DOPE  C313 1788   1.290   5.271   6.978  0.1797 -0.0810  0.1842
   14DOPE  H13X 1789   1.266   5.163   6.986 -0.7254  0.1138  0.1969
   14DOPE  H13Y 1790   1.207   5.322   7.031  0.2030  0.5254 -0.3479
   14DOPE  C314 1791   1.313   5.312   6.828  0.1095  0.2570 -0.0928
   14DOPE  H14X 1792   1.423   5.307   6.819  0.8159  4.2888  3.3147
   14DOPE  H14Y 1793   1.291   5.420   6.811 -2.0293 -0.3855 -1.8211
   14DOPE  C315 1794   1.243   5.226   6.721  0.3585  0.1821  0.5325
   14DOPE  H15X 1795   1.134   5.235   6.740  0.4521 -0.2030  1.3091
   14DOPE  H15Y 1796   1.269   5.119   6.736  0.4516  0.4220  2.3947
   14DOPE  C316 1797   1.281   5.268   6.580  1.2925 -0.2310  0.4696
   14DOPE  H16X 1798   1.392   5.270   6.574  1.2848  0.9849  0.5232
   14DOPE  H16Y 1799   1.242   5.371   6.565 -0.4815 -1.0577 -1.0513
   14DOPE  C317 1800   1.230   5.174   6.472  0.1837 -0.6902  0.8510
   14DOPE  H17X 1801   1.255   5.212   6.371 -0.6656 -0.2929  0.7774
   14DOPE  H17Y 1802   1.270   5.071   6.484  0.9788 -0.3945  0.7318
   14DOPE  C318 1803   1.079   5.165   6.449 -0.5206 -0.3903  0.3539
   14DOPE  H18X 1804   1.061   5.110   6.354 -1.0868  1.1462 -0.4842
   14DOPE  H18Y 1805   1.024   5.116   6.532  1.0740  0.3773  1.9270
   14DOPE  H18Z 1806   1.036   5.266   6.430 -0.7089 -0.7165 -1.0623
   15DOPE     N 1807   1.159   2.839   8.572 -0.7550  0.0633  0.4305
   15DOPE   HN1 1808   1.169   2.751   8.517 -2.2611  0.8167 -1.1823
   15DOPE   HN2 1809   1.066   2.868   8.535 -0.2050  1.1854 -0.0918
   15DOPE   HN3 1810   1.235   2.904   8.545  0.1410  0.1273  2.9094
   15DOPE   C12 1811   1.163   2.791   8.711  0.3944  0.4770 -0.3843
   15DOPE  H12A 1812   1.243   2.714   8.717 -1.1252 -1.1312  0.1789
   15DOPE  H12B 1813   1.066   2.743   8.737  1.4025 -0.7339  1.4113
   15DOPE   C11 1814   1.195   2.915   8.803  0.6527 -0.3964 -0.0897
   15DOPE  H11A 1815   1.201   2.877   8.907 -1.9317  0.2019  0.3320
   15DOPE  H11B 1816   1.108   2.983   8.804  1.1739  0.2734  0.5362
   15DOPE     P 1817   1.347   3.113   8.696  0.3273  0.1104  0.1917
   15DOPE   O13 1818   1.491   3.134   8.707 -0.0872 -0.3576 -0.1456
   15DOPE   O14 1819   1.253   3.213   8.749 -1.0983 -0.0960 -0.1341
   15DOPE   O11 1820   1.306   3.068   8.545  0.3161  0.3172 -0.6454
   15DOPE   O12 1821   1.318   2.978   8.767  0.0145 -0.1537  0.0461
   15DOPE    C1 1822   1.211   3.150   8.474  0.2735 -0.4818 -0.2373
   15DOPE    HA 1823   1.236   3.257   8.493  0.8206 -0.5054 -0.7818
   15DOPE    HB 1824   1.111   3.129   8.516  0.3117  1.0481  0.7087
   15DOPE    C2 1825   1.219   3.121   8.325 -0.1345 -0.4404 -0.4422
   15DOPE    HS 1826   1.151   3.199   8.283  0.4781  0.1307 -0.4058
   15DOPE   O21 1827   1.179   2.987   8.300 -0.0393 -0.1691 -0.6120
   15DOPE   C21 1828   1.108   2.972   8.188 -0.0808 -0.2138 -0.0167
   15DOPE   O22 1829   1.087   3.055   8.100  0.0212  0.2152  0.0484
   15DOPE   C22 1830   1.059   2.827   8.190  0.3371  0.4193  0.8360
   15DOPE   H2R 1831   0.992   2.818   8.278  0.8516  0.2279  1.2113
   15DOPE   H2S 1832   1.142   2.754   8.202 -1.3207 -1.9406 -1.0603
   15DOPE    C3 1833   1.358   3.149   8.279  0.2145  0.0810 -0.1505
   15DOPE    HX 1834   1.430   3.077   8.324 -0.0275  0.0602  0.2057
   15DOPE    HY 1835   1.400   3.249   8.304  0.2040  0.0711 -0.0931
   15DOPE   O31 1836   1.367   3.131   8.132  0.5114 -0.5400 -0.5150
   15DOPE   C31 1837   1.307   3.227   8.056 -0.0718  0.1208  1.2948
   15DOPE   O32 1838   1.251   3.323   8.105 -0.2254  0.1862 -0.1465
   15DOPE   C32 1839   1.301   3.197   7.900  0.4798 -0.3489  0.1974
   15DOPE   H2X 1840   1.197   3.231   7.880  0.6270 -0.0725 -0.0903
   15DOPE   H2Y 1841   1.376   3.260   7.849  0.2433  0.0998  0.4000
   15DOPE   C23 1842   0.973   2.786   8.071 -0.2214  0.3626  0.4954
   15DOPE   H3R 1843   0.891   2.860   8.053 -0.2441  0.4613  1.0026
   15DOPE   H3S 1844   0.920   2.693   8.097 -1.2068  0.8378  0.2409
   15DOPE   C24 1845   1.053   2.771   7.939  0.3532  0.4879  0.5110
   15DOPE   H4R 1846   1.128   2.692   7.962 -3.2045 -3.1015  0.9132
   15DOPE   H4S 1847   1.091   2.872   7.914 -1.3197  0.9568 -0.2410
   15DOPE   C25 1848   0.977   2.703   7.820 -0.5968 -0.9379 -0.2301
   15DOPE   H5R 1849   0.942   2.602   7.848  0.5903 -1.0248  1.0973
   15DOPE   H5S 1850   1.053   2.696   7.740  1.1397  0.4646  1.1793
   15DOPE   C26 1851   0.861   2.789   7.764  0.4533  0.4316  0.0456
   15DOPE   H6R 1852   0.909   2.877   7.716  1.8259  0.0711  0.7113
   15DOPE   H6S 1853   0.794   2.814   7.849  0.2571  1.4454 -0.3936
   15DOPE   C27 1854   0.785   2.720   7.651 -0.0079  0.1343 -0.1879
   15DOPE   H7R 1855   0.704   2.791   7.624  1.4551  2.5116  1.2979
   15DOPE   H7S 1856   0.741   2.628   7.696  1.2958 -0.7970 -0.7463
   15DOPE   C28 1857   0.875   2.681   7.522  0.8118  0.1507 -0.6767
   15DOPE   H8R 1858   0.816   2.629   7.443 -3.3218  0.0856  2.1175
   15DOPE   H8S 1859   0.948   2.605   7.555 -0.4929 -1.1535 -0.6761
   15DOPE   C29 1860   0.947   2.802   7.466 -0.0963 -0.4999  0.0051
   15DOPE   H9R 1861   1.057   2.801   7.470 -0.1209 -0.9093  2.7534
   15DOPE  C210 1862   0.905   2.907   7.389  0.3158  0.3397 -0.0565
   15DOPE  H10R 1863   0.973   2.989   7.362  1.5277  0.5197  3.1238
   15DOPE  C211 1864   0.762   2.930   7.337  0.4316 -0.5545 -0.4822
   15DOPE  H11R 1865   0.735   3.038   7.344 -1.5705 -1.0615  0.3122
   15DOPE  H11S 1866   0.684   2.885   7.402 -0.4166  0.6969 -0.5948
   15DOPE  C212 1867   0.732   2.889   7.186  0.3095  0.1657  0.1640
   15DOPE  H12R 1868   0.622   2.891   7.169 -0.3076 -0.7031  3.3533
   15DOPE  H12S 1869   0.761   2.785   7.159 -1.5780  0.1406 -2.0871
   15DOPE  C213 1870   0.802   2.978   7.081 -0.4785  1.1247 -1.0278
   15DOPE  H13R 1871   0.911   2.977   7.102 -1.1107  0.2802  3.0152
   15DOPE  H13S 1872   0.766   3.077   7.118 -2.5908 -0.0919  0.4637
   15DOPE  C214 1873   0.757   2.954   6.935  0.2009 -0.0221  0.1442
   15DOPE  H14R 1874   0.646   2.951   6.941  0.1127  2.2951  0.4685
   15DOPE  H14S 1875   0.803   2.867   6.883  1.5448  1.5768 -1.4576
   15DOPE  C215 1876   0.787   3.075   6.833 -0.3056  0.2567 -0.0690
   15DOPE  H15R 1877   0.880   3.123   6.872 -1.1406  0.9486  1.1458
   15DOPE  H15S 1878   0.703   3.148   6.830 -1.2065 -0.7788 -0.2750
   15DOPE  C216 1879   0.798   3.036   6.688  0.0852 -0.2562  0.8633
   15DOPE  H16R 1880   0.886   2.969   6.678  0.7335  0.6319  0.5457
   15DOPE  H16S 1881   0.812   3.126   6.624  1.3780 -0.6126  0.6286
   15DOPE  C217 1882   0.677   2.958   6.635  0.2844 -0.7336 -0.2723
   15DOPE  H17R 1883   0.582   2.994   6.679  0.8704 -0.7392  1.0409
   15DOPE  H17S 1884   0.686   2.847   6.642 -0.5905 -0.8444 -0.7189
   15DOPE  C218 1885   0.665   2.966   6.481  0.9940 -0.1713  0.0788
   15DOPE  H18R 1886   0.653   3.069   6.440  2.2719  0.8317  2.1007
   15DOPE  H18S 1887   0.571   2.914   6.451  0.9850  0.7036 -1.5580
   15DOPE  H18T 1888   0.751   2.920   6.429  2.0744  0.1315  1.5252
   15DOPE   C33 1889   1.318   3.051   7.848  1.1830  0.0791  0.0414
   15DOPE   H3X 1890   1.248   2.997   7.915  1.1305  0.6729  0.4681
   15DOPE   H3Y 1891   1.415   2.998   7.856 -0.4087 -3.2233 -0.8297
   15DOPE   C34 1892   1.276   3.038   7.700  0.3046  0.2020  0.1462
   15DOPE   H4X 1893   1.221   2.941   7.699 -0.5387  0.6658 -1.7627
   15DOPE   H4Y 1894   1.202   3.115   7.670  1.3107  0.9446 -0.4563
   15DOPE   C35 1895   1.390   3.039   7.593  0.1107 -0.9619 -0.5169
   15DOPE   H5X 1896   1.464   2.959   7.615  0.4839 -0.7394 -0.9397
   15DOPE   H5Y 1897   1.446   3.133   7.615  0.5092 -1.6678  1.7553
   15DOPE   C36 1898   1.347   3.020   7.451  0.2928  0.3908  1.1383
   15DOPE   H6X 1899   1.389   3.098   7.384  0.7714 -0.7386  0.0705
   15DOPE   H6Y 1900   1.237   3.024   7.435  0.2420 -0.6130  1.1478
   15DOPE   C37 1901   1.397   2.885   7.388  0.7151 -0.8745 -0.9993
   15DOPE   H7X 1902   1.506   2.876   7.408  0.6227 -0.2748 -0.1622
   15DOPE   H7Y 1903   1.356   2.797   7.442  0.0903  1.2043  2.2029
   15DOPE   C38 1904   1.380   2.883   7.240 -0.2823 -0.4097  0.0522
   15DOPE   H8X 1905   1.455   2.811   7.202  0.5465  1.2206 -1.5607
   15DOPE   H8Y 1906   1.402   2.983   7.196 -1.4405 -0.4040 -0.5571
   15DOPE   C39 1907   1.244   2.832   7.198 -0.3689  0.3279  0.4483
   15DOPE   H9X 1908   1.207   2.747   7.258  0.5463 -0.2122  0.2586
   15DOPE  C310 1909   1.163   2.879   7.095 -0.5839 -0.0557  0.3597
   15DOPE  H10X 1910   1.072   2.820   7.077 -0.5546 -0.4092  1.3318
   15DOPE  C311 1911   1.205   2.979   6.988 -0.0777  0.2564  0.2652
   15DOPE  H11X 1912   1.118   3.037   6.951 -0.2628  0.0011  0.2970
   15DOPE  H11Y 1913   1.272   3.056   7.031 -1.8075  1.8705  0.1889
   15DOPE  C312 1914   1.280   2.919   6.868 -0.0281 -0.5264  0.7124
   15DOPE  H12X 1915   1.370   2.856   6.884 -0.3265 -1.4041 -0.8426
   15DOPE  H12Y 1916   1.303   3.005   6.803 -3.2230 -0.1716 -0.1234
   15DOPE  C313 1917   1.180   2.821   6.797  0.0491 -0.0939  0.2307
   15DOPE  H13X 1918   1.173   2.727   6.855 -0.4931  0.5421  1.2313
   15DOPE  H13Y 1919   1.076   2.857   6.778  0.0579 -0.2428 -0.1019
   15DOPE  C314 1920   1.243   2.770   6.662  0.4909 -0.2055 -0.5209
   15DOPE  H14X 1921   1.343   2.723   6.671  2.2040  3.0389 -0.9942
   15DOPE  H14Y 1922   1.265   2.857   6.595 -0.4478 -1.3709 -2.4308
   15DOPE  C315 1923   1.147   2.673   6.581  0.4907 -0.7456  0.5163
   15DOPE  H15X 1924   1.038   2.693   6.595  0.1657 -1.4276 -0.8732
   15DOPE  H15Y 1925   1.182   2.576   6.621  1.5808  0.4041  2.5595
   15DOPE  C316 1926   1.174   2.688   6.434 -0.3721  0.4385 -0.3989
   15DOPE  H16X 1927   1.280   2.664   6.410 -0.5699 -1.5833  0.5309
   15DOPE  H16Y 1928   1.141   2.791   6.410 -0.6205  1.2784  2.9859
   15DOPE  C317 1929   1.104   2.578   6.358 -0.0898 -0.2513  0.4448
   15DOPE  H17X 1930   1.150   2.558   6.259  0.2863 -1.9891  0.9334
   15DOPE  H17Y 1931   1.116   2.485   6.417  1.5494 -0.2917  0.1058
   15DOPE  C318 1932   0.955   2.604   6.349  0.5983 -0.0526 -0.6284
   15DOPE  H18X 1933   0.906   2.515   6.304 -2.4332  1.4203 -0.4793
   15DOPE  H18Y 1934   0.898   2.629   6.441  0.3943 -2.7935  0.0902
   15DOPE  H18Z 1935   0.932   2.673   6.266 -1.6368  0.7534  0.5670
   16DOPE     N 1936   0.637   4.583   8.295 -0.2965 -0.0408  0.7789
   16DOPE   HN1 1937   0.648   4.675   8.249 -0.4362  0.1972  1.2110
   16DOPE   HN2 1938   0.721   4.529   8.269  0.2133  1.1514 -0.1227
   16DOPE   HN3 1939   0.557   4.522   8.267 -0.1572  0.6531 -1.3312
   16DOPE   C12 1940   0.631   4.598   8.440 -0.3316 -0.7879 -0.1073
   16DOPE  H12A 1941   0.580   4.514   8.491 -3.6595  0.1900 -1.5803
   16DOPE  H12B 1942   0.572   4.689   8.463 -1.2515 -1.5618  0.6772
   16DOPE   C11 1943   0.776   4.624   8.490  0.4224 -0.2370 -0.1448
   16DOPE  H11A 1944   0.764   4.643   8.599  0.8645  1.0058 -0.2882
   16DOPE  H11B 1945   0.795   4.724   8.443  2.0727  0.3697  1.6997
   16DOPE     P 1946   1.009   4.527   8.465  0.0727 -0.4029  0.4777
   16DOPE   O13 1947   1.081   4.404   8.422 -0.2459  0.5080 -0.0415
   16DOPE   O14 1948   1.039   4.580   8.599  0.1098 -0.3928 -0.1341
   16DOPE   O11 1949   1.028   4.651   8.362  0.6799  0.1825 -0.0300
   16DOPE   O12 1950   0.856   4.510   8.448 -0.3523  0.9759 -0.3185
   16DOPE    C1 1951   1.048   4.626   8.222  0.0482 -0.8209  0.2637
   16DOPE    HA 1952   1.011   4.528   8.185 -2.0875  0.3955 -1.0296
   16DOPE    HB 1953   1.159   4.630   8.213  0.3346 -0.9148  2.8544
   16DOPE    C2 1954   0.976   4.731   8.127 -0.0556 -0.0065 -0.6806
   16DOPE    HS 1955   0.872   4.721   8.164  0.4470 -1.3949  0.4382
   16DOPE   O21 1956   0.986   4.696   7.989 -0.0223 -0.0397  0.4222
   16DOPE   C21 1957   0.886   4.722   7.910 -0.2879  0.4806  0.9445
   16DOPE   O22 1958   0.777   4.771   7.938  0.1443  0.1004  0.0217
   16DOPE   C22 1959   0.925   4.677   7.769 -0.1172 -0.0078  0.1643
   16DOPE   H2R 1960   0.977   4.582   7.790 -0.7706 -0.0726  1.6204
   16DOPE   H2S 1961   0.987   4.758   7.725  1.6624 -0.1804  2.2053
   16DOPE    C3 1962   1.017   4.882   8.145 -0.3754  0.3592  0.0505
   16DOPE    HX 1963   0.983   4.910   8.247  0.1970  1.5522 -0.0594
   16DOPE    HY 1964   0.949   4.948   8.086 -0.7499  2.3633  2.5508
   16DOPE   O31 1965   1.161   4.898   8.144 -0.0447 -1.1203  0.2178
   16DOPE   C31 1966   1.212   4.967   8.045  0.2335  0.5525  0.0342
   16DOPE   O32 1967   1.146   5.018   7.955 -0.1052 -0.4454 -0.3971
   16DOPE   C32 1968   1.368   4.978   8.062 -0.5918  0.1427 -1.0224
   16DOPE   H2X 1969   1.391   5.064   8.129 -3.7349 -0.7190  1.4785
   16DOPE   H2Y 1970   1.391   4.883   8.115 -1.4582 -0.1554 -1.1541
   16DOPE   C23 1971   0.807   4.638   7.679 -0.0832  0.1701 -0.2989
   16DOPE   H3R 1972   0.744   4.728   7.661  0.1673  0.3538 -0.2688
   16DOPE   H3S 1973   0.742   4.559   7.722  0.1609 -0.2206 -0.6527
   16DOPE   C24 1974   0.859   4.589   7.553  0.1717 -0.1648  0.1602
   16DOPE   H4R 1975   0.914   4.492   7.556 -0.1876 -0.5115 -2.2917
   16DOPE   H4S 1976   0.923   4.664   7.503  0.8725 -0.2747  0.8634
   16DOPE   C25 1977   0.747   4.559   7.448 -0.6574 -0.4023  0.2840
   16DOPE   H5R 1978   0.690   4.650   7.420 -1.1590 -1.0262 -0.7591
   16DOPE   H5S 1979   0.676   4.482   7.488 -0.8746 -1.2672 -1.6699
   16DOPE   C26 1980   0.807   4.514   7.313 -0.1210  0.1531 -0.6734
   16DOPE   H6R 1981   0.869   4.423   7.327 -0.2053  0.2551  0.4642
   16DOPE   H6S 1982   0.881   4.585   7.271  0.6048 -2.1444 -3.7094
   16DOPE   C27 1983   0.709   4.461   7.206 -0.2646  0.3361 -0.3194
   16DOPE   H7R 1984   0.663   4.546   7.153 -0.4496  1.1874  1.1474
   16DOPE   H7S 1985   0.628   4.412   7.264  1.9141 -2.6690  0.4411
   16DOPE   C28 1986   0.784   4.368   7.113  0.0365  0.0146  0.2649
   16DOPE   H8R 1987   0.713   4.309   7.052 -0.0702 -0.1436  0.5428
   16DOPE   H8S 1988   0.834   4.287   7.171  0.7095  0.9870  1.0860
   16DOPE   C29 1989   0.875   4.447   7.027  0.9066  1.0998 -0.1308
   16DOPE   H9R 1990   0.921   4.538   7.069  0.2123  0.6484  1.7320
   16DOPE  C210 1991   0.894   4.417   6.898 -0.2079 -1.3621  0.1436
   16DOPE  H10R 1992   0.963   4.480   6.840 -0.1975 -0.0832  1.4593
   16DOPE  C211 1993   0.845   4.298   6.818 -0.1873 -0.8826 -0.4959
   16DOPE  H11R 1994   0.779   4.230   6.876 -0.4801 -0.2292 -0.0579
   16DOPE  H11S 1995   0.936   4.245   6.781  0.3290  1.0616 -2.1987
   16DOPE  C212 1996   0.762   4.349   6.694  0.0790  0.7916 -0.3235
   16DOPE  H12R 1997   0.827   4.415   6.633 -1.9780  1.7218 -1.6328
   16DOPE  H12S 1998   0.670   4.405   6.723  0.0371 -0.1142  1.4173
   16DOPE  C213 1999   0.718   4.229   6.614  0.4643 -0.5631  0.2360
   16DOPE  H13R 2000   0.640   4.171   6.667 -0.9955  0.8529 -0.2768
   16DOPE  H13S 2001   0.802   4.168   6.574 -1.7763 -2.0434 -2.5448
   16DOPE  C214 2002   0.658   4.281   6.475 -0.5519  0.8577  0.0877
   16DOPE  H14R 2003   0.740   4.338   6.427 -0.2834 -1.3145 -2.2534
   16DOPE  H14S 2004   0.580   4.355   6.503  0.9592  2.1677  0.9715
   16DOPE  C215 2005   0.608   4.168   6.379  0.9139  0.1901 -0.3712
   16DOPE  H15R 2006   0.572   4.224   6.290 -0.1476 -1.9740 -1.3632
   16DOPE  H15S 2007   0.519   4.118   6.423  0.9347 -0.4694 -1.0595
   16DOPE  C216 2008   0.711   4.057   6.343 -0.2456 -0.7760 -0.5210
   16DOPE  H16R 2009   0.677   3.989   6.262 -1.7776 -1.5228  0.6980
   16DOPE  H16S 2010   0.725   4.000   6.437  0.1394  0.1391 -0.0174
   16DOPE  C217 2011   0.845   4.107   6.287  0.0390  0.3837 -1.0616
   16DOPE  H17R 2012   0.906   4.017   6.265  3.4317  1.5273  2.4177
   16DOPE  H17S 2013   0.897   4.177   6.357 -0.8664  1.0858 -1.0741
   16DOPE  C218 2014   0.835   4.181   6.155  0.4633 -0.5248 -0.3279
   16DOPE  H18R 2015   0.935   4.197   6.111  0.3058 -1.4652 -1.0904
   16DOPE  H18S 2016   0.790   4.281   6.171  1.3090 -0.3096  0.8059
   16DOPE  H18T 2017   0.766   4.139   6.078  0.5047 -1.6014  0.2034
   16DOPE   C33 2018   1.435   4.983   7.924  0.1760 -0.0270  0.0603
   16DOPE   H3X 2019   1.400   5.079   7.881 -1.3686 -0.9649 -0.9007
   16DOPE   H3Y 2020   1.382   4.903   7.867 -1.9549 -0.6778  2.7397
   16DOPE   C34 2021   1.586   4.968   7.921 -0.0478  0.3276 -0.3305
   16DOPE   H4X 2022   1.644   5.050   7.970  3.6618 -1.6378 -1.0356
   16DOPE   H4Y 2023   1.599   4.873   7.978 -0.8757 -0.2969 -1.1545
   16DOPE   C35 2024   1.641   4.952   7.771  0.3008  0.6164 -0.2043
   16DOPE   H5X 2025   1.752   4.958   7.778  0.1531  2.2209  2.0490
   16DOPE   H5Y 2026   1.602   5.039   7.715 -0.1707  0.4157 -0.1987
   16DOPE   C36 2027   1.597   4.822   7.702 -0.0107  0.5686  0.0382
   16DOPE   H6X 2028   1.493   4.835   7.666  0.1014  3.0620  0.4291
   16DOPE   H6Y 2029   1.615   4.738   7.773 -0.5945  0.9178  0.6073
   16DOPE   C37 2030   1.682   4.795   7.575  0.2113 -0.8260 -0.8669
   16DOPE   H7X 2031   1.789   4.778   7.600  0.5955 -0.8636 -2.4717
   16DOPE   H7Y 2032   1.646   4.699   7.534 -1.0604 -1.1383  0.8947
   16DOPE   C38 2033   1.678   4.904   7.462  0.0199  0.0681 -0.0603
   16DOPE   H8X 2034   1.742   4.864   7.380  1.2180  0.0551  0.8631
   16DOPE   H8Y 2035   1.731   4.993   7.500  1.8611 -2.1398  3.0038
   16DOPE   C39 2036   1.542   4.926   7.410  0.5149  0.3578  0.3973
   16DOPE   H9X 2037   1.471   4.956   7.490  1.4055  1.8944  0.6510
   16DOPE  C310 2038   1.485   4.904   7.292  0.0387  0.4171  0.4487
   16DOPE  H10X 2039   1.379   4.929   7.276 -0.0066 -0.5708 -0.8825
   16DOPE  C311 2040   1.550   4.843   7.171 -0.1959 -0.1986  0.3369
   16DOPE  H11X 2041   1.658   4.819   7.184 -0.4145 -0.8540  0.9402
   16DOPE  H11Y 2042   1.506   4.745   7.143  2.8374 -1.5910  0.0771
   16DOPE  C312 2043   1.521   4.933   7.052 -0.9063 -0.1385 -0.0587
   16DOPE  H12X 2044   1.561   5.036   7.066 -3.2015  0.6466  1.3799
   16DOPE  H12Y 2045   1.412   4.935   7.033 -0.6201 -1.0731 -2.0095
   16DOPE  C313 2046   1.587   4.874   6.927 -0.3132 -0.1172  0.1841
   16DOPE  H13X 2047   1.697   4.867   6.939 -0.1317  0.7168 -0.8377
   16DOPE  H13Y 2048   1.550   4.771   6.912  1.6720 -1.0385  1.2248
   16DOPE  C314 2049   1.567   4.964   6.804 -0.1710  0.1870 -0.2460
   16DOPE  H14X 2050   1.578   5.071   6.831 -2.3973  1.0546 -2.4144
   16DOPE  H14Y 2051   1.463   4.950   6.770 -1.1576  0.4581  2.4557
   16DOPE  C315 2052   1.668   4.943   6.690 -0.1984 -0.3509 -0.4610
   16DOPE  H15X 2053   1.683   4.833   6.688 -1.5173 -0.5516  0.2151
   16DOPE  H15Y 2054   1.765   4.991   6.718 -0.0756 -1.4410  1.0559
   16DOPE  C316 2055   1.621   5.003   6.560  0.0550 -0.7435 -0.1712
   16DOPE  H16X 2056   1.587   5.107   6.577  2.2667  0.6472 -3.2830
   16DOPE  H16Y 2057   1.540   4.936   6.524  0.0973 -1.3403  0.7936
   16DOPE  C317 2058   1.733   5.015   6.446 -0.3308  0.5365 -0.1480
   16DOPE  H17X 2059   1.831   5.042   6.490 -0.1770 -0.0064 -0.1543
   16DOPE  H17Y 2060   1.755   4.917   6.399  0.4092  0.8230 -0.4025
   16DOPE  C318 2061   1.704   5.114   6.331  0.2331 -0.2931 -0.7654
   16DOPE  H18X 2062   1.767   5.106   6.240  0.4869 -1.6463 -0.4835
   16DOPE  H18Y 2063   1.601   5.094   6.296 -1.0981  1.7756  1.6557
   16DOPE  H18Z 2064   1.702   5.218   6.371 -2.5145 -0.2323 -0.8614
   17DOPE     N 2065   2.183   0.631   8.961 -0.4199  0.3041  0.0441
   17DOPE   HN1 2066   2.195   0.734   8.964 -2.8652  0.6998 -1.2596
   17DOPE   HN2 2067   2.179   0.592   9.058  0.1798  1.1108  0.3971
   17DOPE   HN3 2068   2.261   0.592   8.904  1.7376  0.4800  2.6685
   17DOPE   C12 2069   2.045   0.593   8.916  1.0899 -0.0144  0.5431
   17DOPE  H12A 2070   1.961   0.624   8.983  1.0878  0.7732  0.1890
   17DOPE  H12B 2071   2.032   0.485   8.893  0.8966  0.3424 -1.1862
   17DOPE   C11 2072   2.024   0.662   8.776 -0.4442 -0.6093 -0.3221
   17DOPE  H11A 2073   1.935   0.620   8.725 -0.5937 -1.0135  0.2542
   17DOPE  H11B 2074   2.108   0.645   8.706  0.4325 -1.1868  0.8458
   17DOPE     P 2075   1.871   0.865   8.807  0.1392 -0.3818 -0.3579
   17DOPE   O13 2076   1.876   1.005   8.853  0.0323  0.1056  0.2428
   17DOPE   O14 2077   1.769   0.784   8.879 -0.2114  0.7808  0.0732
   17DOPE   O11 2078   1.840   0.870   8.648  0.3915 -0.1624  0.1433
   17DOPE   O12 2079   2.014   0.806   8.810  0.0787  0.6110 -0.1768
   17DOPE    C1 2080   1.950   0.901   8.561 -0.6301 -0.5170  0.3312
   17DOPE    HA 2081   2.010   0.809   8.545 -0.5908 -0.2908 -0.9074
   17DOPE    HB 2082   2.023   0.966   8.613 -1.6477 -0.2581  1.4901
   17DOPE    C2 2083   1.895   0.960   8.425 -0.2128 -1.0145 -0.4736
   17DOPE    HS 2084   1.978   0.947   8.352 -0.6171  0.5002 -1.2286
   17DOPE   O21 2085   1.847   1.095   8.426 -0.2394  0.1009 -0.2542
   17DOPE   C21 2086   1.954   1.183   8.425  0.4288 -0.3682  0.2131
   17DOPE   O22 2087   2.071   1.158   8.424  0.0377 -0.2577 -0.4710
   17DOPE   C22 2088   1.891   1.325   8.412 -0.3479  0.2060  0.0144
   17DOPE   H2R 2089   1.907   1.378   8.509  1.8861  0.8579 -0.6452
   17DOPE   H2S 2090   1.781   1.314   8.413 -0.3142 -0.1361  0.5790
   17DOPE    C3 2091   1.783   0.863   8.379 -0.8285  0.8225  0.6397
   17DOPE    HX 2092   1.697   0.889   8.445  0.1482  0.7839  1.9889
   17DOPE    HY 2093   1.821   0.761   8.405  1.0806  2.0861  3.2894
   17DOPE   O31 2094   1.755   0.866   8.238 -0.1848 -0.5651 -0.6951
   17DOPE   C31 2095   1.649   0.787   8.217 -0.6009 -0.1405 -0.3693
   17DOPE   O32 2096   1.590   0.718   8.296  0.4201  0.6795 -0.8539
   17DOPE   C32 2097   1.613   0.784   8.068 -0.3752 -0.8349 -0.0636
   17DOPE   H2X 2098   1.504   0.762   8.058 -0.7744  0.4221  1.2295
   17DOPE   H2Y 2099   1.632   0.886   8.029 -0.8369 -0.7986 -0.2058
   17DOPE   C23 2100   1.948   1.410   8.293  0.1974 -0.0156 -0.0970
   17DOPE   H3R 2101   2.058   1.423   8.308  0.1681  4.5029 -2.1826
   17DOPE   H3S 2102   1.908   1.513   8.292  1.2143  0.3871 -0.5635
   17DOPE   C24 2103   1.928   1.353   8.146 -0.2643  0.2184 -0.5372
   17DOPE   H4R 2104   1.981   1.422   8.078 -0.2031  0.8883  0.1726
   17DOPE   H4S 2105   1.822   1.368   8.115  0.2178  0.3286 -2.2167
   17DOPE   C25 2106   1.974   1.211   8.112 -0.5402  0.1078  0.1361
   17DOPE   H5R 2107   1.899   1.139   8.154  0.0706 -0.6406 -0.0326
   17DOPE   H5S 2108   2.072   1.183   8.157 -0.3889 -0.1707 -0.3666
   17DOPE   C26 2109   1.984   1.176   7.954 -0.8154 -0.2594 -0.8390
   17DOPE   H6R 2110   1.997   1.066   7.965  2.0766  0.0361 -0.6064
   17DOPE   H6S 2111   2.080   1.217   7.915  1.1831 -1.2528  2.5541
   17DOPE   C27 2112   1.867   1.210   7.871  0.1539  0.3155  0.1844
   17DOPE   H7R 2113   1.865   1.319   7.849  2.6142  0.0893 -1.5709
   17DOPE   H7S 2114   1.778   1.193   7.936  1.4369 -0.8675  1.7146
   17DOPE   C28 2115   1.845   1.126   7.743 -0.3813  0.0104 -1.2989
   17DOPE   H8R 2116   1.747   1.145   7.694 -0.4622 -1.3922 -1.7161
   17DOPE   H8S 2117   1.836   1.021   7.778 -0.2599 -0.1668 -1.8009
   17DOPE   C29 2118   1.958   1.129   7.640  0.2919 -0.2849  0.0322
   17DOPE   H9R 2119   2.051   1.097   7.689 -0.5284 -0.4233  1.5604
   17DOPE  C210 2120   1.951   1.161   7.506  0.4066 -0.2592 -0.5528
   17DOPE  H10R 2121   2.047   1.161   7.453  0.3199  1.0489 -0.7392
   17DOPE  C211 2122   1.822   1.213   7.433 -0.2918  0.6232  0.5697
   17DOPE  H11R 2123   1.827   1.323   7.419  1.3693  0.4687 -0.3420
   17DOPE  H11S 2124   1.729   1.198   7.492 -0.3685  0.3878  0.3889
   17DOPE  C212 2125   1.815   1.131   7.299 -0.0442  0.6253 -0.1694
   17DOPE  H12R 2126   1.827   1.021   7.310 -2.5705  0.1735 -1.1632
   17DOPE  H12S 2127   1.900   1.163   7.235  0.7552  1.5677  1.3202
   17DOPE  C213 2128   1.691   1.167   7.207 -0.1897  0.3823  0.7705
   17DOPE  H13R 2129   1.671   1.276   7.202 -0.6417  0.2386 -1.7382
   17DOPE  H13S 2130   1.598   1.124   7.250 -0.0461  1.1664  1.9164
   17DOPE  C214 2131   1.716   1.124   7.062  0.3533  0.1724  0.5835
   17DOPE  H14R 2132   1.714   1.013   7.058 -0.3950 -0.0364  3.7070
   17DOPE  H14S 2133   1.819   1.154   7.034  0.1582  1.4878  1.1803
   17DOPE  C215 2134   1.623   1.182   6.948 -0.4329  0.0803 -0.0404
   17DOPE  H15R 2135   1.615   1.293   6.945  2.2929  0.3808  1.0742
   17DOPE  H15S 2136   1.518   1.144   6.953 -1.1099  1.9784  1.2995
   17DOPE  C216 2137   1.681   1.152   6.804 -0.4190 -0.1499 -0.3875
   17DOPE  H16R 2138   1.605   1.162   6.724 -0.7897  1.3804  0.1179
   17DOPE  H16S 2139   1.712   1.046   6.804 -2.2799 -0.7613  1.5225
   17DOPE  C217 2140   1.804   1.231   6.752 -0.3331  0.1664  0.2287
   17DOPE  H17R 2141   1.891   1.224   6.821  0.0367  1.8051 -0.0176
   17DOPE  H17S 2142   1.772   1.337   6.752  0.0183  0.2746  0.5729
   17DOPE  C218 2143   1.863   1.193   6.612  0.5358 -0.8244  0.2544
   17DOPE  H18R 2144   1.781   1.174   6.541  1.2586  0.5396 -0.9941
   17DOPE  H18S 2145   1.913   1.095   6.627 -0.5248 -1.2428  1.2191
   17DOPE  H18T 2146   1.928   1.271   6.566 -2.3171  0.7523 -1.3430
   17DOPE   C33 2147   1.698   0.676   7.997 -0.8122 -0.6303  1.1466
   17DOPE   H3X 2148   1.659   0.575   8.020 -2.5124 -0.1135  0.7026
   17DOPE   H3Y 2149   1.803   0.693   8.029 -0.2802 -1.2600 -0.2018
   17DOPE   C34 2150   1.713   0.689   7.840 -0.2571 -0.6277 -0.1484
   17DOPE   H4X 2151   1.760   0.789   7.823  0.7244 -1.3644 -1.9795
   17DOPE   H4Y 2152   1.794   0.620   7.808  0.7096 -0.8747  2.6053
   17DOPE   C35 2153   1.586   0.678   7.759 -0.0595 -0.0104 -0.3220
   17DOPE   H5X 2154   1.513   0.752   7.800  1.0648  0.8192  0.2195
   17DOPE   H5Y 2155   1.545   0.576   7.772  1.5528 -0.3943  2.6027
   17DOPE   C36 2156   1.600   0.699   7.609  0.1470 -0.6546  0.0349
   17DOPE   H6X 2157   1.636   0.800   7.579  1.4239 -0.7083  1.2871
   17DOPE   H6Y 2158   1.496   0.690   7.573  0.6384 -1.2980 -1.3078
   17DOPE   C37 2159   1.689   0.596   7.535 -0.2793  0.8286 -0.0695
   17DOPE   H7X 2160   1.775   0.564   7.597 -0.7155  1.3299  0.8234
   17DOPE   H7Y 2161   1.626   0.509   7.509 -0.2874  0.9308 -0.3896
   17DOPE   C38 2162   1.749   0.641   7.406 -0.9029 -0.3674  0.3966
   17DOPE   H8X 2163   1.812   0.552   7.383 -0.6441  0.0597 -0.5993
   17DOPE   H8Y 2164   1.825   0.719   7.426 -0.5367 -0.4049 -0.7698
   17DOPE   C39 2165   1.652   0.674   7.294 -0.1858  0.4925 -0.4126
   17DOPE   H9X 2166   1.580   0.757   7.305 -1.4888 -0.8731  2.6846
   17DOPE  C310 2167   1.650   0.598   7.182  0.5248  0.4988  0.1776
   17DOPE  H10X 2168   1.580   0.635   7.105 -1.6016 -0.6729  1.4348
   17DOPE  C311 2169   1.725   0.475   7.152 -0.6806 -0.2148 -0.0493
   17DOPE  H11X 2170   1.816   0.488   7.091 -0.4614  2.2751  0.7123
   17DOPE  H11Y 2171   1.758   0.416   7.241  0.6629  0.1311 -0.3051
   17DOPE  C312 2172   1.641   0.366   7.074  0.1300  0.1315  0.2505
   17DOPE  H12X 2173   1.537   0.367   7.114  0.3608  2.0264  0.8763
   17DOPE  H12Y 2174   1.678   0.263   7.094 -2.3941 -1.1505 -1.1241
   17DOPE  C313 2175   1.640   0.396   6.920 -0.0120  0.2660  0.2294
   17DOPE  H13X 2176   1.644   0.506   6.901  2.3076 -0.1531 -2.2540
   17DOPE  H13Y 2177   1.730   0.357   6.869  0.2466  2.8164 -1.4592
   17DOPE  C314 2178   1.508   0.343   6.855  0.0599 -0.2351 -0.0075
   17DOPE  H14X 2179   1.422   0.371   6.920  0.3788 -1.0160  0.7585
   17DOPE  H14Y 2180   1.507   0.232   6.863  3.0920 -0.2195  2.6014
   17DOPE  C315 2181   1.496   0.374   6.698  0.0951  0.2799 -0.0091
   17DOPE  H15X 2182   1.526   0.481   6.693 -0.3098  0.3674 -0.6734
   17DOPE  H15Y 2183   1.395   0.348   6.659  1.2302 -2.0473 -1.6052
   17DOPE  C316 2184   1.604   0.308   6.604  0.9491  0.1584 -0.1378
   17DOPE  H16X 2185   1.700   0.341   6.650 -0.0578 -0.0578  2.3032
   17DOPE  H16Y 2186   1.597   0.347   6.501  2.4464 -1.0283 -0.7279
   17DOPE  C317 2187   1.603   0.157   6.596 -0.4854  0.8043  0.2899
   17DOPE  H17X 2188   1.697   0.122   6.548 -1.4899  0.8750 -1.8150
   17DOPE  H17Y 2189   1.602   0.108   6.696 -0.9960 -0.8738 -0.4937
   17DOPE  C318 2190   1.480   0.115   6.511  0.1633  0.0352  0.1990
   17DOPE  H18X 2191   1.390   0.127   6.574  0.8687 -1.8339  1.6494
   17DOPE  H18Y 2192   1.473   0.181   6.422 -3.6758  0.3247  0.5645
   17DOPE  H18Z 2193   1.491   0.014   6.468  1.7399  0.2151  0.1117
   18DOPE     N 2194   6.511   5.337   8.800 -0.4432  0.5088 -0.0774
   18DOPE   HN1 2195   6.607   5.356   8.834 -0.6136 -2.2275  2.3035
   18DOPE   HN2 2196   6.450   5.390   8.865  3.0595  4.3366  0.5440
   18DOPE   HN3 2197   6.498   5.235   8.810 -2.4052  0.5048 -1.8937
   18DOPE   C12 2198   6.493   5.383   8.662  0.3193  0.1653  0.3651
   18DOPE  H12A 2199   6.481   5.494   8.662  1.1155  0.2733  1.5760
   18DOPE  H12B 2200   6.398   5.332   8.634 -0.4464  1.4527  0.5472
   18DOPE   C11 2201   6.604   5.325   8.572 -0.4848 -0.0127  0.2396
   18DOPE  H11A 2202   6.590   5.367   8.470  0.3530  1.3942  0.6805
   18DOPE  H11B 2203   6.587   5.215   8.575  0.3190 -0.1248  1.2489
   18DOPE     P 2204   6.820   5.471   8.597  0.1878 -0.3746  0.3079
   18DOPE   O13 2205   6.854   5.458   8.454  0.2573  0.4094  0.0552
   18DOPE   O14 2206   6.932   5.481   8.690  0.1015  0.4699  0.1942
   18DOPE   O11 2207   6.724   5.589   8.633 -0.9545 -0.5507  0.0194
   18DOPE   O12 2208   6.727   5.353   8.639 -0.8663  0.4670  0.6510
   18DOPE    C1 2209   6.746   5.722   8.581 -0.6586  0.8942  1.0698
   18DOPE    HA 2210   6.812   5.713   8.491  0.9592 -1.0191  2.3627
   18DOPE    HB 2211   6.801   5.791   8.648  1.8886 -0.9927  1.0604
   18DOPE    C2 2212   6.619   5.791   8.519 -0.5372  0.2309  0.1797
   18DOPE    HS 2213   6.587   5.847   8.609  4.6413 -1.4142  3.4592
   18DOPE   O21 2214   6.530   5.687   8.475 -0.6203  0.1612  0.2188
   18DOPE   C21 2215   6.398   5.703   8.499 -0.5541 -0.5848 -0.1728
   18DOPE   O22 2216   6.351   5.791   8.567  0.6775 -0.4988  0.3854
   18DOPE   C22 2217   6.326   5.600   8.409 -0.2930  0.2108  0.0811
   18DOPE   H2R 2218   6.326   5.520   8.485 -0.6064 -0.4085 -0.5580
   18DOPE   H2S 2219   6.389   5.571   8.323  1.3746  1.0689  0.9742
   18DOPE    C3 2220   6.638   5.898   8.413 -0.3454 -0.0140  0.3093
   18DOPE    HX 2221   6.682   5.988   8.462 -0.5279 -0.6420  1.6493
   18DOPE    HY 2222   6.534   5.926   8.385 -0.1022 -0.3570 -1.0379
   18DOPE   O31 2223   6.709   5.844   8.299  0.5373  0.2490  0.4258
   18DOPE   C31 2224   6.791   5.924   8.243 -0.8545  0.4675 -0.1531
   18DOPE   O32 2225   6.797   6.045   8.257  0.1245  0.2179 -0.2907
   18DOPE   C32 2226   6.892   5.846   8.159 -0.5429 -0.5454  0.0468
   18DOPE   H2X 2227   6.977   5.818   8.224  0.9787  0.1192 -1.5625
   18DOPE   H2Y 2228   6.851   5.746   8.133  0.7986 -1.2820  0.6493
   18DOPE   C23 2229   6.182   5.625   8.369  0.0066  0.8112  0.0909
   18DOPE   H3R 2230   6.122   5.676   8.447  0.8252 -0.6167  1.7235
   18DOPE   H3S 2231   6.128   5.528   8.364  1.7876 -0.3325  1.6349
   18DOPE   C24 2232   6.169   5.714   8.249  0.2451 -0.0845 -0.3051
   18DOPE   H4R 2233   6.195   5.819   8.274  0.2174 -0.0337 -0.4885
   18DOPE   H4S 2234   6.066   5.710   8.209  0.6680  0.7274 -1.5644
   18DOPE   C25 2235   6.264   5.662   8.129  0.1573 -0.4607  0.1481
   18DOPE   H5R 2236   6.253   5.553   8.112  0.4267 -0.8757  2.3749
   18DOPE   H5S 2237   6.369   5.669   8.165  0.6572  0.3077 -1.3740
   18DOPE   C26 2238   6.253   5.745   8.003 -0.3048  0.5620  0.5080
   18DOPE   H6R 2239   6.289   5.849   8.011 -1.4395  0.9619  0.5557
   18DOPE   H6S 2240   6.148   5.768   7.974 -1.2405 -2.2672  1.2647
   18DOPE   C27 2241   6.319   5.669   7.891  1.1483 -0.1093 -0.1665
   18DOPE   H7R 2242   6.279   5.566   7.890  1.3863 -0.2252  0.9043
   18DOPE   H7S 2243   6.428   5.668   7.911  1.0632  1.3278  0.5317
   18DOPE   C28 2244   6.314   5.747   7.755 -0.0711 -0.1594  0.8171
   18DOPE   H8R 2245   6.398   5.705   7.696  0.6851 -0.1294  1.8442
   18DOPE   H8S 2246   6.336   5.854   7.778  0.0445 -0.2858  1.2991
   18DOPE   C29 2247   6.181   5.758   7.673 -0.4543 -0.2356 -0.1654
   18DOPE   H9R 2248   6.095   5.789   7.732 -1.0508 -0.7953 -0.7196
   18DOPE  C210 2249   6.159   5.715   7.550 -0.7087 -0.0746  0.6483
   18DOPE  H10R 2250   6.062   5.721   7.498 -0.9498 -3.2441  0.5510
   18DOPE  C211 2251   6.268   5.651   7.466  0.2399  0.6624 -0.3468
   18DOPE  H11R 2252   6.239   5.544   7.453 -2.9609  1.2805  0.8748
   18DOPE  H11S 2253   6.370   5.646   7.509  0.7872 -0.1312 -1.6558
   18DOPE  C212 2254   6.287   5.708   7.330  0.0502  0.6140 -0.8911
   18DOPE  H12R 2255   6.344   5.636   7.267  1.8741 -1.0061  2.3407
   18DOPE  H12S 2256   6.346   5.802   7.332 -0.8472  1.1762  0.6538
   18DOPE  C213 2257   6.156   5.737   7.263 -0.2555  0.2545  0.1558
   18DOPE  H13R 2258   6.108   5.821   7.318 -1.0135 -0.9446  1.3635
   18DOPE  H13S 2259   6.097   5.643   7.265 -0.0739  0.1567  1.4757
   18DOPE  C214 2260   6.187   5.772   7.116 -0.2334 -0.2179 -0.0493
   18DOPE  H14R 2261   6.291   5.807   7.103 -0.2651 -0.4320 -0.9964
   18DOPE  H14S 2262   6.131   5.863   7.085  2.8039  1.6813 -0.3394
   18DOPE  C215 2263   6.146   5.660   7.020 -0.6623 -0.3303 -0.0837
   18DOPE  H15R 2264   6.039   5.642   7.043 -0.3179 -1.6318  0.5685
   18DOPE  H15S 2265   6.208   5.569   7.037 -0.5212 -0.4193 -1.0090
   18DOPE  C216 2266   6.173   5.708   6.877 -0.0359  0.1687  0.2512
   18DOPE  H16R 2267   6.278   5.733   6.855  1.4467 -3.1248  2.6404
   18DOPE  H16S 2268   6.105   5.793   6.856 -0.7989 -0.9770 -2.3601
   18DOPE  C217 2269   6.157   5.605   6.763 -0.2790  0.7235 -1.0325
   18DOPE  H17R 2270   6.055   5.559   6.761 -0.4714  0.7428  2.5799
   18DOPE  H17S 2271   6.219   5.514   6.780  0.5459  1.3901 -0.4260
   18DOPE  C218 2272   6.184   5.656   6.620  0.1296  0.7155 -0.2291
   18DOPE  H18R 2273   6.293   5.673   6.604  0.3843 -0.7827 -0.1814
   18DOPE  H18S 2274   6.137   5.755   6.601  0.2730  0.5097 -1.7826
   18DOPE  H18T 2275   6.140   5.578   6.555  1.5018 -0.1482 -0.1582
   18DOPE   C33 2276   6.970   5.922   8.044  0.1573 -0.1280  0.4754
   18DOPE   H3X 2277   7.054   5.864   8.000  0.5551  0.0439  1.0003
   18DOPE   H3Y 2278   7.014   6.014   8.089 -0.6620 -0.1994  1.4512
   18DOPE   C34 2279   6.885   5.965   7.927 -0.4172 -0.1728  0.1498
   18DOPE   H4X 2280   6.791   6.020   7.952  0.9812  2.0923  0.6715
   18DOPE   H4Y 2281   6.942   6.034   7.861 -1.9341  0.6708 -0.3373
   18DOPE   C35 2282   6.854   5.838   7.848 -0.5557 -0.0091  0.1702
   18DOPE   H5X 2283   6.764   5.783   7.884 -1.2975  0.7004 -0.5228
   18DOPE   H5Y 2284   6.938   5.766   7.839  0.7152  1.3535  0.7605
   18DOPE   C36 2285   6.833   5.881   7.704  0.1381 -1.0289 -0.1312
   18DOPE   H6X 2286   6.825   5.793   7.636 -0.3453 -0.6262 -0.6063
   18DOPE   H6Y 2287   6.914   5.942   7.659 -2.0335  1.5365 -0.8594
   18DOPE   C37 2288   6.694   5.946   7.697 -0.0867 -0.5438  1.1507
   18DOPE   H7X 2289   6.618   5.878   7.741 -0.6752  0.7877  2.2708
   18DOPE   H7Y 2290   6.696   6.044   7.748 -0.3213 -0.0720  0.2801
   18DOPE   C38 2291   6.658   5.987   7.554 -0.2967 -0.2469 -0.3793
   18DOPE   H8X 2292   6.731   6.062   7.513 -2.0293  0.6104 -2.0629
   18DOPE   H8Y 2293   6.568   6.050   7.566 -0.3415 -0.3901  0.0258
   18DOPE   C39 2294   6.624   5.872   7.464 -0.2000  0.8944  0.1194
   18DOPE   H9X 2295   6.560   5.792   7.504 -1.2691  0.9191 -1.4534
   18DOPE  C310 2296   6.663   5.859   7.333  0.3962  0.5397  0.1423
   18DOPE  H10X 2297   6.632   5.766   7.285 -0.8099  0.5888  0.7889
   18DOPE  C311 2298   6.754   5.948   7.257 -0.4252 -0.3523  0.5407
   18DOPE  H11X 2299   6.770   6.047   7.305  0.6528 -0.7283  0.9760
   18DOPE  H11Y 2300   6.853   5.898   7.249 -1.1644 -1.8848  0.5669
   18DOPE  C312 2301   6.677   5.980   7.122  0.0550 -0.0452 -0.3432
   18DOPE  H12X 2302   6.717   6.077   7.086 -3.7639  1.5929 -0.6447
   18DOPE  H12Y 2303   6.571   6.005   7.140  0.5394  2.9344 -1.1907
   18DOPE  C313 2304   6.692   5.871   7.016 -0.4125 -0.8892 -1.1205
   18DOPE  H13X 2305   6.798   5.868   6.982 -0.3621  0.4876 -1.1114
   18DOPE  H13Y 2306   6.673   5.769   7.056 -0.1565  0.0597  1.6595
   18DOPE  C314 2307   6.604   5.892   6.894 -0.2305  0.3201  0.0645
   18DOPE  H14X 2308   6.610   5.994   6.852 -1.8390 -0.6055 -2.6590
   18DOPE  H14Y 2309   6.499   5.868   6.921 -0.2407 -1.5936 -1.4264
   18DOPE  C315 2310   6.649   5.820   6.763 -0.2744  1.0450 -0.0445
   18DOPE  H15X 2311   6.748   5.855   6.727  1.1234 -2.6004 -0.1749
   18DOPE  H15Y 2312   6.570   5.841   6.687  0.3663  0.1236 -0.9966
   18DOPE  C316 2313   6.660   5.664   6.772 -0.3329  0.1632 -0.7854
   18DOPE  H16X 2314   6.571   5.631   6.829 -0.6668 -0.8125 -1.8211
   18DOPE  H16Y 2315   6.749   5.637   6.833 -0.5761  2.4524  0.6706
   18DOPE  C317 2316   6.667   5.599   6.639  0.4397 -0.2765 -0.8900
   18DOPE  H17X 2317   6.560   5.569   6.624  0.6129 -1.1379 -0.4912
   18DOPE  H17Y 2318   6.699   5.667   6.557  1.1809  1.6253  0.9236
   18DOPE  C318 2319   6.751   5.473   6.633  0.6056  0.0305 -0.0167
   18DOPE  H18X 2320   6.737   5.431   6.736 -0.2079 -2.7608 -1.1568
   18DOPE  H18Y 2321   6.718   5.401   6.555  2.1464 -2.5522  1.5594
   18DOPE  H18Z 2322   6.858   5.495   6.616  0.1980  2.2992  0.0973
   19DOPE     N 2323   0.446   5.503   8.432  0.6305  0.4731  0.5265
   19DOPE   HN1 2324   0.469   5.492   8.331  2.8070  4.4146  0.3976
   19DOPE   HN2 2325   0.345   5.502   8.456  0.7780 -0.6424  1.2056
   19DOPE   HN3 2326   0.479   5.600   8.448 -1.3852  1.2936  0.0007
   19DOPE   C12 2327   0.516   5.411   8.528  0.7889  1.3913  0.1942
   19DOPE  H12A 2328   0.493   5.308   8.493 -0.1698  1.2091  1.2811
   19DOPE  H12B 2329   0.466   5.430   8.625 -0.0333 -1.1636  0.3634
   19DOPE   C11 2330   0.667   5.444   8.542  0.5153  0.2562 -0.5197
   19DOPE  H11A 2331   0.681   5.553   8.560  0.2330  0.3777 -1.0053
   19DOPE  H11B 2332   0.719   5.418   8.448  1.7538  1.3021 -0.1467
   19DOPE     P 2333   0.866   5.324   8.658  0.1538 -0.2559 -0.1813
   19DOPE   O13 2334   0.889   5.236   8.774 -0.1167  0.1523 -0.1076
   19DOPE   O14 2335   0.954   5.437   8.626  0.9261 -0.0013 -0.3527
   19DOPE   O11 2336   0.870   5.221   8.534 -0.1790  0.0799 -0.6267
   19DOPE   O12 2337   0.710   5.365   8.653  0.0717  0.1971 -0.2552
   19DOPE    C1 2338   0.980   5.187   8.449  0.0559  1.0098  0.4530
   19DOPE    HA 2339   0.976   5.077   8.433 -1.8799  1.1653 -0.4376
   19DOPE    HB 2340   1.079   5.200   8.499  0.8820 -1.5977 -0.3089
   19DOPE    C2 2341   0.972   5.250   8.311  0.6595  0.3256 -0.4738
   19DOPE    HS 2342   1.055   5.203   8.256  1.6951  1.0108  0.4528
   19DOPE   O21 2343   0.980   5.391   8.320 -0.1178 -0.7034  0.5791
   19DOPE   C21 2344   1.102   5.439   8.342  0.4313 -0.3655  1.2181
   19DOPE   O22 2345   1.204   5.374   8.361  0.4339  0.2346  0.4721
   19DOPE   C22 2346   1.090   5.594   8.321 -0.5007  0.1837 -0.1663
   19DOPE   H2R 2347   1.193   5.632   8.300  0.1934 -0.6648  1.5104
   19DOPE   H2S 2348   1.063   5.646   8.415 -1.5695 -0.3260 -0.1835
   19DOPE    C3 2349   0.845   5.222   8.233 -0.1224 -0.2639  0.6655
   19DOPE    HX 2350   0.756   5.287   8.252 -1.5748 -1.4790 -1.4529
   19DOPE    HY 2351   0.817   5.117   8.253  0.5753 -0.5046  0.4052
   19DOPE   O31 2352   0.877   5.244   8.096 -0.2827 -0.0999 -0.2424
   19DOPE   C31 2353   0.781   5.199   8.013 -0.5425 -0.0687  0.2081
   19DOPE   O32 2354   0.675   5.141   8.041  0.3810 -0.6048  0.0542
   19DOPE   C32 2355   0.825   5.223   7.862 -0.5934  0.2138  0.0116
   19DOPE   H2X 2356   0.814   5.333   7.845  1.1783  0.3324 -0.5633
   19DOPE   H2Y 2357   0.929   5.189   7.847 -0.1424  0.5363  2.0568
   19DOPE   C23 2358   0.994   5.635   8.198  0.1300  0.5759 -0.6198
   19DOPE   H3R 2359   0.995   5.746   8.187 -1.0499  0.5830 -0.7373
   19DOPE   H3S 2360   0.892   5.595   8.217 -0.0110  0.0931 -2.2310
   19DOPE   C24 2361   1.030   5.579   8.058 -0.3553  0.2418  0.6732
   19DOPE   H4R 2362   1.018   5.470   8.043 -3.2248  0.6618 -0.7656
   19DOPE   H4S 2363   1.135   5.601   8.029 -0.5160 -0.7735 -0.7676
   19DOPE   C25 2364   0.930   5.644   7.970  0.0626 -0.7948 -0.8238
   19DOPE   H5R 2365   0.939   5.754   7.984 -1.7761 -0.8650  1.6320
   19DOPE   H5S 2366   0.828   5.629   8.011 -0.2041 -1.1070 -1.5782
   19DOPE   C26 2367   0.942   5.604   7.818 -0.0677  0.0340 -0.4199
   19DOPE   H6R 2368   0.914   5.497   7.809 -0.2757  0.0622 -0.1209
   19DOPE   H6S 2369   1.048   5.619   7.789 -0.3396  0.9116 -1.0087
   19DOPE   C27 2370   0.859   5.694   7.724  0.3884 -0.2318  0.9616
   19DOPE   H7R 2371   0.892   5.798   7.745 -2.1225  0.4103  2.0795
   19DOPE   H7S 2372   0.749   5.682   7.737  0.3409 -0.7783  0.1376
   19DOPE   C28 2373   0.895   5.666   7.579  0.0242  0.8936 -0.2356
   19DOPE   H8R 2374   1.006   5.677   7.570  0.0134  0.5872 -0.7960
   19DOPE   H8S 2375   0.834   5.739   7.522 -0.9470  0.0275 -0.3182
   19DOPE   C29 2376   0.877   5.526   7.526  0.1219  0.2406  0.3883
   19DOPE   H9R 2377   0.906   5.454   7.603 -1.1911 -0.3808  0.3285
   19DOPE  C210 2378   0.829   5.481   7.413 -0.1010  0.1805 -0.7616
   19DOPE  H10R 2379   0.819   5.372   7.402  1.5245  0.1243 -1.9562
   19DOPE  C211 2380   0.791   5.565   7.289  0.2633 -0.1494  0.1403
   19DOPE  H11R 2381   0.789   5.673   7.315 -0.5762  0.4010 -1.9642
   19DOPE  H11S 2382   0.684   5.553   7.261  0.1624  1.6173 -0.3893
   19DOPE  C212 2383   0.879   5.534   7.165 -0.1199  0.3727 -0.1717
   19DOPE  H12R 2384   0.986   5.541   7.193  0.0406 -2.1813  0.0610
   19DOPE  H12S 2385   0.862   5.608   7.083 -0.1443  0.2338 -0.2918
   19DOPE  C213 2386   0.852   5.400   7.096 -0.1475  0.7141 -0.5624
   19DOPE  H13R 2387   0.862   5.335   7.186 -1.2721  1.4166  0.0878
   19DOPE  H13S 2388   0.937   5.373   7.030  1.4017  2.2261  0.7085
   19DOPE  C214 2389   0.711   5.398   7.030 -0.2111 -0.0412  0.5366
   19DOPE  H14R 2390   0.695   5.489   6.967  0.9908 -0.1278  0.0834
   19DOPE  H14S 2391   0.641   5.414   7.115  0.4558 -2.5985  1.6739
   19DOPE  C215 2392   0.685   5.268   6.969 -0.1209 -0.0297  0.6458
   19DOPE  H15R 2393   0.760   5.193   7.002 -0.2763 -0.0295  1.0033
   19DOPE  H15S 2394   0.721   5.275   6.864 -0.1154 -0.4134  0.6203
   19DOPE  C216 2395   0.536   5.215   6.968  0.0922  0.2870  0.9981
   19DOPE  H16R 2396   0.525   5.148   7.056  0.1140 -0.3000  0.5538
   19DOPE  H16S 2397   0.519   5.155   6.876  0.4887  1.7075 -0.0507
   19DOPE  C217 2398   0.428   5.330   6.954 -0.8597 -0.3725  0.0755
   19DOPE  H17R 2399   0.450   5.421   7.014 -0.3883 -0.7058  0.4187
   19DOPE  H17S 2400   0.330   5.286   6.982 -0.7210 -2.2436 -2.0953
   19DOPE  C218 2401   0.426   5.387   6.812  0.1155  0.0732  0.0929
   19DOPE  H18R 2402   0.527   5.432   6.799 -0.6280  2.2103  1.2546
   19DOPE  H18S 2403   0.349   5.463   6.788  0.8720  1.0689  0.7357
   19DOPE  H18T 2404   0.415   5.313   6.730  0.1396  2.2577 -1.9919
   19DOPE   C33 2405   0.727   5.167   7.760 -0.7351  0.6725  0.6252
   19DOPE   H3X 2406   0.627   5.214   7.770 -0.5606  1.0830  0.4675
   19DOPE   H3Y 2407   0.727   5.058   7.782  0.0629  0.5861  0.2454
   19DOPE   C34 2408   0.772   5.176   7.613 -0.1613  0.0714 -0.2093
   19DOPE   H4X 2409   0.686   5.171   7.542 -0.0145  0.0520 -0.3848
   19DOPE   H4Y 2410   0.832   5.269   7.600 -0.9451  0.5655 -0.3674
   19DOPE   C35 2411   0.870   5.056   7.583 -0.1649  0.1954 -0.3222
   19DOPE   H5X 2412   0.823   4.956   7.570 -2.8608  1.4716 -1.3185
   19DOPE   H5Y 2413   0.946   5.055   7.663 -1.9206 -0.1613  1.4063
   19DOPE   C36 2414   0.948   5.098   7.455 -0.2748  0.4152  0.6653
   19DOPE   H6X 2415   1.001   5.191   7.482  0.2491  0.6183 -0.9406
   19DOPE   H6Y 2416   0.868   5.120   7.380 -0.9158 -2.6388  0.3022
   19DOPE   C37 2417   1.034   4.992   7.390  0.2338 -1.2311 -0.0802
   19DOPE   H7X 2418   1.125   4.983   7.453 -0.2592 -2.0210  0.5411
   19DOPE   H7Y 2419   0.977   4.899   7.367 -0.3556 -0.8508 -0.1712
   19DOPE   C38 2420   1.083   5.036   7.251 -0.0739  0.2397 -0.1346
   19DOPE   H8X 2421   1.173   4.979   7.222  0.5653  1.6707 -1.0455
   19DOPE   H8Y 2422   1.123   5.137   7.270  0.6957 -0.1883  0.5916
   19DOPE   C39 2423   0.979   5.049   7.140  0.4616  0.0179 -0.0711
   19DOPE   H9X 2424   0.890   5.106   7.168 -0.5749 -1.4930 -0.1668
   19DOPE  C310 2425   0.980   4.981   7.029  0.0400  0.4682  0.3176
   19DOPE  H10X 2426   0.910   5.002   6.947 -0.0333  1.5398  0.6480
   19DOPE  C311 2427   1.080   4.869   7.014  0.3747 -0.7500  0.1053
   19DOPE  H11X 2428   1.178   4.919   7.000  0.3681 -0.8387 -0.2702
   19DOPE  H11Y 2429   1.083   4.805   7.104 -2.6933  1.4193  1.9502
   19DOPE  C312 2430   1.077   4.782   6.892  0.2807  0.0832 -0.7208
   19DOPE  H12X 2431   0.972   4.760   6.863  0.4725  2.4164 -3.6442
   19DOPE  H12Y 2432   1.131   4.685   6.895  1.5778  0.7986 -0.1355
   19DOPE  C313 2433   1.131   4.854   6.761 -0.3848  0.3534 -0.6229
   19DOPE  H13X 2434   1.069   4.946   6.757 -0.8363  0.1305  0.7851
   19DOPE  H13Y 2435   1.240   4.865   6.775  0.1678 -4.3312  0.6019
   19DOPE  C314 2436   1.111   4.770   6.634 -1.4000  0.8025 -0.3378
   19DOPE  H14X 2437   1.136   4.837   6.548 -0.0040  0.4550 -0.2178
   19DOPE  H14Y 2438   1.004   4.750   6.613 -0.7738 -2.1406 -1.1710
   19DOPE  C315 2439   1.205   4.642   6.626 -0.5604 -0.2609 -0.4919
   19DOPE  H15X 2440   1.175   4.601   6.527 -0.8582  0.9309 -0.9157
   19DOPE  H15Y 2441   1.200   4.584   6.721  0.5999  0.8266  0.2685
   19DOPE  C316 2442   1.348   4.686   6.610 -0.0101 -0.2727  0.2233
   19DOPE  H16X 2443   1.391   4.680   6.712  0.5370  1.1790  0.1080
   19DOPE  H16Y 2444   1.345   4.790   6.570  0.3372 -0.6402 -0.7857
   19DOPE  C317 2445   1.429   4.596   6.516  0.0622 -0.9697 -0.0925
   19DOPE  H17X 2446   1.411   4.491   6.545  1.0534 -1.1654 -0.1459
   19DOPE  H17Y 2447   1.398   4.607   6.410  0.1700  1.0425  0.0373
   19DOPE  C318 2448   1.582   4.608   6.520 -0.0252  0.3422 -0.9061
   19DOPE  H18X 2449   1.633   4.530   6.459  2.6085  1.9054 -0.8463
   19DOPE  H18Y 2450   1.622   4.704   6.480 -0.5804  0.4732 -1.1539
   19DOPE  H18Z 2451   1.618   4.603   6.625  0.6072 -0.1870 -1.1397
   20DOPE     N 2452   5.456   1.144   8.126 -0.2778  0.5996 -0.1696
   20DOPE   HN1 2453   5.424   1.046   8.111 -0.5931  0.3943  1.6792
   20DOPE   HN2 2454   5.553   1.158   8.093 -0.7645  1.2007 -1.4239
   20DOPE   HN3 2455   5.438   1.172   8.224 -0.8503  0.1876 -0.1464
   20DOPE   C12 2456   5.373   1.237   8.043  0.1611  0.7649 -0.0744
   20DOPE  H12A 2457   5.357   1.178   7.950 -0.7216 -2.3810  1.9130
   20DOPE  H12B 2458   5.439   1.324   8.018  0.4231  0.2964 -1.0954
   20DOPE   C11 2459   5.246   1.272   8.107 -0.7537  0.1634 -0.2024
   20DOPE  H11A 2460   5.173   1.188   8.113  0.0156 -0.5555 -0.6854
   20DOPE  H11B 2461   5.199   1.346   8.038 -0.5136  2.3027  1.7860
   20DOPE     P 2462   5.190   1.442   8.304  0.2148  0.0048 -0.1487
   20DOPE   O13 2463   5.281   1.559   8.322 -0.0742 -0.3289 -0.1001
   20DOPE   O14 2464   5.126   1.386   8.426  0.0645  0.1076 -0.0795
   20DOPE   O11 2465   5.084   1.476   8.185 -0.2208  0.2570 -0.2857
   20DOPE   O12 2466   5.279   1.329   8.235  0.2402 -0.3916  0.2461
   20DOPE    C1 2467   5.069   1.619   8.143 -0.6946  0.4161  1.6142
   20DOPE    HA 2468   5.096   1.696   8.219  0.3830  1.2415  0.4321
   20DOPE    HB 2469   4.959   1.632   8.129 -1.6396 -4.4890  2.5929
   20DOPE    C2 2470   5.132   1.646   8.004 -0.3914  0.2119  0.2429
   20DOPE    HS 2471   5.082   1.739   7.971  1.2091  0.3399 -1.9812
   20DOPE   O21 2472   5.103   1.536   7.915 -0.1312  0.6659 -0.5022
   20DOPE   C21 2473   4.983   1.521   7.878  0.4935  0.2265  0.5982
   20DOPE   O22 2474   4.889   1.604   7.873 -0.4502 -0.2375  0.2671
   20DOPE   C22 2475   4.973   1.375   7.835  0.0901 -0.1837  0.8185
   20DOPE   H2R 2476   5.024   1.298   7.897  0.9045  0.3379  0.8009
   20DOPE   H2S 2477   5.024   1.375   7.736 -0.3062  1.8905  0.5655
   20DOPE    C3 2478   5.283   1.663   8.007 -0.1284 -0.3105  0.2946
   20DOPE    HX 2479   5.331   1.569   8.043 -0.6279 -1.2380 -1.3429
   20DOPE    HY 2480   5.301   1.756   8.065  1.9124  0.4693 -1.4157
   20DOPE   O31 2481   5.325   1.699   7.871  0.5075 -0.0734  0.0949
   20DOPE   C31 2482   5.354   1.599   7.786  0.3576  0.1171  0.3721
   20DOPE   O32 2483   5.392   1.488   7.814  0.3976 -0.2288  0.2853
   20DOPE   C32 2484   5.308   1.648   7.650  0.5896  0.6473 -1.0017
   20DOPE   H2X 2485   5.230   1.727   7.656 -0.5741 -0.2148 -3.6018
   20DOPE   H2Y 2486   5.395   1.694   7.598  0.6974  0.5365 -0.9180
   20DOPE   C23 2487   4.822   1.332   7.813  0.2328 -0.7313 -0.0938
   20DOPE   H3R 2488   4.756   1.411   7.774 -0.5426 -1.6318 -0.6429
   20DOPE   H3S 2489   4.773   1.293   7.904  2.9344  0.4472  1.9980
   20DOPE   C24 2490   4.819   1.225   7.699  0.9719 -0.3616 -0.2050
   20DOPE   H4R 2491   4.738   1.151   7.719  1.1484 -1.0324 -1.8467
   20DOPE   H4S 2492   4.912   1.164   7.698  0.5142 -1.0886 -1.6773
   20DOPE   C25 2493   4.802   1.288   7.560  0.5246 -0.3483 -0.0482
   20DOPE   H5R 2494   4.889   1.352   7.533  0.2414 -0.4248 -1.2114
   20DOPE   H5S 2495   4.709   1.347   7.557 -0.9404 -2.2204  3.1847
   20DOPE   C26 2496   4.784   1.184   7.450 -0.3441  0.1321  0.1395
   20DOPE   H6R 2497   4.688   1.129   7.462 -0.6517  0.1203 -1.9133
   20DOPE   H6S 2498   4.862   1.105   7.445 -0.5671 -0.0416 -1.0498
   20DOPE   C27 2499   4.773   1.249   7.311  0.4599  0.9857 -0.9476
   20DOPE   H7R 2500   4.872   1.295   7.288  0.5903  1.8845  1.1948
   20DOPE   H7S 2501   4.692   1.325   7.318 -0.5055 -0.0674 -0.3309
   20DOPE   C28 2502   4.749   1.143   7.199  0.3129 -0.4163 -0.5362
   20DOPE   H8R 2503   4.640   1.123   7.204 -0.0220  1.0158 -1.5528
   20DOPE   H8S 2504   4.803   1.050   7.228  0.4024 -0.2916 -0.3024
   20DOPE   C29 2505   4.797   1.194   7.067  0.4460 -0.2906  0.3230
   20DOPE   H9R 2506   4.719   1.256   7.021 -0.9285  0.4125  3.3236
   20DOPE  C210 2507   4.905   1.144   7.002  0.1095 -0.4560  0.0776
   20DOPE  H10R 2508   4.910   1.181   6.898 -0.7569  1.5630  0.6943
   20DOPE  C211 2509   4.998   1.034   7.054  0.2402  0.3203 -0.5451
   20DOPE  H11R 2510   5.039   0.976   6.969 -0.1153  0.1890 -0.6286
   20DOPE  H11S 2511   4.935   0.953   7.096  0.4064 -0.9124 -2.5668
   20DOPE  C212 2512   5.103   1.079   7.163 -0.7266  0.0249  0.6112
   20DOPE  H12R 2513   5.067   1.165   7.223 -1.5639  0.0654  0.0621
   20DOPE  H12S 2514   5.193   1.111   7.106 -0.3298 -0.5177  0.9263
   20DOPE  C213 2515   5.163   0.962   7.242  0.0619 -0.5681 -0.3788
   20DOPE  H13R 2516   5.163   0.872   7.177 -1.3808 -0.8670  0.0074
   20DOPE  H13S 2517   5.100   0.946   7.332 -1.5294 -2.8817 -1.7949
   20DOPE  C214 2518   5.299   1.007   7.297  0.3606 -0.2984  0.0257
   20DOPE  H14R 2519   5.362   1.056   7.220  0.4451 -0.1619  0.1799
   20DOPE  H14S 2520   5.356   0.921   7.340  0.0535  0.1092  1.3030
   20DOPE  C215 2521   5.306   1.111   7.414  0.2662  0.3729 -0.2186
   20DOPE  H15R 2522   5.260   1.208   7.388  3.0851  1.5878 -1.0650
   20DOPE  H15S 2523   5.413   1.136   7.426  0.8235 -1.0605 -1.8354
   20DOPE  C216 2524   5.239   1.058   7.545  0.0633 -0.4203  0.4299
   20DOPE  H16R 2525   5.264   0.949   7.551 -1.8355 -0.9806 -0.8919
   20DOPE  H16S 2526   5.128   1.056   7.548  0.0516 -2.7594  1.0510
   20DOPE  C217 2527   5.297   1.127   7.673 -0.3762  0.3768 -0.5704
   20DOPE  H17R 2528   5.243   1.099   7.766 -1.0129  0.4315 -0.9188
   20DOPE  H17S 2529   5.296   1.236   7.654  1.5424  0.5717  0.2308
   20DOPE  C218 2530   5.448   1.078   7.690 -0.0473 -0.6005 -0.0553
   20DOPE  H18R 2531   5.482   1.129   7.783 -1.8300 -1.6668  1.2587
   20DOPE  H18S 2532   5.516   1.124   7.616 -0.3751  0.7173  0.4376
   20DOPE  H18T 2533   5.458   0.968   7.698  0.0245 -0.5952 -0.0750
   20DOPE   C33 2534   5.250   1.529   7.560 -0.8506 -0.0260  0.9636
   20DOPE   H3X 2535   5.175   1.469   7.615 -1.7002 -2.0535 -2.1677
   20DOPE   H3Y 2536   5.338   1.467   7.531  0.9387  3.3029 -1.3730
   20DOPE   C34 2537   5.208   1.587   7.419 -0.1208  0.0720 -0.1999
   20DOPE   H4X 2538   5.136   1.666   7.449 -2.2388 -2.3563  1.6221
   20DOPE   H4Y 2539   5.288   1.642   7.366  0.6362  0.9948  1.7834
   20DOPE   C35 2540   5.150   1.482   7.326  0.3548 -0.3515 -0.1015
   20DOPE   H5X 2541   5.061   1.445   7.380 -0.0038  0.5620 -0.0553
   20DOPE   H5Y 2542   5.222   1.396   7.329  0.5874 -0.2214 -1.3711
   20DOPE   C36 2543   5.117   1.519   7.179  0.2264  0.4851 -0.2666
   20DOPE   H6X 2544   5.084   1.624   7.184 -0.2062  0.2926  1.3153
   20DOPE   H6Y 2545   5.031   1.458   7.143 -1.1785  3.8868 -3.3008
   20DOPE   C37 2546   5.240   1.501   7.089  0.6155 -0.2174  0.2477
   20DOPE   H7X 2547   5.317   1.567   7.133 -0.3955  0.4807  1.0196
   20DOPE   H7Y 2548   5.271   1.395   7.101 -0.3048 -0.5205  0.0709
   20DOPE   C38 2549   5.211   1.549   6.943 -0.4076 -0.0223 -0.3862
   20DOPE   H8X 2550   5.301   1.537   6.879 -0.5532 -2.8022 -0.2113
   20DOPE   H8Y 2551   5.189   1.657   6.957  0.2964  0.0230  0.3902
   20DOPE   C39 2552   5.096   1.481   6.878  0.5767 -0.1465  0.6872
   20DOPE   H9X 2553   5.001   1.505   6.928 -0.6547 -0.9337 -1.1727
   20DOPE  C310 2554   5.093   1.376   6.790  0.6069  0.4466 -0.0556
   20DOPE  H10X 2555   4.999   1.329   6.758  1.1235 -2.1214  1.8227
   20DOPE  C311 2556   5.217   1.303   6.734  0.0732  0.3754 -0.0797
   20DOPE  H11X 2557   5.297   1.379   6.722 -1.2754  1.5681 -2.1715
   20DOPE  H11Y 2558   5.254   1.227   6.806  1.0476 -0.1489 -1.1102
   20DOPE  C312 2559   5.164   1.232   6.602 -0.3128 -0.0658 -0.6154
   20DOPE  H12X 2560   5.136   1.315   6.533 -1.5137  0.0025 -0.0756
   20DOPE  H12Y 2561   5.071   1.174   6.618 -1.0625  0.9303 -1.2242
   20DOPE  C313 2562   5.274   1.148   6.542  0.1001  0.4998 -0.7196
   20DOPE  H13X 2563   5.358   1.212   6.508  0.2781 -0.6842 -2.6492
   20DOPE  H13Y 2564   5.304   1.074   6.619  2.7070 -0.7397 -2.7728
   20DOPE  C314 2565   5.218   1.081   6.421 -0.4936  0.0259  1.1858
   20DOPE  H14X 2566   5.167   1.164   6.368  1.4690  0.4858 -0.0764
   20DOPE  H14Y 2567   5.146   0.997   6.434 -0.6519  0.3498  2.5074
   20DOPE  C315 2568   5.333   1.038   6.319  0.8279 -0.0636 -0.1958
   20DOPE  H15X 2569   5.373   0.943   6.360  0.7042 -0.4616 -0.9705
   20DOPE  H15Y 2570   5.417   1.111   6.323  1.7638 -1.0867 -0.6319
   20DOPE  C316 2571   5.287   1.006   6.176 -0.1100  0.1166  0.1347
   20DOPE  H16X 2572   5.255   1.102   6.130 -1.5614 -0.1443  0.5731
   20DOPE  H16Y 2573   5.193   0.948   6.165 -0.9888  1.5779 -0.3863
   20DOPE  C317 2574   5.393   0.939   6.087 -0.7658 -0.4288  0.2611
   20DOPE  H17X 2575   5.491   0.991   6.102 -0.2995 -1.2425  0.1182
   20DOPE  H17Y 2576   5.412   0.840   6.133  0.8161  0.0974  0.8438
   20DOPE  C318 2577   5.346   0.935   5.944 -0.2571 -0.3030 -0.7895
   20DOPE  H18X 2578   5.322   1.037   5.908  0.1142 -0.8758 -2.7853
   20DOPE  H18Y 2579   5.428   0.890   5.884  2.5662 -0.0151  2.5320
   20DOPE  H18Z 2580   5.254   0.874   5.947 -0.0585 -0.5665  0.2801
   21DOPE     N 2581   2.511   2.607   9.563 -0.8875  0.6322 -0.0639
   21DOPE   HN1 2582   2.434   2.567   9.506 -0.7313  1.1252 -0.6338
   21DOPE   HN2 2583   2.583   2.533   9.575 -1.4634  0.1580  0.5206
   21DOPE   HN3 2584   2.483   2.637   9.658  2.0411  0.1858  1.0528
   21DOPE   C12 2585   2.568   2.722   9.498  0.0797 -0.1142  0.1727
   21DOPE  H12A 2586   2.630   2.688   9.412 -0.6197  0.6546 -0.6647
   21DOPE  H12B 2587   2.643   2.774   9.561  0.4411  0.2565 -0.5564
   21DOPE   C11 2588   2.450   2.810   9.451 -0.0712  0.2410  0.5220
   21DOPE  H11A 2589   2.490   2.888   9.384 -2.0397  0.1403 -0.8492
   21DOPE  H11B 2590   2.394   2.853   9.537 -2.3575 -2.7219  0.6818
   21DOPE     P 2591   2.268   2.790   9.260  0.2324 -0.5958  0.1776
   21DOPE   O13 2592   2.237   2.929   9.293  0.7067  0.3064  0.2121
   21DOPE   O14 2593   2.158   2.701   9.227  0.4046  0.0890  0.4487
   21DOPE   O11 2594   2.370   2.792   9.140 -0.5690  0.2927 -0.2904
   21DOPE   O12 2595   2.354   2.732   9.378 -0.0660 -0.3842 -0.4764
   21DOPE    C1 2596   2.440   2.673   9.090  0.4300 -0.0978  1.3145
   21DOPE    HA 2597   2.377   2.583   9.104 -1.3813  0.3606 -2.5790
   21DOPE    HB 2598   2.537   2.657   9.142 -0.4500 -0.0269  3.0331
   21DOPE    C2 2599   2.470   2.683   8.942 -0.4198 -0.5953 -0.6592
   21DOPE    HS 2600   2.526   2.590   8.918 -2.2057 -1.7297 -0.6328
   21DOPE   O21 2601   2.553   2.802   8.932 -0.5301  0.1127  1.1449
   21DOPE   C21 2602   2.621   2.806   8.820 -0.0310  0.2763 -0.3224
   21DOPE   O22 2603   2.666   2.709   8.761 -0.5148 -0.3457 -0.1640
   21DOPE   C22 2604   2.643   2.956   8.778  0.5636  0.4276 -0.1678
   21DOPE   H2R 2605   2.650   3.022   8.867 -2.0055  0.5473  0.0126
   21DOPE   H2S 2606   2.550   2.985   8.725 -0.2257 -2.4417 -0.5395
   21DOPE    C3 2607   2.339   2.700   8.864 -0.2681  0.3603 -0.0561
   21DOPE    HX 2608   2.301   2.799   8.897  0.8733 -0.2327  3.3982
   21DOPE    HY 2609   2.259   2.633   8.901  0.4395 -2.2151 -2.7953
   21DOPE   O31 2610   2.354   2.703   8.722  0.2073  0.7780 -0.7880
   21DOPE   C31 2611   2.341   2.582   8.666 -0.1120  0.5211  0.0102
   21DOPE   O32 2612   2.307   2.485   8.727 -0.2593 -0.1274  0.4266
   21DOPE   C32 2613   2.361   2.578   8.513  0.1016 -0.4751 -0.3353
   21DOPE   H2X 2614   2.312   2.488   8.470 -0.2134 -1.9344  2.8240
   21DOPE   H2Y 2615   2.320   2.672   8.469 -0.4825 -0.0553  1.0444
   21DOPE   C23 2616   2.756   2.959   8.680  0.3824  0.7607  0.0847
   21DOPE   H3R 2617   2.739   2.903   8.585  1.0351 -0.5808  0.7468
   21DOPE   H3S 2618   2.850   2.914   8.719  0.0949  0.6214  0.6233
   21DOPE   C24 2619   2.794   3.105   8.642  0.9186 -0.6212  0.1457
   21DOPE   H4R 2620   2.879   3.106   8.570  0.2589 -0.5024 -0.6498
   21DOPE   H4S 2621   2.814   3.160   8.736  1.5057  2.2810 -1.5175
   21DOPE   C25 2622   2.677   3.190   8.575 -0.3025 -0.1095 -0.1612
   21DOPE   H5R 2623   2.709   3.296   8.577  1.7807 -0.6939  0.3303
   21DOPE   H5S 2624   2.585   3.189   8.638  0.5196 -0.1664  1.0729
   21DOPE   C26 2625   2.665   3.160   8.424 -0.3031 -0.3956  0.2353
   21DOPE   H6R 2626   2.611   3.064   8.408 -1.1336  0.5885 -4.1670
   21DOPE   H6S 2627   2.770   3.150   8.388 -0.7154  0.4999 -1.3044
   21DOPE   C27 2628   2.609   3.288   8.345  0.1804  0.5715  0.0724
   21DOPE   H7R 2629   2.658   3.375   8.393 -0.1222 -0.0755  1.6143
   21DOPE   H7S 2630   2.502   3.307   8.365  0.6735  3.7030  0.1796
   21DOPE   C28 2631   2.622   3.274   8.191 -0.0547  0.2243  0.4315
   21DOPE   H8R 2632   2.544   3.199   8.166  0.5478 -0.4318  0.5105
   21DOPE   H8S 2633   2.724   3.235   8.169  0.0110 -0.0005  1.1314
   21DOPE   C29 2634   2.617   3.407   8.125 -0.8491 -0.7451 -0.0704
   21DOPE   H9R 2635   2.689   3.478   8.169 -2.9187  0.2177  1.9581
   21DOPE  C210 2636   2.523   3.449   8.039 -0.3216 -0.0636 -0.4337
   21DOPE  H10R 2637   2.535   3.548   7.993 -0.7572 -1.5527 -4.0698
   21DOPE  C211 2638   2.399   3.382   7.985  0.3172 -0.6218 -0.0829
   21DOPE  H11R 2639   2.319   3.459   7.974  0.3903 -0.8725 -3.2506
   21DOPE  H11S 2640   2.376   3.303   8.060  1.8825  0.3786  1.5131
   21DOPE  C212 2641   2.429   3.323   7.849 -0.1077 -0.5002 -0.0607
   21DOPE  H12R 2642   2.337   3.271   7.813  0.6210 -1.0214 -1.2214
   21DOPE  H12S 2643   2.499   3.238   7.858 -0.8665 -1.3694 -1.7244
   21DOPE  C213 2644   2.453   3.429   7.735 -0.1078 -0.6059  0.0030
   21DOPE  H13R 2645   2.542   3.490   7.763 -0.6180  0.9981 -1.6985
   21DOPE  H13S 2646   2.365   3.494   7.718 -0.3478 -0.4758  1.6043
   21DOPE  C214 2647   2.516   3.373   7.606 -1.0885  0.5429 -0.1642
   21DOPE  H14R 2648   2.614   3.328   7.632 -0.7990  0.7300 -0.8787
   21DOPE  H14S 2649   2.530   3.454   7.530 -0.2284  0.7147  0.1689
   21DOPE  C215 2650   2.438   3.263   7.536  0.4520 -0.3279 -0.1133
   21DOPE  H15R 2651   2.336   3.299   7.512  0.4922 -0.7157 -0.9138
   21DOPE  H15S 2652   2.433   3.177   7.606 -0.8018 -0.3316 -0.1713
   21DOPE  C216 2653   2.492   3.215   7.405  0.2353  0.5089  0.1027
   21DOPE  H16R 2654   2.522   3.108   7.397  1.7965  1.0128 -1.4308
   21DOPE  H16S 2655   2.578   3.277   7.372  0.3202 -0.9487 -2.7364
   21DOPE  C217 2656   2.396   3.236   7.285 -0.2343  0.0936 -0.1024
   21DOPE  H17R 2657   2.359   3.341   7.279 -1.3857 -0.3692 -2.5332
   21DOPE  H17S 2658   2.313   3.163   7.281 -1.2792  1.2247 -4.4519
   21DOPE  C218 2659   2.471   3.217   7.150 -0.4517 -0.7722 -0.7783
   21DOPE  H18R 2660   2.548   3.296   7.132 -0.2579 -0.2578  1.8782
   21DOPE  H18S 2661   2.392   3.245   7.078  0.8355 -0.0696 -1.9703
   21DOPE  H18T 2662   2.522   3.118   7.153 -1.3374 -1.3750  4.2583
   21DOPE   C33 2663   2.517   2.566   8.478  0.5060  0.4814 -0.1281
   21DOPE   H3X 2664   2.574   2.496   8.542  0.1944  0.6186  0.3051
   21DOPE   H3Y 2665   2.565   2.666   8.486  1.4273  0.0872 -0.6128
   21DOPE   C34 2666   2.528   2.531   8.329 -0.7833  0.0129  0.6543
   21DOPE   H4X 2667   2.487   2.430   8.307  2.4860 -1.1856 -0.7062
   21DOPE   H4Y 2668   2.478   2.614   8.275  1.0379  0.4880 -0.3832
   21DOPE   C35 2669   2.679   2.521   8.292  0.5186  0.4316  0.6212
   21DOPE   H5X 2670   2.730   2.426   8.318  0.1399  0.1966  0.5091
   21DOPE   H5Y 2671   2.739   2.604   8.336 -0.0874  1.5908 -0.6730
   21DOPE   C36 2672   2.699   2.533   8.139 -0.9082 -0.5992 -0.6667
   21DOPE   H6X 2673   2.809   2.534   8.124 -0.5873 -1.3090  1.3289
   21DOPE   H6Y 2674   2.666   2.630   8.096 -0.6234 -0.1808  0.0249
   21DOPE   C37 2675   2.640   2.422   8.050  0.1236  0.0371 -0.1065
   21DOPE   H7X 2676   2.664   2.322   8.093  1.8027  0.1852 -0.6170
   21DOPE   H7Y 2677   2.529   2.414   8.048  0.1666 -0.9557  0.5860
   21DOPE   C38 2678   2.694   2.407   7.903  0.4930 -1.0006  0.9247
   21DOPE   H8X 2679   2.641   2.320   7.858 -1.0320 -0.8363  2.2829
   21DOPE   H8Y 2680   2.804   2.399   7.914  0.7406  0.1448 -0.5265
   21DOPE   C39 2681   2.661   2.531   7.826  0.6138  0.1216  0.4049
   21DOPE   H9X 2682   2.639   2.621   7.885  0.7837  0.6573 -0.3326
   21DOPE  C310 2683   2.675   2.547   7.696  1.1445  0.3037  0.2947
   21DOPE  H10X 2684   2.647   2.643   7.649  1.6885 -0.7995 -2.4774
   21DOPE  C311 2685   2.713   2.441   7.599  0.5909  0.0520 -0.3299
   21DOPE  H11X 2686   2.733   2.344   7.651  0.2161 -0.2455 -0.7335
   21DOPE  H11Y 2687   2.636   2.422   7.521 -0.1333  3.9363 -0.7344
   21DOPE  C312 2688   2.848   2.482   7.541  0.3903  0.7500  0.1085
   21DOPE  H12X 2689   2.928   2.469   7.617 -1.4182 -1.6377  1.7743
   21DOPE  H12Y 2690   2.860   2.589   7.514  1.3543  0.6405  0.0529
   21DOPE  C313 2691   2.890   2.389   7.425 -0.1235 -0.2652 -0.4263
   21DOPE  H13X 2692   2.995   2.407   7.393  0.3955 -3.8193 -1.1067
   21DOPE  H13Y 2693   2.907   2.287   7.464 -0.1635  0.0916  0.5799
   21DOPE  C314 2694   2.794   2.396   7.297 -0.0077 -0.1425 -0.3592
   21DOPE  H14X 2695   2.765   2.503   7.287  0.7033 -0.0583 -1.8070
   21DOPE  H14Y 2696   2.700   2.340   7.320 -0.2791  0.3355 -0.3017
   21DOPE  C315 2697   2.859   2.348   7.167 -0.2233 -0.7604 -0.1154
   21DOPE  H15X 2698   2.884   2.241   7.184 -2.1816 -1.1426  0.6746
   21DOPE  H15Y 2699   2.953   2.407   7.164 -0.3289  0.0862  4.8879
   21DOPE  C316 2700   2.770   2.358   7.050  0.9469 -0.0524 -0.0037
   21DOPE  H16X 2701   2.722   2.457   7.031  0.9288  0.1190  0.8977
   21DOPE  H16Y 2702   2.681   2.292   7.056  0.5659  0.2918 -1.3331
   21DOPE  C317 2703   2.856   2.308   6.930  0.5524 -0.3764  0.6490
   21DOPE  H17X 2704   2.955   2.359   6.928  1.7073 -2.4979  0.8594
   21DOPE  H17Y 2705   2.884   2.201   6.947 -1.0520 -0.9487 -0.1851
   21DOPE  C318 2706   2.792   2.337   6.795  0.1753 -0.3113 -1.2260
   21DOPE  H18X 2707   2.682   2.332   6.808  0.0604  0.5456 -1.8165
   21DOPE  H18Y 2708   2.832   2.429   6.747 -0.9347  0.1235 -1.3504
   21DOPE  H18Z 2709   2.833   2.254   6.734  0.5639 -1.7431  0.8754
   22DOPE     N 2710   1.357   6.094   9.629  0.3096 -0.3042  0.1630
   22DOPE   HN1 2711   1.313   6.106   9.722  1.5675 -0.3771  0.7885
   22DOPE   HN2 2712   1.301   6.034   9.564 -1.6593  1.1591  0.4246
   22DOPE   HN3 2713   1.455   6.059   9.636  0.1098 -1.7510 -2.6781
   22DOPE   C12 2714   1.366   6.229   9.562  0.3705 -0.4131  0.2185
   22DOPE  H12A 2715   1.399   6.300   9.640  0.4194 -1.7103  1.4265
   22DOPE  H12B 2716   1.261   6.262   9.543 -0.7181 -1.6671  3.3607
   22DOPE   C11 2717   1.459   6.235   9.442 -0.9678  0.1974 -0.3114
   22DOPE  H11A 2718   1.563   6.229   9.482 -0.0804 -0.4461 -2.5485
   22DOPE  H11B 2719   1.461   6.337   9.398  4.0243 -0.0356 -1.2574
   22DOPE     P 2720   1.354   6.147   9.224  0.0027 -0.1610  0.1424
   22DOPE   O13 2721   1.210   6.150   9.265  0.4554 -0.1053  0.0948
   22DOPE   O14 2722   1.402   6.040   9.134 -0.5248 -0.0155 -0.1074
   22DOPE   O11 2723   1.385   6.282   9.163 -0.5343 -0.3853  0.1112
   22DOPE   O12 2724   1.442   6.128   9.349  0.1455  0.2044 -0.0944
   22DOPE    C1 2725   1.504   6.317   9.102  0.3426 -0.4233  0.2536
   22DOPE    HA 2726   1.594   6.260   9.133  0.7503  0.3289  0.4813
   22DOPE    HB 2727   1.530   6.421   9.131 -1.0121 -0.0305  0.1491
   22DOPE    C2 2728   1.486   6.314   8.945  0.2696  0.0806  0.3816
   22DOPE    HS 2729   1.564   6.387   8.914  0.3696 -0.7052 -1.3196
   22DOPE   O21 2730   1.353   6.335   8.896  0.1051  0.1968  0.3148
   22DOPE   C21 2731   1.310   6.454   8.930 -0.1420  0.2199 -0.1486
   22DOPE   O22 2732   1.382   6.535   8.988 -0.6143  0.2434 -0.2204
   22DOPE   C22 2733   1.170   6.473   8.888 -0.3289  0.9341 -0.6810
   22DOPE   H2R 2734   1.135   6.540   8.969  2.4847 -0.1776  1.6412
   22DOPE   H2S 2735   1.109   6.381   8.897  1.8268 -0.6675 -1.5985
   22DOPE    C3 2736   1.543   6.180   8.888  0.4434 -0.8850  0.1937
   22DOPE    HX 2737   1.464   6.101   8.890  0.3379 -1.0470 -3.5636
   22DOPE    HY 2738   1.630   6.154   8.952  1.0125  1.4454  0.4799
   22DOPE   O31 2739   1.593   6.198   8.755  0.5848  0.2028  0.7304
   22DOPE   C31 2740   1.648   6.094   8.692  0.8389  0.9440  0.3836
   22DOPE   O32 2741   1.662   5.987   8.756 -0.4456  0.2725  0.0319
   22DOPE   C32 2742   1.688   6.126   8.547  0.1596 -0.1008  0.0256
   22DOPE   H2X 2743   1.594   6.141   8.491  1.1756 -0.2746 -1.8127
   22DOPE   H2Y 2744   1.759   6.212   8.550  0.7600 -0.6138  2.3420
   22DOPE   C23 2745   1.159   6.519   8.743 -0.0729 -0.7588 -0.0164
   22DOPE   H3R 2746   1.234   6.600   8.725  0.7013 -1.2588  0.8554
   22DOPE   H3S 2747   1.061   6.572   8.741  0.1143 -0.3330  1.3688
   22DOPE   C24 2748   1.143   6.414   8.632  0.5388  0.6660  0.2666
   22DOPE   H4R 2749   1.066   6.341   8.665  0.1518  1.6566  1.6169
   22DOPE   H4S 2750   1.241   6.363   8.615  0.3194  0.9398 -2.1029
   22DOPE   C25 2751   1.109   6.471   8.491  0.0865  0.1824  0.1123
   22DOPE   H5R 2752   1.196   6.536   8.467  2.4522 -1.3214  3.7032
   22DOPE   H5S 2753   1.018   6.534   8.488  0.0912  0.1439 -1.6421
   22DOPE   C26 2754   1.100   6.361   8.386 -0.1651  0.1998  0.3104
   22DOPE   H6R 2755   1.018   6.287   8.394  0.2785 -0.7374 -2.7299
   22DOPE   H6S 2756   1.192   6.299   8.381  0.6698  1.4619 -3.4018
   22DOPE   C27 2757   1.078   6.425   8.247  0.9340  0.1293 -0.2588
   22DOPE   H7R 2758   1.162   6.494   8.225  1.6179 -1.2705 -2.2991
   22DOPE   H7S 2759   0.990   6.493   8.245  0.0726 -0.9539 -1.8792
   22DOPE   C28 2760   1.089   6.319   8.132  0.2051 -0.1325 -0.2181
   22DOPE   H8R 2761   1.005   6.246   8.131 -0.7326  0.9241  0.0080
   22DOPE   H8S 2762   1.186   6.264   8.136  0.0822 -0.6611 -2.9871
   22DOPE   C29 2763   1.094   6.376   7.997  0.0418 -0.0154  0.7248
   22DOPE   H9R 2764   1.123   6.482   7.999 -2.0058  0.5788  0.9656
   22DOPE  C210 2765   1.087   6.306   7.881  0.2570 -0.4545 -0.0684
   22DOPE  H10R 2766   1.081   6.357   7.784  1.4425  0.1400  0.1483
   22DOPE  C211 2767   1.074   6.158   7.866  0.7123 -0.1894 -0.2912
   22DOPE  H11R 2768   1.040   6.110   7.960 -0.3943  0.2414 -0.4584
   22DOPE  H11S 2769   1.175   6.121   7.839  2.4939  2.1229  2.6535
   22DOPE  C212 2770   0.973   6.103   7.765 -0.9722  0.0124 -0.2701
   22DOPE  H12R 2771   0.873   6.139   7.797 -1.0266 -2.1722  2.4157
   22DOPE  H12S 2772   0.977   5.992   7.769  0.1770  0.0650  2.0104
   22DOPE  C213 2773   1.003   6.148   7.622 -0.7644 -0.4127  0.3225
   22DOPE  H13R 2774   1.106   6.130   7.586 -1.1255  0.2894 -1.1501
   22DOPE  H13S 2775   0.988   6.256   7.599 -2.2205 -1.0009 -1.9092
   22DOPE  C214 2776   0.909   6.071   7.524 -0.1102 -1.1816  0.2887
   22DOPE  H14R 2777   0.804   6.106   7.530 -0.3282 -0.5706 -3.8263
   22DOPE  H14S 2778   0.906   5.962   7.544  1.3648 -0.8306  2.9186
   22DOPE  C215 2779   0.970   6.073   7.384  0.7628 -0.1753  0.1750
   22DOPE  H15R 2780   1.069   6.024   7.376  0.8584  0.0201  0.1458
   22DOPE  H15S 2781   0.984   6.182   7.365  0.1468  0.1512  1.4849
   22DOPE  C216 2782   0.869   6.020   7.273  0.2410  0.4327  0.4307
   22DOPE  H16R 2783   0.775   6.078   7.283  0.7581  1.5243 -0.7097
   22DOPE  H16S 2784   0.838   5.915   7.293  0.7350  0.1372 -0.3003
   22DOPE  C217 2785   0.914   6.031   7.131 -0.3355 -0.4861  0.2208
   22DOPE  H17R 2786   1.006   5.971   7.112 -0.2450 -0.0001 -1.0305
   22DOPE  H17S 2787   0.949   6.135   7.111 -1.3450  0.0028  0.9432
   22DOPE  C218 2788   0.803   5.998   7.033  0.0290  0.7578  0.4659
   22DOPE  H18R 2789   0.764   5.894   7.031 -0.8423  1.0488  1.3618
   22DOPE  H18S 2790   0.845   6.018   6.932 -0.4377  2.0891  0.5220
   22DOPE  H18T 2791   0.711   6.056   7.056 -0.7063  0.0504 -0.6459
   22DOPE   C33 2792   1.769   6.013   8.484 -0.3740 -0.1881 -0.6265
   22DOPE   H3X 2793   1.707   5.920   8.489 -0.5853 -0.0851 -1.2320
   22DOPE   H3Y 2794   1.863   6.003   8.542 -0.2447  0.0280 -0.8026
   22DOPE   C34 2795   1.798   6.052   8.338 -0.7415 -0.0378 -0.3312
   22DOPE   H4X 2796   1.811   6.162   8.333  0.3155 -0.1332 -0.0404
   22DOPE   H4Y 2797   1.896   6.011   8.306 -0.2663  1.5140 -0.9854
   22DOPE   C35 2798   1.694   6.001   8.237 -0.7304  0.3955 -0.1440
   22DOPE   H5X 2799   1.614   6.078   8.225 -0.8912  0.0234 -1.6275
   22DOPE   H5Y 2800   1.641   5.909   8.270 -0.3140  0.6605  1.3674
   22DOPE   C36 2801   1.750   5.975   8.092  0.2316 -0.0317  0.1775
   22DOPE   H6X 2802   1.793   6.069   8.051 -0.7015  0.3486  0.0617
   22DOPE   H6Y 2803   1.666   5.941   8.029  1.2666 -3.6357  0.5057
   22DOPE   C37 2804   1.853   5.861   8.071 -0.1938 -0.7898  0.2543
   22DOPE   H7X 2805   1.941   5.880   8.135 -0.9653  0.5880  0.9554
   22DOPE   H7Y 2806   1.810   5.765   8.108 -2.8972 -0.0488 -0.6760
   22DOPE   C38 2807   1.891   5.844   7.923  0.5681  0.3432  0.0298
   22DOPE   H8X 2808   1.811   5.815   7.852  1.1354 -0.0498 -0.4616
   22DOPE   H8Y 2809   1.966   5.762   7.920 -0.5179 -0.6513 -1.6940
   22DOPE   C39 2810   1.960   5.969   7.873  0.4295 -0.4830  0.2849
   22DOPE   H9X 2811   2.045   6.005   7.932  0.4256 -1.5555  0.9725
   22DOPE  C310 2812   1.933   6.033   7.758 -0.0602  0.0447  0.2324
   22DOPE  H10X 2813   2.004   6.112   7.729 -1.7877  1.8445  0.7110
   22DOPE  C311 2814   1.834   5.999   7.641  0.1518  0.0194 -0.1678
   22DOPE  H11X 2815   1.765   5.919   7.675 -0.4242  0.9820  0.9950
   22DOPE  H11Y 2816   1.772   6.083   7.604  0.7241  0.0007 -1.2164
   22DOPE  C312 2817   1.918   5.945   7.520  0.6862  0.1124 -0.9042
   22DOPE  H12X 2818   1.973   5.852   7.544 -0.7223  0.0126  2.4855
   22DOPE  H12Y 2819   1.987   6.021   7.479 -0.9103  0.8959 -2.2796
   22DOPE  C313 2820   1.823   5.909   7.406 -0.5578  0.0536  0.0268
   22DOPE  H13X 2821   1.735   5.863   7.456 -0.6670  1.3662  1.0839
   22DOPE  H13Y 2822   1.797   5.996   7.342 -2.6433 -0.6545 -0.1536
   22DOPE  C314 2823   1.886   5.802   7.312 -0.4704  0.0977  0.3330
   22DOPE  H14X 2824   1.888   5.707   7.369  2.2970  1.4671  2.7604
   22DOPE  H14Y 2825   1.989   5.824   7.277  0.3886 -1.1362  1.9564
   22DOPE  C315 2826   1.799   5.769   7.188 -0.4198  0.3991 -0.1025
   22DOPE  H15X 2827   1.701   5.772   7.241  0.9125 -2.0179  2.7808
   22DOPE  H15Y 2828   1.805   5.664   7.152 -2.5240  1.6555 -4.8601
   22DOPE  C316 2829   1.819   5.882   7.080  0.5026  0.9716  0.4325
   22DOPE  H16X 2830   1.807   5.985   7.119  0.4486  0.6178  1.3644
   22DOPE  H16Y 2831   1.743   5.861   7.002  0.0031  0.7659  0.9682
   22DOPE  C317 2832   1.961   5.884   7.020  0.3186  0.1274  0.7301
   22DOPE  H17X 2833   1.960   5.944   6.927  0.4331  1.0691  1.3193
   22DOPE  H17Y 2834   2.035   5.933   7.087 -1.4139  0.7895  2.2475
   22DOPE  C318 2835   2.012   5.732   6.984  0.1179  0.4449  0.5417
   22DOPE  H18X 2836   1.953   5.689   6.900  3.1858 -1.2015 -0.9696
   22DOPE  H18Y 2837   2.111   5.734   6.933  0.3803 -0.8540  0.9623
   22DOPE  H18Z 2838   2.023   5.673   7.077  0.6547  1.5904  1.2274
   23DOPE     N 2839   4.234   2.603   8.952 -0.4614 -0.5068 -0.1802
   23DOPE   HN1 2840   4.244   2.505   8.920 -1.3623 -0.5428 -0.3749
   23DOPE   HN2 2841   4.326   2.650   8.949 -1.4493  1.6909  1.2335
   23DOPE   HN3 2842   4.208   2.608   9.053  0.6255 -0.8680  0.1235
   23DOPE   C12 2843   4.143   2.683   8.857 -0.5629 -0.1321 -0.2630
   23DOPE  H12A 2844   4.121   2.780   8.907 -2.4385 -0.6661  0.0408
   23DOPE  H12B 2845   4.042   2.638   8.849  0.1808 -2.2356  1.2398
   23DOPE   C11 2846   4.217   2.707   8.723  0.8389 -0.1877 -0.7618
   23DOPE  H11A 2847   4.162   2.782   8.662 -1.9415 -0.5503  1.1104
   23DOPE  H11B 2848   4.211   2.604   8.682  0.9413 -0.9966  1.1697
   23DOPE     P 2849   4.402   2.900   8.705 -0.0878  0.1564  0.1751
   23DOPE   O13 2850   4.549   2.910   8.719  0.7153 -0.0313 -0.0710
   23DOPE   O14 2851   4.320   3.004   8.769  0.7610  0.3479  0.0622
   23DOPE   O11 2852   4.367   2.914   8.547 -0.9495  0.2568 -0.4885
   23DOPE   O12 2853   4.355   2.747   8.744 -0.0567 -0.3957  0.0237
   23DOPE    C1 2854   4.398   2.805   8.453  0.2476  0.1168 -0.2843
   23DOPE    HA 2855   4.345   2.713   8.484  0.3464 -0.1039 -0.7716
   23DOPE    HB 2856   4.508   2.791   8.449  0.2998  0.1351  0.6692
   23DOPE    C2 2857   4.352   2.838   8.310 -0.2934 -0.3016  0.4881
   23DOPE    HS 2858   4.403   2.928   8.269  0.5986 -1.3415 -0.7768
   23DOPE   O21 2859   4.210   2.851   8.300  0.4634 -0.5174 -0.4122
   23DOPE   C21 2860   4.166   2.979   8.304 -0.0992 -0.5337 -0.3460
   23DOPE   O22 2861   4.228   3.082   8.282 -0.2649  0.1017 -0.2271
   23DOPE   C22 2862   4.017   2.965   8.333 -0.4135 -0.3193 -0.5350
   23DOPE   H2R 2863   3.976   3.068   8.333  1.8175  0.6407  0.6125
   23DOPE   H2S 2864   4.005   2.929   8.438  0.1153 -0.7492 -0.6179
   23DOPE    C3 2865   4.396   2.723   8.213 -0.5833  0.2781  0.0503
   23DOPE    HX 2866   4.333   2.645   8.259  0.8410 -0.5267  0.6897
   23DOPE    HY 2867   4.506   2.719   8.227 -0.7101 -0.0471  0.9891
   23DOPE   O31 2868   4.376   2.753   8.074  0.0784 -0.2991  0.1558
   23DOPE   C31 2869   4.286   2.687   8.006 -0.1613  0.0779  0.7443
   23DOPE   O32 2870   4.205   2.607   8.052 -0.3224  0.2943  0.3158
   23DOPE   C32 2871   4.284   2.747   7.864  0.3529 -0.8540 -0.1441
   23DOPE   H2X 2872   4.232   2.845   7.861  0.1207 -0.9996 -1.3143
   23DOPE   H2Y 2873   4.385   2.780   7.830 -0.5675  0.5551 -1.6639
   23DOPE   C23 2874   3.944   2.873   8.240  0.2163  0.3090  0.1321
   23DOPE   H3R 2875   3.838   2.869   8.273  0.4599 -0.5620  0.8357
   23DOPE   H3S 2876   3.979   2.768   8.249 -0.2530  0.0072 -1.2690
   23DOPE   C24 2877   3.958   2.931   8.094  0.6587  0.0766  0.1914
   23DOPE   H4R 2878   4.068   2.942   8.078  0.9101  0.5786  1.9972
   23DOPE   H4S 2879   3.911   3.032   8.100 -1.7057 -0.9172 -0.4270
   23DOPE   C25 2880   3.897   2.848   7.984  0.5766 -0.8044  0.1641
   23DOPE   H5R 2881   3.796   2.835   8.030  0.4544 -0.5230 -0.0223
   23DOPE   H5S 2882   3.944   2.748   7.973  0.1244 -1.2385  1.8665
   23DOPE   C26 2883   3.875   2.929   7.857  0.3251 -0.0505 -0.3450
   23DOPE   H6R 2884   3.973   2.922   7.805 -0.8798 -0.9937 -2.6120
   23DOPE   H6S 2885   3.843   3.033   7.880  0.9326 -0.1541  1.0762
   23DOPE   C27 2886   3.770   2.861   7.771 -0.0475  0.2352  0.1078
   23DOPE   H7R 2887   3.671   2.854   7.821 -0.7269  0.1389 -1.2287
   23DOPE   H7S 2888   3.791   2.752   7.764 -1.0611  0.0866 -0.7338
   23DOPE   C28 2889   3.749   2.923   7.638 -0.2681 -0.3959 -0.6491
   23DOPE   H8R 2890   3.848   2.922   7.589 -0.5967  3.6559 -1.7701
   23DOPE   H8S 2891   3.732   3.031   7.656 -0.7619 -0.8518  2.0910
   23DOPE   C29 2892   3.647   2.869   7.549  1.0019  0.1666  0.0026
   23DOPE   H9R 2893   3.547   2.881   7.594 -0.0626 -0.4774 -2.0461
   23DOPE  C210 2894   3.658   2.825   7.423 -0.1290  0.1080  0.4702
   23DOPE  H10R 2895   3.572   2.808   7.357  0.5825  3.3964 -1.5456
   23DOPE  C211 2896   3.787   2.788   7.357 -0.2275  0.1047  0.1031
   23DOPE  H11R 2897   3.774   2.709   7.279  4.2111  0.4804 -1.2818
   23DOPE  H11S 2898   3.849   2.738   7.435 -0.7944  0.4946  0.8116
   23DOPE  C212 2899   3.865   2.890   7.291 -0.2583  0.3539 -0.1378
   23DOPE  H12R 2900   3.958   2.849   7.246 -2.5273 -3.7389 -1.6115
   23DOPE  H12S 2901   3.897   2.952   7.377  2.6593 -0.8738 -0.2042
   23DOPE  C213 2902   3.790   2.952   7.173  0.4747 -0.6627 -0.0190
   23DOPE  H13R 2903   3.851   3.034   7.130 -0.1027 -0.9943 -1.5311
   23DOPE  H13S 2904   3.686   2.987   7.192  1.3118  2.3393 -0.5154
   23DOPE  C214 2905   3.774   2.843   7.057  0.1941 -0.4616  0.1133
   23DOPE  H14R 2906   3.702   2.766   7.093  0.2917 -0.5811  0.0538
   23DOPE  H14S 2907   3.868   2.785   7.043  0.1647 -0.8611  1.4594
   23DOPE  C215 2908   3.727   2.902   6.919  0.4144 -0.0256  0.7647
   23DOPE  H15R 2909   3.802   2.966   6.868 -0.2030  0.5802  0.5891
   23DOPE  H15S 2910   3.630   2.956   6.932  1.7426  2.7057  0.0930
   23DOPE  C216 2911   3.690   2.784   6.829 -0.5229  0.4822 -1.0981
   23DOPE  H16R 2912   3.618   2.717   6.879 -0.1407  1.9241  1.5614
   23DOPE  H16S 2913   3.786   2.728   6.833  0.3489  1.9803  1.8831
   23DOPE  C217 2914   3.648   2.820   6.692 -0.2898  0.6060 -0.5286
   23DOPE  H17R 2915   3.721   2.894   6.653 -0.6329  1.3744  0.2594
   23DOPE  H17S 2916   3.555   2.880   6.696  0.2314  1.5526 -1.8347
   23DOPE  C218 2917   3.630   2.704   6.594  0.5827 -0.8691  0.6992
   23DOPE  H18R 2918   3.545   2.641   6.629  0.0025 -0.8492 -0.6275
   23DOPE  H18S 2919   3.726   2.648   6.589  1.3454  0.4155  0.5477
   23DOPE  H18T 2920   3.602   2.734   6.491  0.8908 -0.3935  0.7503
   23DOPE   C33 2921   4.223   2.655   7.748 -1.2682  0.1591 -0.1963
   23DOPE   H3X 2922   4.127   2.625   7.796 -1.5059  1.9651  0.5265
   23DOPE   H3Y 2923   4.290   2.566   7.738 -3.7220 -1.6017 -2.3141
   23DOPE   C34 2924   4.210   2.721   7.615  0.0106 -0.2043 -0.1037
   23DOPE   H4X 2925   4.153   2.816   7.609  0.9841  0.3557 -0.6354
   23DOPE   H4Y 2926   4.305   2.738   7.561 -0.3717 -2.7261 -1.7651
   23DOPE   C35 2927   4.139   2.621   7.522 -0.1982 -0.2158 -0.4291
   23DOPE   H5X 2928   4.027   2.624   7.523 -0.2488 -0.8061  1.7575
   23DOPE   H5Y 2929   4.168   2.515   7.540 -1.1195 -0.2898  0.7444
   23DOPE   C36 2930   4.166   2.667   7.371  0.0713  0.2163 -0.1493
   23DOPE   H6X 2931   4.276   2.681   7.357  0.2020 -1.2074 -0.7124
   23DOPE   H6Y 2932   4.130   2.770   7.350 -0.4759 -0.1945 -1.3328
   23DOPE   C37 2933   4.109   2.561   7.270 -0.6739  0.0535 -0.2453
   23DOPE   H7X 2934   4.140   2.458   7.298 -0.6401  0.2279  0.3719
   23DOPE   H7Y 2935   4.002   2.580   7.294 -0.3301  0.2925  1.1887
   23DOPE   C38 2936   4.136   2.587   7.125  0.4842 -0.0102 -0.1149
   23DOPE   H8X 2937   4.243   2.569   7.101  0.3011 -2.2193  0.4758
   23DOPE   H8Y 2938   4.112   2.694   7.107 -0.2534 -0.0289  0.6794
   23DOPE   C39 2939   4.047   2.500   7.040 -0.3646 -0.4965 -0.1000
   23DOPE   H9X 2940   3.978   2.430   7.088 -2.2389 -1.1060 -3.4219
   23DOPE  C310 2941   4.055   2.498   6.908 -0.3384  0.4718 -0.0942
   23DOPE  H10X 2942   4.003   2.416   6.856 -1.4338  0.1664  1.4506
   23DOPE  C311 2943   4.138   2.588   6.822  0.5893 -0.2333  0.0381
   23DOPE  H11X 2944   4.073   2.656   6.763  0.8464 -0.4953 -0.5552
   23DOPE  H11Y 2945   4.209   2.649   6.883  0.7516  0.6233 -0.9714
   23DOPE  C312 2946   4.232   2.509   6.719 -0.0279  0.6533 -0.5102
   23DOPE  H12X 2947   4.262   2.418   6.775 -0.2467  1.3095  0.7212
   23DOPE  H12Y 2948   4.326   2.566   6.703 -0.2359  0.6448 -1.8575
   23DOPE  C313 2949   4.165   2.481   6.581 -0.0685 -0.3836 -0.2229
   23DOPE  H13X 2950   4.065   2.434   6.595  0.5362 -2.2163 -1.6543
   23DOPE  H13Y 2951   4.139   2.579   6.537  1.3787  0.3884  0.5826
   23DOPE  C314 2952   4.243   2.401   6.481 -0.1974 -0.1766 -0.4667
   23DOPE  H14X 2953   4.258   2.297   6.518 -1.6714 -0.7029 -1.2626
   23DOPE  H14Y 2954   4.345   2.442   6.470 -0.2968  0.6337  1.2271
   23DOPE  C315 2955   4.181   2.405   6.340 -0.1812  0.4879 -0.5811
   23DOPE  H15X 2956   4.251   2.340   6.283 -0.2515  0.6272 -0.8290
   23DOPE  H15Y 2957   4.186   2.508   6.298  2.0657  0.4620 -0.5161
   23DOPE  C316 2958   4.039   2.350   6.329 -0.1672 -0.7218 -0.1902
   23DOPE  H16X 2959   3.961   2.415   6.374  0.4551 -1.7947  2.6682
   23DOPE  H16Y 2960   4.026   2.256   6.387  1.7437 -0.8105  0.1384
   23DOPE  C317 2961   4.001   2.335   6.180 -0.2175  0.3985  0.1985
   23DOPE  H17X 2962   4.088   2.291   6.126 -0.0950 -0.5702  1.1497
   23DOPE  H17Y 2963   3.922   2.259   6.167  1.7294 -1.5283 -1.0865
   23DOPE  C318 2964   3.956   2.468   6.125 -0.4351 -0.0569 -0.7600
   23DOPE  H18X 2965   3.940   2.456   6.016 -1.3575 -2.4947 -0.4126
   23DOPE  H18Y 2966   3.863   2.502   6.175  0.8916  1.3396  0.8680
   23DOPE  H18Z 2967   4.024   2.555   6.136 -0.7238 -0.0142  1.0685
   24DOPE     N 2968   5.813   0.572   8.688  0.3663 -0.4154  0.7826
   24DOPE   HN1 2969   5.781   0.671   8.685 -1.4668 -0.9426  1.8467
   24DOPE   HN2 2970   5.734   0.506   8.673 -0.2545  0.6421 -0.9664
   24DOPE   HN3 2971   5.860   0.550   8.778  0.3738 -0.0607  0.8669
   24DOPE   C12 2972   5.909   0.565   8.569  0.1000  0.3718 -0.1935
   24DOPE  H12A 2973   5.853   0.594   8.477 -0.7485 -2.7435 -0.7536
   24DOPE  H12B 2974   5.940   0.460   8.551  0.1277  0.1581  1.0371
   24DOPE   C11 2975   6.039   0.650   8.607 -0.2904 -0.0031  0.0040
   24DOPE  H11A 2976   6.100   0.655   8.514  1.2173 -1.1866  0.8926
   24DOPE  H11B 2977   6.097   0.602   8.688 -0.3351 -0.1232 -0.0354
   24DOPE     P 2978   6.113   0.895   8.659  0.0414 -0.4060 -0.0901
   24DOPE   O13 2979   6.214   0.861   8.754  0.4044 -0.2415 -0.6163
   24DOPE   O14 2980   6.034   1.016   8.686  0.4014  0.0189 -0.0321
   24DOPE   O11 2981   6.184   0.906   8.528 -0.4045 -0.0421  0.9967
   24DOPE   O12 2982   6.004   0.778   8.648  0.1008  0.2818 -0.2205
   24DOPE    C1 2983   6.116   0.915   8.403 -0.4839 -1.1319 -0.3610
   24DOPE    HA 2984   6.132   1.018   8.366 -2.7435  0.2111  2.1131
   24DOPE    HB 2985   6.009   0.885   8.408 -0.3338 -1.4747  2.6928
   24DOPE    C2 2986   6.183   0.821   8.302  0.0392 -0.0213 -0.2811
   24DOPE    HS 2987   6.191   0.720   8.346  2.3545 -0.2170 -1.0228
   24DOPE   O21 2988   6.312   0.874   8.273 -0.1221 -0.3478  0.3990
   24DOPE   C21 2989   6.400   0.783   8.238 -0.0438 -0.5255  0.6821
   24DOPE   O22 2990   6.381   0.664   8.218  0.3283 -0.0285 -0.5292
   24DOPE   C22 2991   6.543   0.856   8.225  0.4320  0.5108 -0.1324
   24DOPE   H2R 2992   6.620   0.780   8.253 -3.3921 -3.0116  2.0207
   24DOPE   H2S 2993   6.530   0.938   8.299  0.2915 -0.3677  0.8451
   24DOPE    C3 2994   6.095   0.806   8.172 -0.0172 -0.7485  0.1957
   24DOPE    HX 2995   6.043   0.899   8.143  1.0924 -0.1390  0.0888
   24DOPE    HY 2996   6.014   0.736   8.202 -0.1562 -0.9960 -0.7014
   24DOPE   O31 2997   6.164   0.762   8.057 -0.3168  0.2164 -0.5501
   24DOPE   C31 2998   6.117   0.657   7.996  0.5179 -0.5613 -0.0879
   24DOPE   O32 2999   6.020   0.591   8.025 -0.3176 -0.3175 -0.0705
   24DOPE   C32 3000   6.218   0.631   7.888 -0.1746  0.4075  0.0408
   24DOPE   H2X 3001   6.236   0.716   7.820 -2.6975 -0.7066 -2.1954
   24DOPE   H2Y 3002   6.312   0.611   7.945 -0.2914 -0.3877 -0.0355
   24DOPE   C23 3003   6.584   0.917   8.088 -0.3695  0.7110  0.1615
   24DOPE   H3R 3004   6.676   0.977   8.107  1.3299 -2.0977  1.4876
   24DOPE   H3S 3005   6.504   0.990   8.061 -2.2062 -1.1747  0.2788
   24DOPE   C24 3006   6.581   0.822   7.975  1.0769  0.3574 -0.3936
   24DOPE   H4R 3007   6.480   0.778   7.959  0.9595  1.1815 -2.0836
   24DOPE   H4S 3008   6.650   0.742   8.010 -0.2627 -0.6563  0.0313
   24DOPE   C25 3009   6.622   0.892   7.852  0.0011  0.4996 -0.0889
   24DOPE   H5R 3010   6.730   0.914   7.861 -0.1663  1.4747 -0.3124
   24DOPE   H5S 3011   6.564   0.986   7.838 -1.7195 -0.5657 -0.4020
   24DOPE   C26 3012   6.587   0.808   7.726  0.7661  0.4666  1.0026
   24DOPE   H6R 3013   6.482   0.774   7.739  0.6918  1.0274  2.0511
   24DOPE   H6S 3014   6.652   0.718   7.719 -0.4003 -0.2713 -1.9342
   24DOPE   C27 3015   6.585   0.885   7.591 -0.6575  0.1283  0.2791
   24DOPE   H7R 3016   6.678   0.945   7.577 -0.3329 -0.1395  1.1926
   24DOPE   H7S 3017   6.515   0.970   7.606  0.4842  1.3500 -0.9663
   24DOPE   C28 3018   6.546   0.799   7.463 -0.3162 -0.0223 -0.1989
   24DOPE   H8R 3019   6.455   0.738   7.483 -0.2134  0.1065  0.6899
   24DOPE   H8S 3020   6.642   0.746   7.444  0.9993  2.0531  0.3848
   24DOPE   C29 3021   6.515   0.891   7.344 -0.4354  0.0888  0.7685
   24DOPE   H9R 3022   6.452   0.977   7.370 -0.5918  0.6263 -1.2127
   24DOPE  C210 3023   6.551   0.883   7.217 -0.1069 -0.1447  0.0581
   24DOPE  H10R 3024   6.507   0.956   7.147 -0.4956  0.5133  0.9706
   24DOPE  C211 3025   6.649   0.777   7.164 -0.2238 -0.3103 -0.0138
   24DOPE  H11R 3026   6.586   0.687   7.146  0.3136 -1.3625  2.7749
   24DOPE  H11S 3027   6.741   0.763   7.225  0.0859 -3.3109 -1.0076
   24DOPE  C212 3028   6.709   0.832   7.029  0.7426  0.5224 -0.0536
   24DOPE  H12R 3029   6.795   0.769   6.995 -0.1935 -0.3766 -0.8068
   24DOPE  H12S 3030   6.760   0.926   7.059 -0.0920  0.9595  0.0132
   24DOPE  C213 3031   6.614   0.839   6.915 -0.4489 -0.3231 -0.0760
   24DOPE  H13R 3032   6.532   0.909   6.944  0.8340  1.7696 -1.1897
   24DOPE  H13S 3033   6.556   0.745   6.901  0.2931 -1.3459  3.0490
   24DOPE  C214 3034   6.673   0.883   6.778 -0.1023 -0.6641 -0.5959
   24DOPE  H14R 3035   6.738   0.802   6.741  1.9282  0.6206  0.0184
   24DOPE  H14S 3036   6.744   0.964   6.802 -0.8177 -0.0951 -0.3413
   24DOPE  C215 3037   6.561   0.908   6.679 -0.1400 -0.0379 -0.5433
   24DOPE  H15R 3038   6.499   0.997   6.700 -0.2758 -0.2969  0.1721
   24DOPE  H15S 3039   6.483   0.830   6.686  0.1918 -0.2982  0.3408
   24DOPE  C216 3040   6.627   0.907   6.537 -0.0383  0.3202 -0.8415
   24DOPE  H16R 3041   6.658   0.805   6.504 -0.5045  0.4312 -1.6654
   24DOPE  H16S 3042   6.711   0.979   6.548 -1.7614  2.4277 -0.7375
   24DOPE  C217 3043   6.529   0.962   6.435  0.8381 -0.4752  0.1858
   24DOPE  H17R 3044   6.578   0.981   6.337 -1.1045 -2.4581 -1.2778
   24DOPE  H17S 3045   6.489   1.060   6.469 -0.7743 -1.0309 -0.0254
   24DOPE  C218 3046   6.402   0.878   6.424 -0.6017 -0.5884 -0.4218
   24DOPE  H18R 3047   6.434   0.773   6.405  0.4065 -0.4745  0.5455
   24DOPE  H18S 3048   6.324   0.909   6.352 -0.5350  0.7536  0.0469
   24DOPE  H18T 3049   6.344   0.876   6.518 -1.3674 -1.5468 -0.8934
   24DOPE   C33 3050   6.192   0.501   7.810  0.3251  0.1662  0.6531
   24DOPE   H3X 3051   6.166   0.421   7.882  2.1555  0.1779  1.3746
   24DOPE   H3Y 3052   6.287   0.482   7.756  0.6210  1.2433  0.7795
   24DOPE   C34 3053   6.077   0.519   7.711  0.5710  0.2609 -0.1225
   24DOPE   H4X 3054   5.981   0.488   7.757  1.3780 -0.6056  1.0493
   24DOPE   H4Y 3055   6.074   0.622   7.672 -4.0190 -0.2671 -1.8040
   24DOPE   C35 3056   6.101   0.437   7.587  0.1946  0.1009  0.3138
   24DOPE   H5X 3057   6.005   0.437   7.531  0.9558  2.7356 -1.1475
   24DOPE   H5Y 3058   6.128   0.335   7.622 -0.7889 -0.6213 -0.9500
   24DOPE   C36 3059   6.223   0.496   7.507  0.0368 -0.4252 -0.1555
   24DOPE   H6X 3060   6.313   0.513   7.569  0.2614 -2.0720  0.0270
   24DOPE   H6Y 3061   6.187   0.591   7.463  4.1928  0.6474 -1.6887
   24DOPE   C37 3062   6.262   0.405   7.388 -0.6697  0.4153 -0.1652
   24DOPE   H7X 3063   6.318   0.319   7.430  1.3933  2.0087  0.4795
   24DOPE   H7Y 3064   6.168   0.363   7.344 -0.6038 -1.2255  1.1904
   24DOPE   C38 3065   6.355   0.475   7.282  0.6482  0.9679  0.5017
   24DOPE   H8X 3066   6.404   0.395   7.222  1.7260  0.8220  1.5326
   24DOPE   H8Y 3067   6.443   0.523   7.330  1.0104  0.9785 -0.1602
   24DOPE   C39 3068   6.285   0.577   7.202  0.3547 -0.6935  0.2257
   24DOPE   H9X 3069   6.301   0.677   7.243  0.2795 -0.4325 -0.3768
   24DOPE  C310 3070   6.229   0.558   7.074  0.4086  0.1294  0.0231
   24DOPE  H10X 3071   6.195   0.647   7.018  4.9633  2.2403  0.1153
   24DOPE  C311 3072   6.203   0.428   7.010  0.3209  0.0794  0.7440
   24DOPE  H11X 3073   6.274   0.345   7.030  0.0539 -0.2618  0.2980
   24DOPE  H11Y 3074   6.103   0.389   7.038  0.2875  0.0419  0.5725
   24DOPE  C312 3075   6.189   0.451   6.856  0.5405  0.8492  0.1637
   24DOPE  H12X 3076   6.205   0.354   6.803 -1.0606 -0.2056  1.5162
   24DOPE  H12Y 3077   6.274   0.516   6.825 -0.3405  1.7558 -0.4035
   24DOPE  C313 3078   6.061   0.525   6.815  0.3467  0.0219  0.6086
   24DOPE  H13X 3079   5.979   0.458   6.848 -0.8645  1.1189 -0.0572
   24DOPE  H13Y 3080   6.058   0.619   6.873  1.4694  0.0613  0.6312
   24DOPE  C314 3081   6.070   0.553   6.666  0.0948  0.6493  0.3618
   24DOPE  H14X 3082   6.171   0.598   6.653  0.9900 -1.3392  0.0436
   24DOPE  H14Y 3083   5.997   0.632   6.639  1.5038  1.3704 -1.5953
   24DOPE  C315 3084   6.056   0.427   6.579  0.3249  0.3163 -0.3486
   24DOPE  H15X 3085   5.954   0.384   6.577  0.5100 -0.3465  1.9456
   24DOPE  H15Y 3086   6.133   0.350   6.600  0.2466  0.5262  0.7776
   24DOPE  C316 3087   6.088   0.462   6.432  0.1595 -0.0972  0.6569
   24DOPE  H16X 3088   6.165   0.541   6.418  0.7989 -0.8459 -0.1602
   24DOPE  H16Y 3089   5.987   0.491   6.395  0.2690 -0.4477  0.0646
   24DOPE  C317 3090   6.137   0.340   6.346 -0.5195  0.2014 -0.3915
   24DOPE  H17X 3091   6.223   0.289   6.394 -1.0828 -0.2766  0.1239
   24DOPE  H17Y 3092   6.062   0.258   6.347  1.8289 -2.0682 -0.6964
   24DOPE  C318 3093   6.201   0.378   6.210  0.1773  0.2592  0.4418
   24DOPE  H18X 3094   6.272   0.462   6.227  0.9032 -0.0264 -1.0623
   24DOPE  H18Y 3095   6.266   0.305   6.158  3.7039  3.5217 -0.1836
   24DOPE  H18Z 3096   6.121   0.402   6.137  0.8572  0.8842 -0.1156
   25DOPE     N 3097   1.783   0.781   9.158 -0.3818 -0.7247 -0.2541
   25DOPE   HN1 3098   1.774   0.799   9.056 -0.0095  0.5572 -0.0847
   25DOPE   HN2 3099   1.800   0.872   9.206 -3.6089  1.0051 -2.0829
   25DOPE   HN3 3100   1.869   0.722   9.164 -0.1142 -0.3723 -0.5904
   25DOPE   C12 3101   1.663   0.723   9.213 -0.7670 -0.0201  0.2753
   25DOPE  H12A 3102   1.581   0.798   9.205 -0.7231 -0.0598 -0.6444
   25DOPE  H12B 3103   1.685   0.690   9.317  3.5005 -0.1209 -0.4730
   25DOPE   C11 3104   1.623   0.592   9.142  0.0324  0.6084  0.5176
   25DOPE  H11A 3105   1.620   0.614   9.033 -0.1334  1.0789  0.6155
   25DOPE  H11B 3106   1.523   0.553   9.170 -1.5809  2.6532 -1.9242
   25DOPE     P 3107   1.695   0.364   9.246  0.6067  0.2372  0.0398
   25DOPE   O13 3108   1.634   0.406   9.378 -0.4859 -0.2905  0.0107
   25DOPE   O14 3109   1.816   0.280   9.244  0.0247  0.4258 -0.0416
   25DOPE   O11 3110   1.574   0.299   9.165 -0.2724  0.4520 -0.0354
   25DOPE   O12 3111   1.725   0.492   9.154 -0.1249 -0.1054 -0.0393
   25DOPE    C1 3112   1.598   0.190   9.073 -0.2578 -0.1651 -0.1140
   25DOPE    HA 3113   1.504   0.172   9.017  0.5001 -0.0881 -1.4694
   25DOPE    HB 3114   1.632   0.103   9.133  3.0417  2.5142  2.3124
   25DOPE    C2 3115   1.701   0.226   8.953 -0.3110 -0.1085  0.3766
   25DOPE    HS 3116   1.781   0.285   9.001 -1.6171  0.9933  1.3034
   25DOPE   O21 3117   1.639   0.310   8.860  0.3510  0.3492 -0.2672
   25DOPE   C21 3118   1.713   0.377   8.776 -0.5725 -0.2473 -0.2357
   25DOPE   O22 3119   1.838   0.384   8.788 -0.2858  0.1172  0.1293
   25DOPE   C22 3120   1.615   0.437   8.674 -0.4484 -0.1103 -0.7066
   25DOPE   H2R 3121   1.540   0.497   8.730 -0.2288 -0.1781 -0.3377
   25DOPE   H2S 3122   1.554   0.351   8.639 -1.7889  0.7727 -0.6014
   25DOPE    C3 3123   1.756   0.098   8.887 -0.2867  0.2414 -0.1169
   25DOPE    HX 3124   1.796   0.037   8.971 -0.2082  0.4736  0.0150
   25DOPE    HY 3125   1.838   0.115   8.813 -1.9692  0.3830 -2.0314
   25DOPE   O31 3126   1.652   0.029   8.815 -0.5740 -0.4606 -0.3318
   25DOPE   C31 3127   1.693  -0.079   8.761 -0.4620 -0.6842 -0.4487
   25DOPE   O32 3128   1.794  -0.141   8.792 -0.0948 -0.0900 -0.3523
   25DOPE   C32 3129   1.588  -0.137   8.670  0.1976 -0.4680 -0.1234
   25DOPE   H2X 3130   1.567  -0.239   8.709 -2.0328  0.2158  0.6127
   25DOPE   H2Y 3131   1.492  -0.080   8.671  0.0399 -0.7365  0.9431
   25DOPE   C23 3132   1.679   0.533   8.568  0.1639 -0.8910 -0.2688
   25DOPE   H3R 3133   1.737   0.616   8.614  0.5598 -1.9518  1.2191
   25DOPE   H3S 3134   1.589   0.586   8.529  2.1475  1.0106 -2.5104
   25DOPE   C24 3135   1.763   0.463   8.467  0.2933  1.1862  0.8481
   25DOPE   H4R 3136   1.839   0.402   8.520  0.4451 -0.8752 -1.6213
   25DOPE   H4S 3137   1.817   0.543   8.412  1.2396  0.8456  1.2545
   25DOPE   C25 3138   1.683   0.368   8.365  0.0651  0.3711  0.0163
   25DOPE   H5R 3139   1.602   0.435   8.330 -2.5807 -2.3356  0.5574
   25DOPE   H5S 3140   1.627   0.286   8.415  1.1847  0.0425  0.7760
   25DOPE   C26 3141   1.748   0.331   8.233 -0.3659  0.0202 -0.5727
   25DOPE   H6R 3142   1.788   0.428   8.198  1.2374  0.7091  2.7005
   25DOPE   H6S 3143   1.672   0.305   8.157  0.8079 -1.0233 -1.4207
   25DOPE   C27 3144   1.857   0.228   8.248 -0.6058  0.3439  0.3746
   25DOPE   H7R 3145   1.850   0.154   8.331  1.3675 -0.2733  0.0396
   25DOPE   H7S 3146   1.947   0.290   8.261 -0.8217  0.5034  1.2044
   25DOPE   C28 3147   1.863   0.157   8.110  0.2428  0.0734 -0.3807
   25DOPE   H8R 3148   1.873   0.240   8.037 -0.9264  2.3582  1.9318
   25DOPE   H8S 3149   1.761   0.115   8.095 -1.1673  1.6674  3.5230
   25DOPE   C29 3150   1.978   0.066   8.085 -0.1155  0.8840 -0.0064
   25DOPE   H9R 3151   2.079   0.105   8.106 -0.2223  0.1865  2.1507
   25DOPE  C210 3152   1.970  -0.065   8.044 -0.0019  0.1958  0.0629
   25DOPE  H10R 3153   2.060  -0.126   8.028  0.1201  0.4615 -0.3026
   25DOPE  C211 3154   1.847  -0.142   8.004 -0.3420  0.1883  0.3153
   25DOPE  H11R 3155   1.749  -0.104   8.040 -0.5293 -0.3384  0.3781
   25DOPE  H11S 3156   1.848  -0.248   8.038 -2.5270 -0.7184 -2.1324
   25DOPE  C212 3157   1.818  -0.143   7.850 -0.9971 -0.4464 -0.4346
   25DOPE  H12R 3158   1.833  -0.038   7.816  2.5556  1.3236  5.3017
   25DOPE  H12S 3159   1.719  -0.187   7.826 -0.3536 -3.0532  1.2941
   25DOPE  C213 3160   1.923  -0.234   7.778 -0.0155 -0.5780 -0.1479
   25DOPE  H13R 3161   1.918  -0.341   7.806  1.5729 -0.5823  0.2264
   25DOPE  H13S 3162   2.025  -0.200   7.805 -0.2273 -1.1474  1.4469
   25DOPE  C214 3163   1.915  -0.231   7.626 -0.7672 -0.5628 -0.7058
   25DOPE  H14R 3164   1.961  -0.134   7.598 -2.7159  0.8436  0.6327
   25DOPE  H14S 3165   1.810  -0.219   7.591 -1.5689  2.3327  2.2002
   25DOPE  C215 3166   2.004  -0.337   7.560  0.8045  0.1371 -0.1373
   25DOPE  H15R 3167   1.959  -0.436   7.582  1.5761  0.0547  1.1763
   25DOPE  H15S 3168   2.103  -0.336   7.611 -0.3969  0.1907  2.3523
   25DOPE  C216 3169   2.014  -0.316   7.406  0.2818 -0.1156  0.0031
   25DOPE  H16R 3170   2.072  -0.393   7.349  2.1147  0.6327  0.7952
   25DOPE  H16S 3171   2.071  -0.223   7.384  0.4789 -0.5944 -1.7132
   25DOPE  C217 3172   1.882  -0.302   7.334 -0.2133  0.0901 -0.4495
   25DOPE  H17R 3173   1.856  -0.196   7.310  0.2846  0.5849  1.0315
   25DOPE  H17S 3174   1.813  -0.346   7.409  1.2432 -0.5165  0.5929
   25DOPE  C218 3175   1.872  -0.394   7.220  0.0349 -0.3705  0.3152
   25DOPE  H18R 3176   1.894  -0.498   7.254  1.3722  0.3864  1.8900
   25DOPE  H18S 3177   1.944  -0.366   7.140 -0.9600 -1.2062 -0.9152
   25DOPE  H18T 3178   1.772  -0.389   7.171  0.2131  2.8471  0.0883
   25DOPE   C33 3179   1.641  -0.154   8.525  0.1353 -0.7478  0.7469
   25DOPE   H3X 3180   1.732  -0.217   8.522  0.9300  0.4000 -0.4824
   25DOPE   H3Y 3181   1.669  -0.055   8.482  0.5138 -1.2041 -0.0819
   25DOPE   C34 3182   1.545  -0.230   8.434  0.0158  0.2057  0.5240
   25DOPE   H4X 3183   1.531  -0.333   8.473  1.7599 -0.9395 -1.6448
   25DOPE   H4Y 3184   1.445  -0.185   8.416 -0.1953 -1.2793 -2.6706
   25DOPE   C35 3185   1.604  -0.259   8.293 -0.0058  0.1446 -0.1282
   25DOPE   H5X 3186   1.702  -0.310   8.304 -0.1793  0.1355  1.8141
   25DOPE   H5Y 3187   1.623  -0.163   8.240  0.2185  0.9319  1.3059
   25DOPE   C36 3188   1.513  -0.334   8.197  0.0527 -0.0910 -0.1927
   25DOPE   H6X 3189   1.423  -0.272   8.177 -1.4550 -1.9958  0.3812
   25DOPE   H6Y 3190   1.480  -0.434   8.233  2.9337 -1.1843 -0.2960
   25DOPE   C37 3191   1.591  -0.352   8.064 -0.4619 -0.6348 -0.0914
   25DOPE   H7X 3192   1.613  -0.258   8.010 -1.2479  0.6180  1.6862
   25DOPE   H7Y 3193   1.694  -0.393   8.080  0.3617  1.6755  0.9359
   25DOPE   C38 3194   1.510  -0.433   7.965 -0.4560  0.0090  0.5332
   25DOPE   H8X 3195   1.412  -0.383   7.948  0.0056  0.5576 -0.5763
   25DOPE   H8Y 3196   1.493  -0.528   8.019  1.4422 -0.1938  0.8518
   25DOPE   C39 3197   1.602  -0.445   7.836  1.0532  0.0761  0.4699
   25DOPE   H9X 3198   1.711  -0.457   7.850  1.4207  0.2604 -1.9171
   25DOPE  C310 3199   1.563  -0.428   7.709 -0.6701  0.1413 -0.1529
   25DOPE  H10X 3200   1.640  -0.440   7.631 -0.9129  1.1660 -0.5582
   25DOPE  C311 3201   1.425  -0.422   7.657  0.2535 -0.2503 -0.5903
   25DOPE  H11X 3202   1.363  -0.502   7.703  0.5908 -0.6444 -0.8136
   25DOPE  H11Y 3203   1.379  -0.321   7.663 -0.0973 -0.4542  0.1882
   25DOPE  C312 3204   1.411  -0.453   7.506  0.4132  0.3475 -0.8543
   25DOPE  H12X 3205   1.304  -0.451   7.477 -0.1327  1.7143  1.0534
   25DOPE  H12Y 3206   1.453  -0.553   7.482  1.8421  0.6618  0.2046
   25DOPE  C313 3207   1.477  -0.359   7.400  0.3213 -0.3639 -0.0160
   25DOPE  H13X 3208   1.439  -0.257   7.425 -0.3471 -0.6881  0.2879
   25DOPE  H13Y 3209   1.586  -0.344   7.415 -0.1722  0.8369  3.4233
   25DOPE  C314 3210   1.441  -0.385   7.250 -0.2725  0.2065 -0.0819
   25DOPE  H14X 3211   1.499  -0.308   7.194 -0.2488 -0.7616 -1.4426
   25DOPE  H14Y 3212   1.330  -0.383   7.236 -0.2928 -1.8194 -0.5262
   25DOPE  C315 3213   1.477  -0.538   7.215  0.9980 -0.5765  0.3556
   25DOPE  H15X 3214   1.403  -0.609   7.257  0.2604 -0.9560 -1.5020
   25DOPE  H15Y 3215   1.579  -0.570   7.246  2.0673  0.5140 -1.8046
   25DOPE  C316 3216   1.468  -0.575   7.066 -0.0315 -0.5940 -0.4856
   25DOPE  H16X 3217   1.498  -0.682   7.058  1.7845  0.0223 -2.8720
   25DOPE  H16Y 3218   1.536  -0.514   7.004  1.0293  0.8039  1.9169
   25DOPE  C317 3219   1.338  -0.545   7.001  0.2486 -0.1860 -0.4493
   25DOPE  H17X 3220   1.253  -0.596   7.053  1.4728 -0.4494  1.3876
   25DOPE  H17Y 3221   1.312  -0.437   7.011 -2.1660 -0.5081 -2.3978
   25DOPE  C318 3222   1.336  -0.599   6.857  0.4198 -0.1095 -0.4067
   25DOPE  H18X 3223   1.426  -0.568   6.799  0.6397 -0.7637 -0.4155
   25DOPE  H18Y 3224   1.327  -0.709   6.849 -2.5118  0.1747 -3.0339
   25DOPE  H18Z 3225   1.245  -0.565   6.802 -1.0522  0.8002  2.4198
   26DOPE     N 3226   0.277   1.051   9.276 -0.3138 -0.2030 -0.3425
   26DOPE   HN1 3227   0.195   1.106   9.244 -1.0308  0.0062  1.6898
   26DOPE   HN2 3228   0.298   1.070   9.376 -0.3034 -0.0094 -0.3820
   26DOPE   HN3 3229   0.360   1.084   9.224 -0.5443 -0.5136 -0.9207
   26DOPE   C12 3230   0.255   0.906   9.269 -0.4794  0.0645  0.2571
   26DOPE  H12A 3231   0.161   0.891   9.325 -0.4368  0.7383  0.5164
   26DOPE  H12B 3232   0.326   0.858   9.339  0.7798 -1.3353 -1.8565
   26DOPE   C11 3233   0.257   0.847   9.128  0.1426 -0.2118  0.5961
   26DOPE  H11A 3234   0.236   0.740   9.149  1.3283 -0.1576  2.2932
   26DOPE  H11B 3235   0.361   0.864   9.092  0.6719 -3.2443  0.4364
   26DOPE     P 3236   0.114   0.870   8.907  0.1685 -0.0916  0.0372
   26DOPE   O13 3237  -0.013   0.944   8.875  0.4987  1.1851  0.6843
   26DOPE   O14 3238   0.111   0.721   8.903  0.2053 -0.3690 -0.0924
   26DOPE   O11 3239   0.223   0.925   8.816 -0.3560 -0.0651 -0.4820
   26DOPE   O12 3240   0.162   0.917   9.050  0.0958 -0.3715  0.0634
   26DOPE    C1 3241   0.358   0.874   8.825 -0.7783 -0.5433  0.4491
   26DOPE    HA 3242   0.367   0.766   8.851 -0.6651 -0.1658  2.1163
   26DOPE    HB 3243   0.422   0.929   8.897 -1.5465  0.1231  0.6403
   26DOPE    C2 3244   0.429   0.890   8.687 -0.1883 -0.5022  0.3689
   26DOPE    HS 3245   0.441   1.000   8.675 -3.2091 -0.1735 -0.6679
   26DOPE   O21 3246   0.343   0.837   8.579  0.3191 -0.0904 -0.5625
   26DOPE   C21 3247   0.295   0.930   8.499 -0.1659 -0.3010 -0.1667
   26DOPE   O22 3248   0.309   1.049   8.509 -0.1644  0.5653  0.2007
   26DOPE   C22 3249   0.230   0.874   8.371  0.2276 -0.6396  0.7926
   26DOPE   H2R 3250   0.143   0.942   8.360 -1.0521 -2.0948  1.5439
   26DOPE   H2S 3251   0.179   0.777   8.385  0.6336 -1.0649 -0.5110
   26DOPE    C3 3252   0.566   0.809   8.690 -0.9670  0.2261 -0.1939
   26DOPE    HX 3253   0.548   0.699   8.691 -2.6418  0.3736 -2.8991
   26DOPE    HY 3254   0.623   0.845   8.778  0.2269 -0.0439 -0.8367
   26DOPE   O31 3255   0.650   0.824   8.576 -0.0778  0.2405 -0.1688
   26DOPE   C31 3256   0.727   0.926   8.567  0.0468 -0.9691 -0.0588
   26DOPE   O32 3257   0.742   1.004   8.662 -0.3513 -0.5847  0.6272
   26DOPE   C32 3258   0.787   0.948   8.419 -0.1404  0.3224  0.9637
   26DOPE   H2X 3259   0.826   1.051   8.407 -0.8882  0.2817 -3.1518
   26DOPE   H2Y 3260   0.867   0.871   8.410 -1.3080 -1.0288  1.6194
   26DOPE   C23 3261   0.322   0.866   8.248  0.0786  0.4395  0.4962
   26DOPE   H3R 3262   0.397   0.785   8.262 -0.8239 -0.1399  2.2753
   26DOPE   H3S 3263   0.370   0.961   8.218 -0.5069  0.6503  0.2088
   26DOPE   C24 3264   0.236   0.828   8.128 -0.2542  0.4803  0.4872
   26DOPE   H4R 3265   0.178   0.914   8.090  1.8058  2.1639  0.9913
   26DOPE   H4S 3266   0.161   0.748   8.150 -1.2589  0.7469 -1.6797
   26DOPE   C25 3267   0.324   0.774   8.009 -0.0107 -0.0435  0.1220
   26DOPE   H5R 3268   0.417   0.731   8.054  1.4696  3.2166  0.4955
   26DOPE   H5S 3269   0.355   0.854   7.938 -1.5411 -0.7512 -1.3840
   26DOPE   C26 3270   0.245   0.680   7.921  0.4328  0.3674  0.8474
   26DOPE   H6R 3271   0.151   0.713   7.871  0.8664 -1.3171 -1.2214
   26DOPE   H6S 3272   0.207   0.597   7.985 -0.6109 -0.1622 -0.3991
   26DOPE   C27 3273   0.324   0.613   7.802  0.2116  0.1124  0.5674
   26DOPE   H7R 3274   0.258   0.535   7.757  0.4947  0.3940 -0.3423
   26DOPE   H7S 3275   0.403   0.550   7.850 -0.1547  1.4229  3.0853
   26DOPE   C28 3276   0.373   0.706   7.689 -0.0383 -0.2587 -0.3197
   26DOPE   H8R 3277   0.466   0.665   7.645 -0.0430 -1.3022  0.5943
   26DOPE   H8S 3278   0.409   0.796   7.744 -1.3528 -0.6539  1.2666
   26DOPE   C29 3279   0.257   0.750   7.598 -0.0824 -0.1626 -0.3380
   26DOPE   H9R 3280   0.172   0.795   7.651 -0.2204 -1.5638  0.6841
   26DOPE  C210 3281   0.242   0.716   7.467  0.1105 -0.5926  0.6218
   26DOPE  H10R 3282   0.158   0.757   7.410  0.7280  0.5721  0.5018
   26DOPE  C211 3283   0.350   0.646   7.382  1.0259  0.7649  0.2194
   26DOPE  H11R 3284   0.367   0.541   7.416 -0.5235  1.0002  1.8511
   26DOPE  H11S 3285   0.453   0.689   7.381 -0.2424  4.1313  1.9838
   26DOPE  C212 3286   0.292   0.648   7.233 -0.6145 -0.2807 -0.1384
   26DOPE  H12R 3287   0.282   0.755   7.208 -0.1087 -0.1829  0.0687
   26DOPE  H12S 3288   0.191   0.603   7.218  0.9192 -3.7282 -1.2622
   26DOPE  C213 3289   0.394   0.583   7.139  0.1991  0.2593  0.0874
   26DOPE  H13R 3290   0.412   0.482   7.182 -1.1341  0.3849  0.9802
   26DOPE  H13S 3291   0.494   0.630   7.151  1.0631 -1.7724  1.3450
   26DOPE  C214 3292   0.351   0.573   6.993  0.2196  0.4863 -0.1886
   26DOPE  H14R 3293   0.321   0.677   6.968 -0.2878  0.3869  0.0023
   26DOPE  H14S 3294   0.264   0.505   6.983 -0.2786  1.2428 -1.1964
   26DOPE  C215 3295   0.450   0.522   6.888 -0.2369  0.2025 -0.8722
   26DOPE  H15R 3296   0.503   0.440   6.941  2.7672  1.7748 -1.2490
   26DOPE  H15S 3297   0.534   0.592   6.869 -2.0197  1.5197 -4.8168
   26DOPE  C216 3298   0.379   0.491   6.759 -0.3297 -0.1853  0.0417
   26DOPE  H16R 3299   0.269   0.508   6.768 -0.4892 -1.4540  0.8120
   26DOPE  H16S 3300   0.394   0.387   6.725  0.5514  0.4015 -1.4396
   26DOPE  C217 3301   0.422   0.579   6.647 -0.1143 -0.2585 -0.0734
   26DOPE  H17R 3302   0.434   0.682   6.688 -1.0513 -0.5403  0.9419
   26DOPE  H17S 3303   0.340   0.587   6.574  0.6275  1.9880 -0.7508
   26DOPE  C218 3304   0.547   0.524   6.583  0.0989 -0.0431 -0.4326
   26DOPE  H18R 3305   0.583   0.588   6.498  1.1039 -1.6822 -1.2913
   26DOPE  H18S 3306   0.531   0.427   6.533  0.5409  0.1413 -0.9502
   26DOPE  H18T 3307   0.635   0.520   6.650  1.1917 -0.6985 -1.8405
   26DOPE   C33 3308   0.687   0.942   8.298 -0.5286  0.5051 -0.2690
   26DOPE   H3X 3309   0.604   1.016   8.300 -0.9335  0.0969 -1.3624
   26DOPE   H3Y 3310   0.649   0.838   8.289  0.4008  0.2332 -1.1440
   26DOPE   C34 3311   0.759   0.981   8.165 -0.5025 -0.4191 -0.3251
   26DOPE   H4X 3312   0.810   1.078   8.184  2.4980 -2.0474  0.5317
   26DOPE   H4Y 3313   0.843   0.911   8.147  0.4014  0.6788 -0.4958
   26DOPE   C35 3314   0.659   0.976   8.057 -0.1552  0.3974  0.0866
   26DOPE   H5X 3315   0.576   1.048   8.072 -1.4406 -1.4514  2.5783
   26DOPE   H5Y 3316   0.610   0.876   8.068 -1.6476  1.1415  0.4043
   26DOPE   C36 3317   0.709   0.993   7.910 -0.1826  0.0110  0.3719
   26DOPE   H6X 3318   0.787   1.072   7.904 -3.0030  3.0717  1.3954
   26DOPE   H6Y 3319   0.616   1.031   7.863  1.2982  1.5791 -1.4919
   26DOPE   C37 3320   0.752   0.859   7.844 -0.6565  0.2218 -0.2392
   26DOPE   H7X 3321   0.840   0.831   7.906 -1.6086  0.8514  1.4533
   26DOPE   H7Y 3322   0.669   0.785   7.844  2.6106 -3.8210 -0.0920
   26DOPE   C38 3323   0.796   0.870   7.696  0.1232  0.3540 -0.0323
   26DOPE   H8X 3324   0.834   0.771   7.664  0.6152  0.1589  1.1192
   26DOPE   H8Y 3325   0.879   0.944   7.698 -0.5750  1.1487  1.5945
   26DOPE   C39 3326   0.678   0.915   7.609 -0.0937 -0.1439 -0.1311
   26DOPE   H9X 3327   0.609   0.992   7.648  2.6343  1.7623  1.2830
   26DOPE  C310 3328   0.660   0.887   7.479 -1.1101  0.1285 -0.5524
   26DOPE  H10X 3329   0.589   0.942   7.415  0.0127 -0.0909 -2.0414
   26DOPE  C311 3330   0.745   0.796   7.400  0.2393 -0.0289 -0.2300
   26DOPE  H11X 3331   0.846   0.776   7.440  0.1330 -1.7641 -0.7488
   26DOPE  H11Y 3332   0.697   0.696   7.412  0.2871 -0.1107 -0.6774
   26DOPE  C312 3333   0.756   0.833   7.254 -0.1427  0.3529 -0.0922
   26DOPE  H12X 3334   0.805   0.932   7.239 -0.4459  0.6719  0.9438
   26DOPE  H12Y 3335   0.651   0.834   7.216 -0.1572  0.1780 -0.0538
   26DOPE  C313 3336   0.846   0.747   7.161  0.4691 -0.1734 -0.4328
   26DOPE  H13X 3337   0.951   0.785   7.162  1.0306 -1.5181  2.3022
   26DOPE  H13Y 3338   0.833   0.640   7.185  1.3159 -0.4755 -1.2784
   26DOPE  C314 3339   0.810   0.755   7.015  0.6834 -0.1611 -0.1021
   26DOPE  H14X 3340   0.799   0.861   6.982  1.1958  0.4184  1.5096
   26DOPE  H14Y 3341   0.709   0.710   7.002 -0.3991  2.3970 -1.2437
   26DOPE  C315 3342   0.912   0.699   6.924  0.0920  0.5007 -0.5212
   26DOPE  H15X 3343   0.933   0.598   6.965 -0.4334 -0.0563 -1.6095
   26DOPE  H15Y 3344   1.007   0.754   6.941  0.4716 -0.7043  1.6397
   26DOPE  C316 3345   0.866   0.707   6.773 -0.5087  0.3692 -0.9584
   26DOPE  H16X 3346   0.763   0.669   6.757 -1.6185  3.0436 -0.6583
   26DOPE  H16Y 3347   0.938   0.646   6.713 -0.4743 -0.2028 -0.3506
   26DOPE  C317 3348   0.867   0.850   6.712  0.8576  0.5283  0.0419
   26DOPE  H17X 3349   0.822   0.922   6.784  2.2397  2.1605 -0.6583
   26DOPE  H17Y 3350   0.972   0.882   6.692  0.4068  0.9367 -1.8164
   26DOPE  C318 3351   0.786   0.849   6.576  0.8007  0.5782 -0.0330
   26DOPE  H18X 3352   0.823   0.768   6.510 -0.4403  1.7001 -2.2016
   26DOPE  H18Y 3353   0.676   0.839   6.589  0.8390 -0.4304 -0.4041
   26DOPE  H18Z 3354   0.807   0.944   6.523 -0.6313  0.7291 -0.3876
   27DOPE     N 3355   5.925   1.809   8.362  0.2523  0.5320 -0.1526
   27DOPE   HN1 3356   5.994   1.733   8.378  1.0900  0.7406 -2.4699
   27DOPE   HN2 3357   5.985   1.892   8.381  0.0354  1.2876 -2.4859
   27DOPE   HN3 3358   5.849   1.809   8.433  0.3544  2.4596  0.0343
   27DOPE   C12 3359   5.912   1.824   8.206 -0.6604  0.2987  0.4913
   27DOPE  H12A 3360   5.827   1.761   8.173 -0.7700  0.2178  0.9270
   27DOPE  H12B 3361   6.004   1.787   8.156 -0.0880  4.3782 -2.0071
   27DOPE   C11 3362   5.886   1.970   8.160 -0.9052  0.4738 -0.2606
   27DOPE  H11A 3363   5.868   1.973   8.051 -1.5437  1.3790 -0.1422
   27DOPE  H11B 3364   5.983   2.024   8.169 -1.4609  1.4760 -0.0515
   27DOPE     P 3365   5.638   2.009   8.234 -0.6758 -0.1987 -0.1472
   27DOPE   O13 3366   5.560   2.119   8.298 -0.2103  0.9690 -0.4688
   27DOPE   O14 3367   5.603   1.875   8.275  0.3569 -0.0470 -0.6333
   27DOPE   O11 3368   5.620   2.021   8.077  0.1066  0.2392  0.1004
   27DOPE   O12 3369   5.791   2.036   8.246  0.0547  0.3852  0.0451
   27DOPE    C1 3370   5.529   1.949   8.002 -0.5557  0.3219  0.4294
   27DOPE    HA 3371   5.427   1.990   8.019 -0.4430  0.4420  0.8141
   27DOPE    HB 3372   5.534   1.842   8.029 -1.9726  0.1078 -0.0928
   27DOPE    C2 3373   5.544   1.963   7.850 -0.3577  0.0275 -0.1159
   27DOPE    HS 3374   5.478   1.892   7.795 -0.6805  0.4117 -0.2282
   27DOPE   O21 3375   5.677   1.949   7.807  0.3998 -0.3997  0.3213
   27DOPE   C21 3376   5.721   1.832   7.813  0.2579  0.2120  0.6203
   27DOPE   O22 3377   5.663   1.732   7.855  0.4375 -1.2653  0.4670
   27DOPE   C22 3378   5.866   1.826   7.767  0.7681  0.2575 -0.5046
   27DOPE   H2R 3379   5.899   1.724   7.794 -1.0411 -0.3538 -0.4605
   27DOPE   H2S 3380   5.919   1.898   7.833  0.2177  0.8290 -0.6807
   27DOPE    C3 3381   5.497   2.105   7.797 -0.4055  0.0151 -0.1006
   27DOPE    HX 3382   5.528   2.189   7.864 -0.1907 -0.5319  0.4936
   27DOPE    HY 3383   5.386   2.102   7.810 -0.2674  2.0980  2.4643
   27DOPE   O31 3384   5.542   2.136   7.663  0.4391  0.2151  0.4370
   27DOPE   C31 3385   5.499   2.071   7.566  0.0865 -0.1077  1.2278
   27DOPE   O32 3386   5.423   1.973   7.577 -1.2423 -0.0869  0.1214
   27DOPE   C32 3387   5.550   2.119   7.426 -0.0402  0.0830  0.6396
   27DOPE   H2X 3388   5.537   2.230   7.431 -0.6713 -0.0401  2.3584
   27DOPE   H2Y 3389   5.655   2.084   7.418  0.4276  1.4858  0.2434
   27DOPE   C23 3390   5.882   1.869   7.618  0.7422  0.1710 -0.2809
   27DOPE   H3R 3391   5.989   1.855   7.592  0.7252 -1.7343  0.5085
   27DOPE   H3S 3392   5.859   1.977   7.605 -3.8120 -0.7487 -1.6896
   27DOPE   C24 3393   5.789   1.785   7.527 -0.6504  0.5112 -0.1485
   27DOPE   H4R 3394   5.681   1.794   7.555 -0.9244 -3.0041  0.4896
   27DOPE   H4S 3395   5.829   1.683   7.545  0.3684  1.1481  1.3872
   27DOPE   C25 3396   5.818   1.821   7.383 -0.4901  0.3547  0.0993
   27DOPE   H5R 3397   5.928   1.823   7.373 -0.3117  0.8046  1.9401
   27DOPE   H5S 3398   5.788   1.926   7.365  0.0304  0.5506  0.3850
   27DOPE   C26 3399   5.749   1.720   7.289 -0.1940 -0.4705  0.6920
   27DOPE   H6R 3400   5.644   1.704   7.323 -0.3188 -2.6574 -0.5849
   27DOPE   H6S 3401   5.805   1.625   7.298 -1.0702 -0.8737  2.5143
   27DOPE   C27 3402   5.733   1.785   7.148  0.5740  0.3399 -0.2315
   27DOPE   H7R 3403   5.828   1.830   7.111  0.4790  0.8905  0.1867
   27DOPE   H7S 3404   5.656   1.865   7.144 -1.4418 -1.4648  0.4509
   27DOPE   C28 3405   5.693   1.689   7.036 -0.5951  0.2396 -1.2281
   27DOPE   H8R 3406   5.653   1.748   6.951 -0.8351 -2.3538 -3.0511
   27DOPE   H8S 3407   5.612   1.622   7.072  0.4253 -0.6824 -0.5923
   27DOPE   C29 3408   5.808   1.604   6.998 -0.7953 -0.3161  0.3988
   27DOPE   H9R 3409   5.868   1.571   7.084  1.5693  2.9841  0.2398
   27DOPE  C210 3410   5.858   1.580   6.872  0.0509  0.3911  0.5689
   27DOPE  H10R 3411   5.951   1.521   6.864 -0.2209  0.1832 -1.5677
   27DOPE  C211 3412   5.804   1.622   6.731 -0.2508  0.0169 -0.8084
   27DOPE  H11R 3413   5.860   1.559   6.659  1.7801 -1.2089  1.6835
   27DOPE  H11S 3414   5.816   1.731   6.712 -1.2099 -0.0393 -1.8582
   27DOPE  C212 3415   5.654   1.581   6.717  0.3674  0.1834 -0.9604
   27DOPE  H12R 3416   5.606   1.603   6.815  1.5950  1.3299 -0.5867
   27DOPE  H12S 3417   5.644   1.470   6.709 -1.8283  0.2755 -0.2747
   27DOPE  C213 3418   5.578   1.642   6.599  0.1468  0.4995  0.2298
   27DOPE  H13R 3419   5.592   1.753   6.599  0.8969  0.4084  0.3762
   27DOPE  H13S 3420   5.469   1.625   6.610 -0.2224  2.3244 -0.1433
   27DOPE  C214 3421   5.617   1.601   6.452  0.4516  0.2810 -1.3908
   27DOPE  H14R 3422   5.712   1.657   6.445  1.5457 -1.3260 -0.1090
   27DOPE  H14S 3423   5.532   1.641   6.393 -1.3067 -1.8821 -0.4789
   27DOPE  C215 3424   5.631   1.454   6.441  0.2991 -0.1381 -0.6307
   27DOPE  H15R 3425   5.539   1.392   6.449  0.2062  0.0876  0.0869
   27DOPE  H15S 3426   5.708   1.416   6.512  1.0467  0.4630 -1.1102
   27DOPE  C216 3427   5.685   1.417   6.305 -0.7941  0.3511  0.4751
   27DOPE  H16R 3428   5.782   1.469   6.288  0.1427 -0.8640  1.8746
   27DOPE  H16S 3429   5.625   1.462   6.223 -2.4825 -1.0350  0.9023
   27DOPE  C217 3430   5.688   1.265   6.279  0.0920 -0.0317 -0.2100
   27DOPE  H17R 3431   5.596   1.212   6.310  0.8700 -1.2753  0.0495
   27DOPE  H17S 3432   5.768   1.221   6.343 -1.7692  0.1114  2.3666
   27DOPE  C218 3433   5.713   1.237   6.131 -0.0405  0.7435  0.4002
   27DOPE  H18R 3434   5.741   1.132   6.108  1.6148  1.6879 -2.2857
   27DOPE  H18S 3435   5.796   1.295   6.086  0.9598 -1.5904 -0.9198
   27DOPE  H18T 3436   5.623   1.265   6.073 -1.2260  1.6210  2.5233
   27DOPE   C33 3437   5.468   2.060   7.307 -0.2707 -0.4191 -0.2070
   27DOPE   H3X 3438   5.362   2.091   7.323 -0.0995  0.8430 -1.3017
   27DOPE   H3Y 3439   5.485   1.951   7.294  1.0178  0.0675 -3.5840
   27DOPE   C34 3440   5.488   2.126   7.174  0.2374 -0.0773 -0.2079
   27DOPE   H4X 3441   5.442   2.227   7.169  0.1826 -0.1647 -2.2531
   27DOPE   H4Y 3442   5.595   2.126   7.144  0.5254 -0.2318  0.7834
   27DOPE   C35 3443   5.417   2.053   7.068 -0.0823 -0.1383 -0.0250
   27DOPE   H5X 3444   5.312   2.086   7.055 -0.0833  0.3425  1.0286
   27DOPE   H5Y 3445   5.427   1.943   7.067  0.7897 -0.0591 -1.5781
   27DOPE   C36 3446   5.470   2.106   6.928 -0.4485  0.3321  0.4362
   27DOPE   H6X 3447   5.569   2.056   6.924 -0.7668 -0.2356 -2.4188
   27DOPE   H6Y 3448   5.473   2.217   6.917  0.6614  0.0847 -2.8468
   27DOPE   C37 3449   5.385   2.055   6.807 -0.8193  0.4965 -0.2897
   27DOPE   H7X 3450   5.391   1.946   6.826  0.4503  0.6219  0.1637
   27DOPE   H7Y 3451   5.279   2.082   6.820 -1.3186 -1.3916 -0.1577
   27DOPE   C38 3452   5.449   2.094   6.671  0.0288  0.1436 -0.5583
   27DOPE   H8X 3453   5.557   2.067   6.667  0.1774  0.6359 -0.0040
   27DOPE   H8Y 3454   5.458   2.205   6.674  0.2917  0.1124 -0.1031
   27DOPE   C39 3455   5.393   2.043   6.538  1.2909  0.1622 -0.0148
   27DOPE   H9X 3456   5.406   1.935   6.518  0.5840  0.3005 -1.3702
   27DOPE  C310 3457   5.332   2.113   6.440 -0.0541  0.2852 -0.3693
   27DOPE  H10X 3458   5.307   2.056   6.349 -0.9970  1.2910 -0.7626
   27DOPE  C311 3459   5.319   2.263   6.422 -0.3453  0.2395  0.3111
   27DOPE  H11X 3460   5.384   2.322   6.490  0.4328 -0.6070  0.3170
   27DOPE  H11Y 3461   5.353   2.289   6.320  0.5872  2.0070  1.0395
   27DOPE  C312 3462   5.168   2.312   6.424 -0.1447  0.8070  0.2919
   27DOPE  H12X 3463   5.179   2.421   6.407  1.8212  0.5177 -0.5972
   27DOPE  H12Y 3464   5.115   2.277   6.515  0.4412 -0.9832 -0.0240
   27DOPE  C313 3465   5.077   2.267   6.306  0.2557 -0.3075 -0.3485
   27DOPE  H13X 3466   5.061   2.157   6.310 -1.5016 -0.0530  1.7297
   27DOPE  H13Y 3467   4.981   2.323   6.313 -1.0760 -2.5420  0.5967
   27DOPE  C314 3468   5.139   2.311   6.177  0.1632 -0.5846  0.1570
   27DOPE  H14X 3469   5.229   2.247   6.166  0.6772  0.0932  0.3441
   27DOPE  H14Y 3470   5.163   2.420   6.171 -1.3202 -0.1192  1.8902
   27DOPE  C315 3471   5.053   2.279   6.058  0.0062  0.6947 -0.1846
   27DOPE  H15X 3472   4.968   2.350   6.057 -0.2229  0.4181 -0.5244
   27DOPE  H15Y 3473   5.005   2.179   6.065  1.0600  0.1735 -0.2224
   27DOPE  C316 3474   5.118   2.310   5.923 -0.0126  0.5443 -0.1312
   27DOPE  H16X 3475   5.136   2.419   5.916 -0.9642  0.8352  1.5391
   27DOPE  H16Y 3476   5.051   2.279   5.840  0.6565  0.6935 -0.7375
   27DOPE  C317 3477   5.258   2.247   5.882 -0.4420  0.0708 -0.2594
   27DOPE  H17X 3478   5.342   2.302   5.929 -1.3299  0.4987  0.8665
   27DOPE  H17Y 3479   5.256   2.147   5.931 -1.7720  0.6826  0.9877
   27DOPE  C318 3480   5.295   2.226   5.733 -0.1111  0.0028 -0.2439
   27DOPE  H18X 3481   5.402   2.193   5.731 -0.0509 -0.0389  1.6225
   27DOPE  H18Y 3482   5.225   2.149   5.695  0.6506  0.7427 -3.4636
   27DOPE  H18Z 3483   5.281   2.323   5.682 -1.1375  0.4118  0.7715
   28DOPE     N 3484   5.383   1.793   8.374  0.0002  0.0943 -0.1340
   28DOPE   HN1 3485   5.349   1.866   8.309 -0.6354 -0.7242 -0.7347
   28DOPE   HN2 3486   5.487   1.800   8.374  0.0082 -0.0003  0.0087
   28DOPE   HN3 3487   5.355   1.702   8.333  1.6240  1.0454 -3.7836
   28DOPE   C12 3488   5.321   1.829   8.509  0.1818  0.0460  0.1095
   28DOPE  H12A 3489   5.214   1.799   8.518  1.1707 -3.1812  3.7735
   28DOPE  H12B 3490   5.327   1.939   8.523  3.1683  0.1089 -1.0210
   28DOPE   C11 3491   5.396   1.753   8.626  0.3044  0.4404  0.5715
   28DOPE  H11A 3492   5.386   1.644   8.606  0.8447  1.0099 -3.6121
   28DOPE  H11B 3493   5.351   1.786   8.723  0.3217  2.0039  0.0798
   28DOPE     P 3494   5.664   1.720   8.593  0.2005  0.2313  0.0514
   28DOPE   O13 3495   5.681   1.624   8.708  0.8153 -0.1826 -0.4100
   28DOPE   O14 3496   5.779   1.807   8.579 -0.6100  0.2919  0.3814
   28DOPE   O11 3497   5.641   1.631   8.462 -0.0543  0.0318  0.3031
   28DOPE   O12 3498   5.529   1.802   8.615  0.3568 -0.0866 -0.0434
   28DOPE    C1 3499   5.576   1.504   8.460 -0.9486  0.0630 -0.5713
   28DOPE    HA 3500   5.466   1.503   8.475 -0.9678  0.1313 -0.7128
   28DOPE    HB 3501   5.619   1.440   8.541  0.3049  0.0901 -1.1922
   28DOPE    C2 3502   5.614   1.424   8.331 -0.1145  0.2246 -0.3753
   28DOPE    HS 3503   5.549   1.337   8.307  0.0161  0.2463 -0.8196
   28DOPE   O21 3504   5.753   1.386   8.345  0.2856  0.0550  0.1434
   28DOPE   C21 3505   5.787   1.291   8.255 -0.9045 -0.2970 -0.6633
   28DOPE   O22 3506   5.710   1.227   8.185 -0.2384  0.4224 -0.7430
   28DOPE   C22 3507   5.939   1.290   8.241 -0.6635 -0.5342 -0.0622
   28DOPE   H2R 3508   5.974   1.246   8.337 -0.6746 -0.5902 -0.0835
   28DOPE   H2S 3509   5.971   1.392   8.212  0.7145 -1.0664 -0.4834
   28DOPE    C3 3510   5.597   1.519   8.197  0.7201 -0.6875 -0.0276
   28DOPE    HX 3511   5.657   1.610   8.217  0.9736 -1.2644  1.9899
   28DOPE    HY 3512   5.490   1.545   8.206  1.1640  1.7748 -1.0152
   28DOPE   O31 3513   5.613   1.457   8.067 -0.1238 -0.2486 -0.3651
   28DOPE   C31 3514   5.727   1.482   8.001  0.0583  0.9786 -0.0961
   28DOPE   O32 3515   5.816   1.560   8.036  0.9267 -0.3615  0.3074
   28DOPE   C32 3516   5.738   1.400   7.874 -0.1297  0.0359  0.3644
   28DOPE   H2X 3517   5.720   1.293   7.899 -0.0128  0.5314  2.8587
   28DOPE   H2Y 3518   5.652   1.429   7.810  1.1567  0.7853 -1.0638
   28DOPE   C23 3519   5.982   1.213   8.114  0.4974 -0.2364  0.8277
   28DOPE   H3R 3520   5.940   1.258   8.021 -3.1833 -2.1498  1.3918
   28DOPE   H3S 3521   5.953   1.106   8.123 -3.8127  0.7944  1.4289
   28DOPE   C24 3522   6.132   1.234   8.112  0.3432  0.3622  0.1352
   28DOPE   H4R 3523   6.174   1.210   8.213 -0.9561  1.9125  1.0827
   28DOPE   H4S 3524   6.153   1.342   8.097  1.2483  0.4740  1.8449
   28DOPE   C25 3525   6.206   1.144   8.012  0.6913  0.6533  0.0232
   28DOPE   H5R 3526   6.189   1.037   8.038  1.2881  0.6067  0.2322
   28DOPE   H5S 3527   6.316   1.148   8.023  0.8986 -1.9154 -0.5066
   28DOPE   C26 3528   6.165   1.152   7.871  0.1821  0.5500  0.5152
   28DOPE   H6R 3529   6.206   1.252   7.845 -0.4583  1.0691  1.4392
   28DOPE   H6S 3530   6.055   1.153   7.862  0.1717  1.3843  0.6828
   28DOPE   C27 3531   6.225   1.053   7.771  0.6619  0.1552  0.6780
   28DOPE   H7R 3532   6.234   0.954   7.819  0.5675  0.4258  1.2559
   28DOPE   H7S 3533   6.328   1.085   7.745 -0.0796  2.0905 -0.0769
   28DOPE   C28 3534   6.134   1.048   7.642 -0.1770  0.1762  0.3562
   28DOPE   H8R 3535   6.150   1.143   7.587 -1.2887  1.7006  2.5055
   28DOPE   H8S 3536   6.027   1.053   7.672 -0.1281  1.4358  0.3596
   28DOPE   C29 3537   6.173   0.934   7.546  0.3913  0.1625 -0.4323
   28DOPE   H9R 3538   6.218   0.841   7.583  0.6249  0.3886 -0.1467
   28DOPE  C210 3539   6.171   0.948   7.411  0.0731  0.4493  0.3582
   28DOPE  H10R 3540   6.178   0.850   7.361  2.1291  0.5908  0.2654
   28DOPE  C211 3541   6.096   1.059   7.346  0.3916  0.0737  0.6817
   28DOPE  H11R 3542   6.161   1.147   7.326  1.2324 -1.2151 -3.1913
   28DOPE  H11S 3543   6.011   1.101   7.404  0.3292  0.9091 -0.0039
   28DOPE  C212 3544   6.037   1.021   7.210 -0.1848  0.2091  0.1617
   28DOPE  H12R 3545   5.979   1.112   7.183 -1.9755 -0.5725  1.1785
   28DOPE  H12S 3546   5.965   0.936   7.209 -1.2988  1.1086  0.7758
   28DOPE  C213 3547   6.153   0.987   7.107  0.4108  0.0758  0.2936
   28DOPE  H13R 3548   6.184   0.882   7.127 -0.1474 -0.4634 -1.5308
   28DOPE  H13S 3549   6.234   1.060   7.127  0.1793  0.8743 -1.5041
   28DOPE  C214 3550   6.107   1.004   6.961 -0.2886  0.1130  0.9382
   28DOPE  H14R 3551   6.010   0.954   6.943  0.2304 -0.2832 -0.9699
   28DOPE  H14S 3552   6.181   0.964   6.889  1.1239  0.0515  2.3442
   28DOPE  C215 3553   6.105   1.156   6.920  0.2964  0.0002  0.0997
   28DOPE  H15R 3554   6.197   1.206   6.957 -0.6611  2.4051 -0.5830
   28DOPE  H15S 3555   6.011   1.192   6.968  0.8041 -0.0713  1.1744
   28DOPE  C216 3556   6.086   1.170   6.771  0.6753  0.2123  0.0383
   28DOPE  H16R 3557   6.004   1.102   6.739 -0.4921  0.6490  1.9273
   28DOPE  H16S 3558   6.177   1.142   6.713 -1.1596 -0.1238 -2.9264
   28DOPE  C217 3559   6.047   1.313   6.731 -0.6966  0.0680  0.8182
   28DOPE  H17R 3560   6.123   1.379   6.777 -0.4657  1.0585 -0.8836
   28DOPE  H17S 3561   5.948   1.347   6.766 -1.3885  0.3691 -1.2960
   28DOPE  C218 3562   6.066   1.327   6.577  0.6138  0.2374  0.8262
   28DOPE  H18R 3563   6.031   1.424   6.536  0.6875  0.3825  1.1015
   28DOPE  H18S 3564   5.992   1.254   6.536 -0.3347  2.5588 -1.9358
   28DOPE  H18T 3565   6.170   1.306   6.546 -0.5875 -2.4101 -1.9451
   28DOPE   C33 3566   5.866   1.423   7.787  0.2148  0.1787  0.0477
   28DOPE   H3X 3567   5.959   1.402   7.844  0.9081  3.3240  0.2499
   28DOPE   H3Y 3568   5.867   1.528   7.752 -1.0597  0.2116  0.0537
   28DOPE   C34 3569   5.861   1.325   7.666 -0.8123  0.4286  0.2530
   28DOPE   H4X 3570   5.966   1.318   7.630 -0.8012  3.1482 -0.4958
   28DOPE   H4Y 3571   5.830   1.224   7.698  1.4955  0.3353  2.5138
   28DOPE   C35 3572   5.752   1.370   7.565 -0.4399 -0.7605 -0.3478
   28DOPE   H5X 3573   5.770   1.479   7.552  2.9619 -1.1453  0.3363
   28DOPE   H5Y 3574   5.650   1.360   7.608 -0.1046  1.5544  1.1732
   28DOPE   C36 3575   5.760   1.304   7.423  0.2320 -0.6412 -0.1657
   28DOPE   H6X 3576   5.780   1.195   7.426  3.1623 -0.2063 -0.6577
   28DOPE   H6Y 3577   5.853   1.346   7.379  0.0051 -0.0043 -0.0472
   28DOPE   C37 3578   5.646   1.338   7.325 -0.0761  0.1979 -0.0974
   28DOPE   H7X 3579   5.548   1.328   7.378  0.0531  2.4123  0.6340
   28DOPE   H7Y 3580   5.649   1.445   7.296 -1.8946  0.1579 -0.6103
   28DOPE   C38 3581   5.638   1.238   7.203 -0.1284 -0.3607 -0.0696
   28DOPE   H8X 3582   5.625   1.137   7.248  1.1250  0.5170  2.4487
   28DOPE   H8Y 3583   5.734   1.230   7.148 -0.5448 -1.7130 -0.6392
   28DOPE   C39 3584   5.520   1.270   7.115 -0.3967 -0.8401  0.0508
   28DOPE   H9X 3585   5.428   1.293   7.170 -0.1949  2.3122 -0.7202
   28DOPE  C310 3586   5.517   1.260   6.981 -1.4969 -0.6053  0.1761
   28DOPE  H10X 3587   5.421   1.286   6.934 -1.4594  0.4830  0.6596
   28DOPE  C311 3588   5.640   1.227   6.887  0.4955 -0.2673  0.2569
   28DOPE  H11X 3589   5.684   1.318   6.841 -2.5566  0.6556 -1.1101
   28DOPE  H11Y 3590   5.719   1.168   6.938  1.5345  1.1453  0.3454
   28DOPE  C312 3591   5.589   1.144   6.767 -0.2644 -0.0688  0.4571
   28DOPE  H12X 3592   5.527   1.208   6.700  0.1748 -0.8795 -0.7584
   28DOPE  H12Y 3593   5.534   1.051   6.793  0.0082 -0.8450 -1.5455
   28DOPE  C313 3594   5.702   1.075   6.700 -0.6607 -0.4917  0.5959
   28DOPE  H13X 3595   5.766   1.159   6.666 -1.9400  0.6672  0.9709
   28DOPE  H13Y 3596   5.753   1.008   6.772 -1.5999 -0.3700  1.3989
   28DOPE  C314 3597   5.660   1.000   6.576 -0.1906  1.3348 -0.2178
   28DOPE  H14X 3598   5.630   1.080   6.504 -0.3695 -0.3475 -2.1063
   28DOPE  H14Y 3599   5.571   0.937   6.596  1.1889  0.1947  2.8438
   28DOPE  C315 3600   5.759   0.898   6.511  0.0650  0.3772  0.1000
   28DOPE  H15X 3601   5.704   0.856   6.424 -1.6389 -0.8162  1.6907
   28DOPE  H15Y 3602   5.773   0.806   6.571 -2.8889 -0.0690  0.2225
   28DOPE  C316 3603   5.891   0.957   6.465  0.4282 -0.2139 -0.0839
   28DOPE  H16X 3604   5.942   0.962   6.564 -1.0577  1.1846  0.6538
   28DOPE  H16Y 3605   5.882   1.059   6.422 -1.1759 -0.9018 -1.5042
   28DOPE  C317 3606   5.985   0.862   6.392 -0.4662 -0.6166  0.4256
   28DOPE  H17X 3607   6.091   0.890   6.409 -0.0759 -1.7300 -0.0792
   28DOPE  H17Y 3608   5.966   0.762   6.438 -1.6631  0.1436  1.6808
   28DOPE  C318 3609   5.949   0.858   6.240  0.1744 -0.3477  0.5832
   28DOPE  H18X 3610   6.010   0.784   6.184  1.3607  0.6273  0.5739
   28DOPE  H18Y 3611   5.842   0.836   6.219  0.0580  1.2322 -0.6313
   28DOPE  H18Z 3612   5.971   0.955   6.192 -0.5740 -1.8153 -3.0816
   29DOPE     N 3613   6.025   2.732   8.526  0.2319  0.4510  0.0422
   29DOPE   HN1 3614   5.924   2.749   8.547  1.0195  2.3289  2.8521
   29DOPE   HN2 3615   6.039   2.632   8.549  0.5963  0.5195  0.1202
   29DOPE   HN3 3616   6.082   2.790   8.591 -1.2946  3.0510 -0.7554
   29DOPE   C12 3617   6.060   2.755   8.382 -0.3543 -0.0477  0.4533
   29DOPE  H12A 3618   5.983   2.705   8.319 -1.1362  0.9206  0.6079
   29DOPE  H12B 3619   6.154   2.697   8.369 -0.4926 -0.8480  2.5882
   29DOPE   C11 3620   6.068   2.904   8.345  0.1713  0.1217  0.7599
   29DOPE  H11A 3621   5.963   2.932   8.370 -0.1842 -2.1278  2.0777
   29DOPE  H11B 3622   6.080   2.923   8.237 -1.1200  0.7679  0.7085
   29DOPE     P 3623   6.303   2.957   8.447 -0.2262  0.2575  0.2770
   29DOPE   O13 3624   6.328   2.834   8.521  0.1576  0.4407 -0.0606
   29DOPE   O14 3625   6.358   3.081   8.500 -0.8907 -0.5428 -0.8143
   29DOPE   O11 3626   6.349   2.932   8.297  0.1415 -0.4302 -0.2139
   29DOPE   O12 3627   6.155   2.981   8.426  0.0249 -0.3542 -0.4626
   29DOPE    C1 3628   6.468   2.998   8.258 -0.5216 -0.0911 -0.8913
   29DOPE    HA 3629   6.554   2.979   8.326 -0.2377  3.5351 -0.0109
   29DOPE    HB 3630   6.463   3.109   8.259  0.9237 -0.0066 -0.9433
   29DOPE    C2 3631   6.501   2.970   8.107  0.1010 -0.2748  0.7274
   29DOPE    HS 3632   6.604   3.008   8.091  0.4921 -0.8557  1.7413
   29DOPE   O21 3633   6.398   3.032   8.027  0.0823 -0.5001 -0.7929
   29DOPE   C21 3634   6.440   3.074   7.907  0.1657  0.0238 -0.0525
   29DOPE   O22 3635   6.556   3.073   7.871 -0.2267 -0.3664  1.0671
   29DOPE   C22 3636   6.325   3.131   7.825  0.4110  0.3113 -0.3170
   29DOPE   H2R 3637   6.277   3.211   7.884 -0.8212 -1.1809  0.8084
   29DOPE   H2S 3638   6.252   3.047   7.833  0.9479  0.0362  3.9417
   29DOPE    C3 3639   6.499   2.816   8.082 -0.6140  0.0848 -0.4355
   29DOPE    HX 3640   6.402   2.778   8.120 -1.1528 -0.9871 -2.6742
   29DOPE    HY 3641   6.578   2.763   8.139 -1.3052 -0.2938  0.1830
   29DOPE   O31 3642   6.517   2.778   7.941  0.4993 -0.3038 -0.2770
   29DOPE   C31 3643   6.642   2.761   7.895  0.3774  0.3865 -0.1613
   29DOPE   O32 3644   6.743   2.773   7.960  0.2047 -0.3400 -0.2284
   29DOPE   C32 3645   6.634   2.705   7.756  0.3708 -1.0690  0.5696
   29DOPE   H2X 3646   6.724   2.646   7.728  1.0448  0.5117 -0.7604
   29DOPE   H2Y 3647   6.546   2.636   7.761  1.0766 -1.9559  1.1524
   29DOPE   C23 3648   6.362   3.178   7.685 -0.0272 -0.8703  0.1135
   29DOPE   H3R 3649   6.377   3.093   7.616  0.8052  1.5691 -2.9135
   29DOPE   H3S 3650   6.453   3.236   7.710 -0.0907 -0.5960 -0.2843
   29DOPE   C24 3651   6.248   3.278   7.634 -0.0039  0.5816 -0.1455
   29DOPE   H4R 3652   6.228   3.348   7.718 -2.0569 -0.4829  0.3287
   29DOPE   H4S 3653   6.162   3.210   7.614  0.4639  0.4335 -1.8513
   29DOPE   C25 3654   6.294   3.339   7.504 -0.1603  0.4736 -0.0475
   29DOPE   H5R 3655   6.404   3.347   7.515  0.0427 -1.7304 -0.0505
   29DOPE   H5S 3656   6.253   3.442   7.497 -1.0630  0.2229  1.1982
   29DOPE   C26 3657   6.252   3.256   7.383  0.2949 -0.1339 -0.5014
   29DOPE   H6R 3658   6.146   3.223   7.377  0.6930 -1.5127 -0.3204
   29DOPE   H6S 3659   6.314   3.167   7.405 -1.8602 -1.3733  0.8820
   29DOPE   C27 3660   6.285   3.333   7.251  1.1308 -0.2734 -0.0275
   29DOPE   H7R 3661   6.384   3.382   7.266  0.6208  0.2118  1.9990
   29DOPE   H7S 3662   6.209   3.412   7.236 -0.1161 -1.8777 -2.7242
   29DOPE   C28 3663   6.282   3.251   7.122 -0.1603  0.0410  0.4433
   29DOPE   H8R 3664   6.356   3.169   7.134 -0.6037 -0.4872 -0.3250
   29DOPE   H8S 3665   6.330   3.316   7.046  1.5844  0.9852  2.2357
   29DOPE   C29 3666   6.150   3.200   7.087  0.4194 -0.1088  1.0325
   29DOPE   H9R 3667   6.061   3.253   7.125 -0.4591 -1.5302  1.0350
   29DOPE  C210 3668   6.127   3.113   6.985 -0.4323  0.3224  0.6675
   29DOPE  H10R 3669   6.027   3.074   6.961  0.2129 -0.4191 -0.9817
   29DOPE  C211 3670   6.235   3.052   6.905  0.0925  0.3887 -0.2005
   29DOPE  H11R 3671   6.214   2.944   6.891 -0.9014 -0.2094  4.4338
   29DOPE  H11S 3672   6.335   3.047   6.954 -0.0867  0.2559  0.1552
   29DOPE  C212 3673   6.254   3.128   6.774 -0.5244  1.1765  1.4706
   29DOPE  H12R 3674   6.331   3.084   6.706 -3.2991  0.5888 -1.5756
   29DOPE  H12S 3675   6.275   3.236   6.790 -4.2429  2.2870  0.0098
   29DOPE  C213 3676   6.132   3.143   6.688  0.7244  0.0631  0.3244
   29DOPE  H13R 3677   6.047   3.202   6.728  1.8241  1.1999  1.0519
   29DOPE  H13S 3678   6.107   3.037   6.665  1.3943 -0.1683  0.6402
   29DOPE  C214 3679   6.162   3.207   6.543  0.0788  0.1375 -0.4401
   29DOPE  H14R 3680   6.072   3.210   6.478 -0.0947 -2.1735 -0.3743
   29DOPE  H14S 3681   6.239   3.138   6.501 -0.7230 -0.4135 -1.0416
   29DOPE  C215 3682   6.228   3.339   6.554 -0.3578 -0.7156  0.4898
   29DOPE  H15R 3683   6.330   3.348   6.598 -0.2819  4.4923 -0.0899
   29DOPE  H15S 3684   6.180   3.416   6.618  0.6463  1.1699 -0.9458
   29DOPE  C216 3685   6.241   3.411   6.420 -0.3311  0.3729  0.4410
   29DOPE  H16R 3686   6.246   3.520   6.440 -1.2656  0.8300 -1.4900
   29DOPE  H16S 3687   6.142   3.398   6.370 -0.8146 -0.0591  1.4883
   29DOPE  C217 3688   6.355   3.356   6.329  0.7131 -0.2612  0.7420
   29DOPE  H17R 3689   6.331   3.254   6.295 -0.1529 -0.1170  0.9112
   29DOPE  H17S 3690   6.449   3.357   6.390  0.9446 -1.6474  0.4423
   29DOPE  C218 3691   6.382   3.433   6.204 -0.9079 -0.5904  0.5862
   29DOPE  H18R 3692   6.306   3.417   6.126  1.5835  1.9599 -2.6495
   29DOPE  H18S 3693   6.483   3.405   6.166 -1.1748  0.0756 -0.6558
   29DOPE  H18T 3694   6.397   3.538   6.236  1.5251 -1.4693  2.6623
   29DOPE   C33 3695   6.583   2.813   7.659 -0.9114 -0.2531 -0.3104
   29DOPE   H3X 3696   6.656   2.896   7.647  0.1789 -1.3328 -1.3979
   29DOPE   H3Y 3697   6.491   2.861   7.698  0.0147  0.1863  1.4524
   29DOPE   C34 3698   6.570   2.742   7.528  0.1150  0.3772  0.6470
   29DOPE   H4X 3699   6.665   2.697   7.494 -0.8192 -0.7780 -0.5337
   29DOPE   H4Y 3700   6.499   2.656   7.528 -1.3615  1.3939 -3.0523
   29DOPE   C35 3701   6.534   2.850   7.415 -0.1876 -0.1229 -0.2139
   29DOPE   H5X 3702   6.605   2.935   7.428 -0.6831  0.2103  0.3978
   29DOPE   H5Y 3703   6.430   2.891   7.417  0.0425  0.6296 -2.0952
   29DOPE   C36 3704   6.547   2.784   7.278 -0.5949  0.1381 -0.4122
   29DOPE   H6X 3705   6.498   2.684   7.284 -0.0566 -0.0925  0.3842
   29DOPE   H6Y 3706   6.652   2.750   7.268 -0.0633  1.3309  0.7711
   29DOPE   C37 3707   6.515   2.872   7.161  0.4633 -0.0527  0.2002
   29DOPE   H7X 3708   6.404   2.876   7.155  0.4561 -0.2189  0.2403
   29DOPE   H7Y 3709   6.569   2.967   7.184 -0.1090  0.4850 -0.5864
   29DOPE   C38 3710   6.567   2.814   7.025  0.6503 -0.3154  1.1379
   29DOPE   H8X 3711   6.671   2.778   7.044  0.4376 -0.3699  2.2774
   29DOPE   H8Y 3712   6.577   2.895   6.949  0.9654 -2.6016 -1.4264
   29DOPE   C39 3713   6.489   2.696   6.965 -0.5004 -0.1937 -0.3779
   29DOPE   H9X 3714   6.489   2.620   7.044  1.4157  1.8435  1.7005
   29DOPE  C310 3715   6.445   2.684   6.837  0.6978 -0.2084 -0.1377
   29DOPE  H10X 3716   6.405   2.589   6.799 -0.2461  0.0860  0.0830
   29DOPE  C311 3717   6.446   2.793   6.724  0.4081  0.0569 -0.0142
   29DOPE  H11X 3718   6.353   2.853   6.730  0.2090 -0.3573  1.9595
   29DOPE  H11Y 3719   6.516   2.877   6.743  1.3448 -0.5614 -0.6634
   29DOPE  C312 3720   6.471   2.728   6.590  1.1124  0.1738  0.8238
   29DOPE  H12X 3721   6.539   2.641   6.585  2.9347  1.5122  1.4561
   29DOPE  H12Y 3722   6.512   2.809   6.526  1.4565 -0.4099  0.3050
   29DOPE  C313 3723   6.334   2.681   6.526 -0.9030 -0.3616 -0.2553
   29DOPE  H13X 3724   6.291   2.603   6.592 -0.1461 -0.7768 -0.2403
   29DOPE  H13Y 3725   6.261   2.765   6.529 -1.7227 -1.0786  0.6773
   29DOPE  C314 3726   6.363   2.630   6.385  0.6523 -0.3025  0.0545
   29DOPE  H14X 3727   6.425   2.699   6.324  0.5558 -1.6096 -1.6264
   29DOPE  H14Y 3728   6.266   2.626   6.330  0.4359 -1.0501  0.4828
   29DOPE  C315 3729   6.429   2.494   6.374  0.6966  0.7152 -0.3036
   29DOPE  H15X 3730   6.525   2.487   6.429  0.6493  0.6556 -0.2294
   29DOPE  H15Y 3731   6.452   2.477   6.266  2.3480 -1.3875  0.3012
   29DOPE  C316 3732   6.326   2.387   6.422 -0.3594  0.0337  0.1028
   29DOPE  H16X 3733   6.228   2.400   6.371  0.6932 -2.5302 -2.8985
   29DOPE  H16Y 3734   6.312   2.382   6.532  0.4091  0.2137  0.2134
   29DOPE  C317 3735   6.364   2.236   6.376 -0.0125 -0.3815 -0.7782
   29DOPE  H17X 3736   6.382   2.224   6.267  1.3777 -0.8602 -0.5258
   29DOPE  H17Y 3737   6.462   2.209   6.421 -0.8765 -1.4483  0.5690
   29DOPE  C318 3738   6.255   2.144   6.414 -0.0488 -0.1412  0.6013
   29DOPE  H18X 3739   6.272   2.037   6.391  1.2246 -0.0331  0.9727
   29DOPE  H18Y 3740   6.235   2.151   6.523 -0.9616 -1.0725  0.5159
   29DOPE  H18Z 3741   6.162   2.179   6.363 -0.0604  0.0428  0.7452
   30DOPE     N 3742   6.470   0.795   8.770  0.2530  0.4916 -0.8657
   30DOPE   HN1 3743   6.538   0.864   8.807 -0.5848  0.5156  0.7384
   30DOPE   HN2 3744   6.375   0.835   8.756  0.5572  1.4312 -0.3327
   30DOPE   HN3 3745   6.463   0.732   8.853  1.4928 -0.5565 -1.5024
   30DOPE   C12 3746   6.521   0.724   8.647  0.5248 -0.3791  0.5813
   30DOPE  H12A 3747   6.630   0.707   8.662  0.4170 -1.2044  0.4663
   30DOPE  H12B 3748   6.509   0.800   8.567  2.7328  1.1953  1.6389
   30DOPE   C11 3749   6.429   0.609   8.617 -1.0029  0.3075  0.1022
   30DOPE  H11A 3750   6.464   0.559   8.523  0.5550 -0.1600  0.8892
   30DOPE  H11B 3751   6.325   0.642   8.599 -0.8933 -0.5318 -2.6867
   30DOPE     P 3752   6.513   0.390   8.739 -0.6261 -0.4416 -0.3854
   30DOPE   O13 3753   6.423   0.276   8.710  0.6047  1.0762 -0.4099
   30DOPE   O14 3754   6.574   0.386   8.871  0.7285  0.0978 -0.0176
   30DOPE   O11 3755   6.618   0.407   8.618  0.2952  0.0736 -0.5152
   30DOPE   O12 3756   6.426   0.520   8.733  0.0459  0.2724  0.2975
   30DOPE    C1 3757   6.753   0.442   8.665 -0.5294 -0.4697 -0.2474
   30DOPE    HA 3758   6.808   0.351   8.696  2.3386  1.1133 -0.2436
   30DOPE    HB 3759   6.752   0.509   8.754  0.0470  0.0108 -0.5879
   30DOPE    C2 3760   6.845   0.508   8.560 -0.1222  0.0676  0.3435
   30DOPE    HS 3761   6.804   0.609   8.539  0.5756  0.3694  0.4044
   30DOPE   O21 3762   6.845   0.424   8.440  0.2862 -0.3852 -0.7473
   30DOPE   C21 3763   6.769   0.481   8.340 -0.0726  0.2659 -0.8438
   30DOPE   O22 3764   6.728   0.593   8.347 -0.3089  0.2305 -0.0698
   30DOPE   C22 3765   6.758   0.385   8.224  0.9458  0.1796  0.0795
   30DOPE   H2R 3766   6.712   0.288   8.252 -3.5368  2.5386  1.9169
   30DOPE   H2S 3767   6.864   0.364   8.199  0.6145 -0.8993 -0.4710
   30DOPE    C3 3768   6.991   0.521   8.609 -0.4425 -0.8431  0.5686
   30DOPE    HX 3769   7.035   0.437   8.667  0.9534  0.2003  1.0763
   30DOPE    HY 3770   6.997   0.603   8.684 -2.4720  0.6708 -0.7938
   30DOPE   O31 3771   7.073   0.552   8.495 -0.0597  0.1932  0.3674
   30DOPE   C31 3772   7.179   0.492   8.467 -0.4941 -0.8589 -0.2286
   30DOPE   O32 3773   7.230   0.397   8.529  0.3959  0.5784  0.5200
   30DOPE   C32 3774   7.230   0.541   8.327  0.3346  0.3515  0.6640
   30DOPE   H2X 3775   7.134   0.571   8.279 -0.5538 -2.4922  0.4747
   30DOPE   H2Y 3776   7.283   0.639   8.333 -1.8930  1.7870 -1.1838
   30DOPE   C23 3777   6.677   0.440   8.103 -0.5228 -0.0153 -0.2368
   30DOPE   H3R 3778   6.727   0.537   8.077 -0.6633 -0.1698 -1.1074
   30DOPE   H3S 3779   6.569   0.452   8.127 -0.5263  0.2721 -0.3893
   30DOPE   C24 3780   6.699   0.349   7.975 -0.9246  0.9746 -0.1253
   30DOPE   H4R 3781   6.639   0.255   7.983  1.7425 -0.9542 -1.2346
   30DOPE   H4S 3782   6.806   0.317   7.971 -0.6227  1.9827 -0.2956
   30DOPE   C25 3783   6.658   0.419   7.850  0.4379 -0.0797  0.0656
   30DOPE   H5R 3784   6.719   0.512   7.843  0.4644 -0.1848 -1.4566
   30DOPE   H5S 3785   6.551   0.447   7.844  0.6329  0.5138 -0.9056
   30DOPE   C26 3786   6.691   0.342   7.715 -0.7771  0.0264  0.5267
   30DOPE   H6R 3787   6.641   0.243   7.713  0.8449 -0.8443  0.6606
   30DOPE   H6S 3788   6.798   0.316   7.732 -1.2305 -2.0811  0.4108
   30DOPE   C27 3789   6.659   0.418   7.583  0.5744 -0.1428 -0.0574
   30DOPE   H7R 3790   6.694   0.522   7.597  0.2474 -0.3872  3.1519
   30DOPE   H7S 3791   6.549   0.425   7.565  0.4106  1.8725  1.4219
   30DOPE   C28 3792   6.723   0.374   7.445 -0.8686 -0.3202 -0.2107
   30DOPE   H8R 3793   6.830   0.344   7.447 -0.9154 -0.4616  0.3811
   30DOPE   H8S 3794   6.717   0.460   7.376  1.0021 -0.5877 -0.7712
   30DOPE   C29 3795   6.636   0.270   7.378 -0.5100 -0.5861  0.3976
   30DOPE   H9R 3796   6.550   0.245   7.441  0.2738  1.2660  2.3048
   30DOPE  C210 3797   6.657   0.198   7.267 -0.2181 -0.1065  0.1577
   30DOPE  H10R 3798   6.586   0.122   7.232 -0.7156  1.0958 -1.5518
   30DOPE  C211 3799   6.765   0.230   7.166  0.1487  0.2145 -0.3120
   30DOPE  H11R 3800   6.793   0.143   7.104 -0.4501  0.2883 -0.6946
   30DOPE  H11S 3801   6.850   0.272   7.224  0.0411  0.8149 -0.5805
   30DOPE  C212 3802   6.720   0.339   7.065 -0.5130  0.4133 -0.3537
   30DOPE  H12R 3803   6.808   0.383   7.014 -0.8944  2.2145  0.4748
   30DOPE  H12S 3804   6.667   0.417   7.123 -1.3157  1.4772 -2.4248
   30DOPE  C213 3805   6.637   0.285   6.945  0.4602  0.4721  0.6227
   30DOPE  H13R 3806   6.561   0.222   6.996  0.1733 -1.1875 -1.6993
   30DOPE  H13S 3807   6.699   0.214   6.886  0.1436  1.2110 -0.6350
   30DOPE  C214 3808   6.567   0.394   6.865 -0.7860  0.0850 -0.1695
   30DOPE  H14R 3809   6.643   0.474   6.855 -0.1210 -0.7296 -2.3178
   30DOPE  H14S 3810   6.476   0.419   6.923  0.3463  1.3316  1.1200
   30DOPE  C215 3811   6.518   0.365   6.721 -0.0839  0.2375  0.1374
   30DOPE  H15R 3812   6.413   0.328   6.719  0.2062 -0.6510  0.6059
   30DOPE  H15S 3813   6.579   0.278   6.690  0.4146  0.3002  0.9207
   30DOPE  C216 3814   6.539   0.480   6.624 -0.6421 -0.0674  0.1076
   30DOPE  H16R 3815   6.646   0.510   6.628 -0.0050 -2.0862 -0.8570
   30DOPE  H16S 3816   6.478   0.569   6.652 -1.7268 -0.0334 -2.1520
   30DOPE  C217 3817   6.506   0.464   6.471  0.1409  0.4563 -0.1928
   30DOPE  H17R 3818   6.532   0.564   6.431 -1.3915  0.0783 -2.2894
   30DOPE  H17S 3819   6.396   0.451   6.457  0.3152 -1.3862 -0.1471
   30DOPE  C218 3820   6.588   0.355   6.402 -1.1938  0.2215  0.7264
   30DOPE  H18R 3821   6.559   0.356   6.294 -0.9695 -0.0243  0.6612
   30DOPE  H18S 3822   6.562   0.254   6.440 -1.5048 -0.4993 -1.2573
   30DOPE  H18T 3823   6.696   0.379   6.406 -1.1570  0.6575 -1.4998
   30DOPE   C33 3824   7.298   0.443   8.232  0.7147 -0.4287  0.4152
   30DOPE   H3X 3825   7.239   0.349   8.230 -0.5988  0.3704  0.8962
   30DOPE   H3Y 3826   7.400   0.425   8.271  1.1399  2.3426  0.7299
   30DOPE   C34 3827   7.309   0.496   8.084  0.5261  0.4042  0.4963
   30DOPE   H4X 3828   7.209   0.525   8.047  1.5195  1.6314 -1.4114
   30DOPE   H4Y 3829   7.361   0.594   8.089 -0.9945  1.3669 -1.2597
   30DOPE   C35 3830   7.363   0.387   7.991  0.2775  0.2752  0.3890
   30DOPE   H5X 3831   7.305   0.293   7.988  1.5905 -0.5502 -0.3439
   30DOPE   H5Y 3832   7.464   0.351   8.023  0.0076 -1.9626 -1.0580
   30DOPE   C36 3833   7.379   0.430   7.847  0.2954 -0.1426 -0.6557
   30DOPE   H6X 3834   7.409   0.537   7.839 -1.8926  0.5275 -0.5693
   30DOPE   H6Y 3835   7.277   0.412   7.808  0.2533  0.4744 -0.8536
   30DOPE   C37 3836   7.473   0.336   7.762 -0.5573  0.6032 -0.3020
   30DOPE   H7X 3837   7.557   0.300   7.826 -2.6572  1.7390  3.4112
   30DOPE   H7Y 3838   7.413   0.245   7.743  0.2988 -0.4980  1.8663
   30DOPE   C38 3839   7.524   0.397   7.629 -0.0340  0.5806  0.4472
   30DOPE   H8X 3840   7.602   0.334   7.581 -0.9101  0.2838 -0.6325
   30DOPE   H8Y 3841   7.583   0.489   7.649  1.6068 -0.4341  0.4686
   30DOPE   C39 3842   7.398   0.418   7.547  0.1117 -0.0541  0.1365
   30DOPE   H9X 3843   7.324   0.495   7.574 -0.7355 -0.5417 -0.7609
   30DOPE  C310 3844   7.361   0.363   7.432  0.1572  0.0571 -0.5510
   30DOPE  H10X 3845   7.259   0.372   7.391  0.7967 -0.8744 -2.4508
   30DOPE  C311 3846   7.435   0.259   7.357 -0.3126  0.3078  0.1376
   30DOPE  H11X 3847   7.537   0.240   7.398  1.2262  3.7750 -1.6258
   30DOPE  H11Y 3848   7.381   0.162   7.366  1.0754 -0.5123  0.0171
   30DOPE  C312 3849   7.460   0.293   7.208  0.3166 -0.2015  0.0316
   30DOPE  H12X 3850   7.503   0.395   7.193 -2.0019  0.4253 -3.3588
   30DOPE  H12Y 3851   7.362   0.295   7.156 -0.0473 -0.3110  0.6956
   30DOPE  C313 3852   7.553   0.195   7.136  0.1962  0.0488 -0.7897
   30DOPE  H13X 3853   7.642   0.180   7.200  0.0354  0.6967 -0.4097
   30DOPE  H13Y 3854   7.506   0.095   7.132  1.5868 -0.6889  0.4880
   30DOPE  C314 3855   7.610   0.247   6.998  0.5144  0.0249 -0.4171
   30DOPE  H14X 3856   7.693   0.180   6.966 -1.4767 -1.9265 -1.8536
   30DOPE  H14Y 3857   7.651   0.349   7.012  0.1665  0.3579 -1.7307
   30DOPE  C315 3858   7.513   0.230   6.887 -0.5956 -0.4479 -0.6010
   30DOPE  H15X 3859   7.410   0.267   6.908 -1.7563 -2.5754 -2.2265
   30DOPE  H15Y 3860   7.508   0.121   6.866  1.7843 -0.5214 -1.1352
   30DOPE  C316 3861   7.565   0.285   6.749  0.0809 -0.1993 -0.6178
   30DOPE  H16X 3862   7.594   0.390   6.775 -2.7223  0.6427 -0.5006
   30DOPE  H16Y 3863   7.485   0.298   6.673 -1.7330  0.9527  1.3446
   30DOPE  C317 3864   7.698   0.209   6.697  0.4878  0.3828 -0.0641
   30DOPE  H17X 3865   7.769   0.224   6.781  1.2275  1.5136 -0.8684
   30DOPE  H17Y 3866   7.675   0.101   6.684  0.2754  0.6081 -1.7815
   30DOPE  C318 3867   7.779   0.260   6.578 -0.8304  0.3397  0.9030
   30DOPE  H18X 3868   7.880   0.217   6.566 -0.2235  1.9834 -0.4581
   30DOPE  H18Y 3869   7.719   0.248   6.485  0.6347  2.2214 -0.3674
   30DOPE  H18Z 3870   7.794   0.371   6.580 -1.0237  0.3536  1.8932
   31DOPE     N 3871   2.463   4.615   4.029  0.1366  0.5098 -0.0026
   31DOPE   HN1 3872   2.530   4.691   4.055  1.9349 -1.0027  0.0271
   31DOPE   HN2 3873   2.488   4.576   3.936  1.6402 -1.7950  1.2805
   31DOPE   HN3 3874   2.363   4.643   4.026  0.1806  0.5842 -1.2859
   31DOPE   C12 3875   2.469   4.491   4.117 -0.0634 -0.3368 -0.6085
   31DOPE  H12A 3876   2.482   4.528   4.221  3.8815 -1.0398 -0.6961
   31DOPE  H12B 3877   2.565   4.438   4.097  1.0237  0.8693  1.1571
   31DOPE   C11 3878   2.351   4.403   4.099 -0.0303  0.2517 -0.1228
   31DOPE  H11A 3879   2.325   4.392   3.992  1.3850  3.0724 -0.8659
   31DOPE  H11B 3880   2.257   4.444   4.142  0.0868 -0.2953  0.6686
   31DOPE     P 3881   2.263   4.166   4.194 -0.1739 -0.1429  0.2771
   31DOPE   O13 3882   2.330   4.041   4.217  0.1604  0.0033  0.5038
   31DOPE   O14 3883   2.171   4.171   4.078  0.5641 -0.3110  0.1041
   31DOPE   O11 3884   2.178   4.220   4.322  0.1736  0.4066  0.6289
   31DOPE   O12 3885   2.377   4.274   4.159 -0.3673  0.1781  0.1925
   31DOPE    C1 3886   2.244   4.297   4.416 -0.2131 -0.1689  0.9366
   31DOPE    HA 3887   2.161   4.361   4.454 -0.1886 -0.4309  1.4412
   31DOPE    HB 3888   2.318   4.373   4.382  1.1805 -1.4741  0.9764
   31DOPE    C2 3889   2.309   4.219   4.535  0.1367 -0.9758  0.0406
   31DOPE    HS 3890   2.358   4.134   4.484 -3.5624 -2.7440 -0.9674
   31DOPE   O21 3891   2.205   4.175   4.630  0.7907 -0.5668  0.0476
   31DOPE   C21 3892   2.221   4.042   4.660 -0.3344 -0.6288 -0.1528
   31DOPE   O22 3893   2.309   3.966   4.620  0.3095 -0.0033 -0.3549
   31DOPE   C22 3894   2.125   4.000   4.768  0.0738 -0.1258  0.6180
   31DOPE   H2R 3895   2.128   3.890   4.752  3.0316  0.0549 -0.6456
   31DOPE   H2S 3896   2.023   4.039   4.747 -0.6167 -1.0498  2.1060
   31DOPE    C3 3897   2.414   4.302   4.621 -0.9959 -0.6214  0.3092
   31DOPE    HX 3898   2.367   4.396   4.655  0.3514  0.5773 -1.0148
   31DOPE    HY 3899   2.496   4.330   4.551 -0.8049 -0.3438  0.6408
   31DOPE   O31 3900   2.468   4.230   4.734  0.4609  0.3769 -0.2372
   31DOPE   C31 3901   2.571   4.144   4.700  0.4668 -0.2708  0.1806
   31DOPE   O32 3902   2.611   4.138   4.586 -0.0094  0.2889  0.3503
   31DOPE   C32 3903   2.608   4.052   4.813 -0.8620  0.0207  0.5945
   31DOPE   H2X 3904   2.588   4.090   4.915  0.0000  1.4282  0.2655
   31DOPE   H2Y 3905   2.557   3.956   4.791  1.6635 -1.4764  0.9344
   31DOPE   C23 3906   2.176   4.037   4.907 -0.0388 -0.0970 -0.0332
   31DOPE   H3R 3907   2.089   4.042   4.975 -0.9258  0.3646 -1.1693
   31DOPE   H3S 3908   2.209   4.143   4.919  1.4899 -0.7768  2.7903
   31DOPE   C24 3909   2.284   3.945   4.963 -0.0129  0.4666  0.1431
   31DOPE   H4R 3910   2.378   3.932   4.905  0.9184  0.8518  1.5032
   31DOPE   H4S 3911   2.248   3.841   4.980 -1.5205  0.8318 -0.6539
   31DOPE   C25 3912   2.338   4.001   5.095  0.1573 -0.0143  0.1634
   31DOPE   H5R 3913   2.256   4.019   5.168 -0.9595 -2.4589 -0.3704
   31DOPE   H5S 3914   2.389   4.096   5.072  0.8961 -0.3990  0.1807
   31DOPE   C26 3915   2.427   3.899   5.165 -0.3586 -0.1277 -0.4725
   31DOPE   H6R 3916   2.507   3.871   5.094 -1.1907 -0.8275 -1.1486
   31DOPE   H6S 3917   2.370   3.806   5.180 -0.4730 -0.2811 -1.7826
   31DOPE   C27 3918   2.484   3.932   5.307  0.3327  0.5944  0.4142
   31DOPE   H7R 3919   2.544   4.023   5.284  1.1697 -0.3957 -1.5077
   31DOPE   H7S 3920   2.555   3.856   5.344  0.2164 -0.0601 -0.6832
   31DOPE   C28 3921   2.372   3.960   5.406 -0.9529 -0.0476 -0.6542
   31DOPE   H8R 3922   2.318   3.865   5.422  2.0890 -1.9295 -0.7037
   31DOPE   H8S 3923   2.300   4.036   5.368 -0.4595 -0.2275 -1.9954
   31DOPE   C29 3924   2.443   4.001   5.538  0.2940 -0.3983 -1.2740
   31DOPE   H9R 3925   2.544   3.961   5.560  1.0380  1.6139 -0.8014
   31DOPE  C210 3926   2.401   4.090   5.633  0.4350 -0.1020  0.5230
   31DOPE  H10R 3927   2.458   4.111   5.724 -0.6131  2.1087  0.7270
   31DOPE  C211 3928   2.272   4.165   5.634 -0.4858  0.5015  0.1960
   31DOPE  H11R 3929   2.188   4.093   5.637 -0.1411  0.1457  2.8543
   31DOPE  H11S 3930   2.266   4.211   5.532  0.2536  0.7125  0.2405
   31DOPE  C212 3931   2.235   4.269   5.740 -0.1272 -0.0188  0.7319
   31DOPE  H12R 3932   2.127   4.296   5.735 -0.4141 -1.2723 -0.9546
   31DOPE  H12S 3933   2.293   4.362   5.726 -0.7246  0.7219  2.8291
   31DOPE  C213 3934   2.254   4.229   5.891 -0.1763 -0.6094 -0.1732
   31DOPE  H13R 3935   2.365   4.222   5.902  0.0539  1.8731 -0.2547
   31DOPE  H13S 3936   2.210   4.128   5.902  2.1766 -1.4464  2.9809
   31DOPE  C214 3937   2.194   4.329   5.991  0.1730 -0.0131 -0.3520
   31DOPE  H14R 3938   2.086   4.355   5.986  0.4476  1.3318  0.1790
   31DOPE  H14S 3939   2.246   4.425   5.968  0.9505  0.4723  2.9792
   31DOPE  C215 3940   2.239   4.283   6.131  0.3916  0.8328 -0.4017
   31DOPE  H15R 3941   2.346   4.256   6.120  1.1283  2.6613  1.6691
   31DOPE  H15S 3942   2.183   4.188   6.146 -0.0839  1.0468 -0.7571
   31DOPE  C216 3943   2.216   4.385   6.245  0.1680  0.5236 -0.9746
   31DOPE  H16R 3944   2.117   4.435   6.252  0.7681  1.5955  0.2801
   31DOPE  H16S 3945   2.291   4.468   6.245 -3.0517  3.7603  1.5822
   31DOPE  C217 3946   2.215   4.322   6.386 -0.0635 -0.0768  1.0704
   31DOPE  H17R 3947   2.308   4.266   6.408 -0.3534 -0.4986  1.2280
   31DOPE  H17S 3948   2.135   4.246   6.396  0.2008 -0.4321  0.4910
   31DOPE  C218 3949   2.192   4.442   6.490  0.1161  0.0922 -0.7166
   31DOPE  H18R 3950   2.162   4.397   6.588  2.1890 -0.7246 -0.4105
   31DOPE  H18S 3951   2.117   4.515   6.454 -0.3815 -0.8444 -1.6312
   31DOPE  H18T 3952   2.284   4.501   6.511 -0.8640  1.8508 -1.1949
   31DOPE   C33 3953   2.765   4.012   4.822  0.3362 -0.3281 -0.9338
   31DOPE   H3X 3954   2.825   4.094   4.867 -0.2058 -1.1113  1.3089
   31DOPE   H3Y 3955   2.798   3.980   4.721 -0.1203 -2.3037 -0.4991
   31DOPE   C34 3956   2.789   3.896   4.915 -0.1843  0.1004  0.4688
   31DOPE   H4X 3957   2.720   3.900   5.002 -2.6656  0.6712 -1.4079
   31DOPE   H4Y 3958   2.748   3.805   4.868 -0.2019  1.2703 -1.9502
   31DOPE   C35 3959   2.941   3.878   4.938 -0.0372  0.2976  0.3118
   31DOPE   H5X 3960   2.974   3.982   4.960 -0.3312  0.6197 -0.7377
   31DOPE   H5Y 3961   2.983   3.859   4.837  2.0581  1.9869  0.7890
   31DOPE   C36 3962   2.985   3.778   5.043  0.2104 -0.1592  0.5043
   31DOPE   H6X 3963   3.092   3.750   5.029  0.2315  0.3598 -0.4185
   31DOPE   H6Y 3964   2.926   3.686   5.028  0.2176  0.1320 -1.5609
   31DOPE   C37 3965   2.963   3.820   5.186 -0.7056  0.4837  0.0809
   31DOPE   H7X 3966   3.013   3.918   5.201 -1.4101  1.5169 -3.4271
   31DOPE   H7Y 3967   2.854   3.840   5.190 -0.9377 -0.5809 -0.4671
   31DOPE   C38 3968   2.989   3.707   5.286 -0.0036  0.4039 -0.2695
   31DOPE   H8X 3969   3.077   3.651   5.248 -0.7796 -0.9580 -0.1063
   31DOPE   H8Y 3970   2.904   3.636   5.277  1.0138 -0.9097  0.2491
   31DOPE   C39 3971   3.016   3.762   5.420 -0.5323  0.4628 -0.1937
   31DOPE   H9X 3972   3.107   3.821   5.439  0.9221 -2.0886  1.3675
   31DOPE  C310 3973   2.941   3.739   5.533  0.6312 -0.9872 -0.0877
   31DOPE  H10X 3974   2.973   3.796   5.621  2.2181 -0.0897 -1.1853
   31DOPE  C311 3975   2.805   3.674   5.525  0.1332 -0.5030  0.8006
   31DOPE  H11X 3976   2.752   3.722   5.440  0.0308 -2.1191 -0.1004
   31DOPE  H11Y 3977   2.805   3.569   5.487  1.3332  0.3086 -1.6971
   31DOPE  C312 3978   2.723   3.688   5.659 -0.9519 -0.0620 -0.9086
   31DOPE  H12X 3979   2.628   3.631   5.652  0.0396 -1.9570  0.2235
   31DOPE  H12Y 3980   2.694   3.795   5.661 -0.6989 -0.0093  0.1094
   31DOPE  C313 3981   2.807   3.648   5.784  0.1307 -0.1987  0.8464
   31DOPE  H13X 3982   2.881   3.575   5.747 -1.0509 -0.9873 -0.0185
   31DOPE  H13Y 3983   2.869   3.731   5.825  0.4751  0.0048 -0.0619
   31DOPE  C314 3984   2.715   3.584   5.886  0.3039  0.3139 -0.0734
   31DOPE  H14X 3985   2.675   3.493   5.838 -0.3805  0.5809 -0.0170
   31DOPE  H14Y 3986   2.632   3.652   5.915  0.9890  0.0907  2.7098
   31DOPE  C315 3987   2.791   3.528   6.002  0.7920 -0.0175  0.0695
   31DOPE  H15X 3988   2.853   3.608   6.048  1.0176 -0.6261  0.8500
   31DOPE  H15Y 3989   2.859   3.450   5.963 -0.9601 -1.5737 -0.0132
   31DOPE  C316 3990   2.692   3.478   6.107 -0.2908  0.0885  0.2198
   31DOPE  H16X 3991   2.619   3.403   6.069 -0.2058 -0.3994  0.9797
   31DOPE  H16Y 3992   2.626   3.564   6.131  0.7089  0.8897  0.1437
   31DOPE  C317 3993   2.754   3.424   6.241  0.0238  0.1138 -0.0054
   31DOPE  H17X 3994   2.833   3.354   6.206 -0.1061  0.9664 -2.1872
   31DOPE  H17Y 3995   2.807   3.511   6.285 -1.0693  1.0226 -0.4243
   31DOPE  C318 3996   2.655   3.358   6.335  0.3082 -0.1152  0.1113
   31DOPE  H18X 3997   2.586   3.292   6.279  1.3754 -1.3023  0.1649
   31DOPE  H18Y 3998   2.709   3.299   6.412  0.6121 -0.4410 -0.3479
   31DOPE  H18Z 3999   2.588   3.425   6.394 -2.9097 -3.3253  0.4644
   32DOPE     N 4000   3.127   4.773   4.315  0.4073  0.3276  0.1374
   32DOPE   HN1 4001   3.042   4.717   4.334 -1.0688  1.7526 -1.8459
   32DOPE   HN2 4002   3.106   4.847   4.244 -0.8856  0.7749  0.9621
   32DOPE   HN3 4003   3.201   4.706   4.285  2.7213  1.9979  1.7154
   32DOPE   C12 4004   3.182   4.826   4.446  0.4078 -0.2074 -0.0214
   32DOPE  H12A 4005   3.274   4.888   4.433 -0.2636  0.6088 -1.0438
   32DOPE  H12B 4006   3.203   4.745   4.519  2.1874 -0.2944 -0.5634
   32DOPE   C11 4007   3.070   4.911   4.511  0.4120 -0.2434  0.1820
   32DOPE  H11A 4008   2.990   4.838   4.534 -0.7048  1.3988  1.8661
   32DOPE  H11B 4009   3.038   4.987   4.437  2.1065 -1.1186 -1.5371
   32DOPE     P 4010   3.066   4.947   4.762  0.0610  0.4308 -0.2524
   32DOPE   O13 4011   2.917   4.976   4.749 -0.1851 -0.0981  0.0628
   32DOPE   O14 4012   3.139   5.030   4.853 -0.7506  0.1941  0.1157
   32DOPE   O11 4013   3.091   4.794   4.788  0.0069  0.4638  0.0630
   32DOPE   O12 4014   3.128   4.976   4.621 -0.1096 -0.1404  0.2650
   32DOPE    C1 4015   3.228   4.760   4.810 -0.4490  0.7504 -0.1613
   32DOPE    HA 4016   3.280   4.806   4.897 -0.8135 -3.0169  2.2781
   32DOPE    HB 4017   3.292   4.781   4.721  0.9631 -2.3980 -0.0027
   32DOPE    C2 4018   3.250   4.607   4.826 -0.6889  0.6956 -0.8421
   32DOPE    HS 4019   3.158   4.549   4.803  0.2909 -0.4303 -2.0685
   32DOPE   O21 4020   3.298   4.575   4.965  0.0770  0.3117  0.2568
   32DOPE   C21 4021   3.206   4.586   5.060  0.0638 -0.8255  1.0000
   32DOPE   O22 4022   3.086   4.603   5.040 -0.1039 -0.1705  0.3589
   32DOPE   C22 4023   3.264   4.573   5.198  0.8572 -0.6302 -0.2662
   32DOPE   H2R 4024   3.303   4.672   5.228 -0.5866 -0.1436  0.0425
   32DOPE   H2S 4025   3.345   4.497   5.202  1.7068  0.3211  1.2255
   32DOPE    C3 4026   3.346   4.546   4.718  0.0302  0.2297  0.5165
   32DOPE    HX 4027   3.302   4.566   4.618 -0.5204 -0.6484  0.5751
   32DOPE    HY 4028   3.349   4.437   4.737 -1.8461 -0.1152 -0.8421
   32DOPE   O31 4029   3.483   4.586   4.717  0.1763  0.0037 -0.0733
   32DOPE   C31 4030   3.557   4.525   4.617 -0.3185  0.7905  0.0806
   32DOPE   O32 4031   3.512   4.440   4.539  0.0170 -0.5773 -0.4362
   32DOPE   C32 4032   3.700   4.555   4.625  0.0178 -0.1132  0.0719
   32DOPE   H2X 4033   3.729   4.540   4.519 -3.0697  0.2946 -0.9428
   32DOPE   H2Y 4034   3.721   4.662   4.646 -2.9413  0.3382  1.1868
   32DOPE   C23 4035   3.157   4.526   5.307 -0.4694  0.5490 -0.0653
   32DOPE   H3R 4036   3.134   4.418   5.298 -0.9423  0.7597 -1.7006
   32DOPE   H3S 4037   3.066   4.580   5.275 -0.1703  1.3619  0.4219
   32DOPE   C24 4038   3.212   4.585   5.442  0.3262  0.5194  0.4733
   32DOPE   H4R 4039   3.214   4.696   5.435 -1.6625  0.6775  1.6682
   32DOPE   H4S 4040   3.316   4.545   5.441 -0.3830 -1.5052  1.3758
   32DOPE   C25 4041   3.135   4.533   5.568 -0.3250 -0.0460  0.0130
   32DOPE   H5R 4042   3.142   4.422   5.579  1.6575 -0.0899 -1.1392
   32DOPE   H5S 4043   3.030   4.567   5.559 -0.5820 -0.6630  0.5197
   32DOPE   C26 4044   3.181   4.587   5.700 -0.5734  0.6594  0.3922
   32DOPE   H6R 4045   3.180   4.697   5.715  0.8990  0.5656  1.3656
   32DOPE   H6S 4046   3.287   4.555   5.715 -0.1273  1.1914 -1.4543
   32DOPE   C27 4047   3.091   4.535   5.820 -0.1614 -0.1208  0.9547
   32DOPE   H7R 4048   3.076   4.426   5.800 -2.4242  0.6164 -2.0712
   32DOPE   H7S 4049   2.986   4.568   5.807 -0.9812 -2.5145  0.9624
   32DOPE   C28 4050   3.146   4.573   5.957 -0.0692  0.0635  0.2460
   32DOPE   H8R 4051   3.138   4.680   5.988  0.3038 -0.2094  1.3402
   32DOPE   H8S 4052   3.254   4.549   5.956 -0.1097 -0.3040  1.7417
   32DOPE   C29 4053   3.067   4.502   6.064 -0.3773  0.0151  0.0577
   32DOPE   H9R 4054   2.966   4.467   6.037  0.2342  0.4723 -3.1954
   32DOPE  C210 4055   3.116   4.463   6.184 -0.5489 -0.2930  0.0796
   32DOPE  H10R 4056   3.053   4.399   6.247  1.2838 -1.4088  0.8782
   32DOPE  C211 4057   3.243   4.493   6.244 -0.3301  0.6592 -0.2858
   32DOPE  H11R 4058   3.295   4.575   6.191 -0.1811  0.5160 -0.3644
   32DOPE  H11S 4059   3.305   4.402   6.229 -3.4738 -2.4431  3.3323
   32DOPE  C212 4060   3.231   4.512   6.398  0.1478 -0.1657  0.6025
   32DOPE  H12R 4061   3.330   4.499   6.447  0.1681 -0.3515  0.5146
   32DOPE  H12S 4062   3.175   4.426   6.441  2.1768 -0.2059  3.4231
   32DOPE  C213 4063   3.164   4.643   6.444 -0.0040 -0.0834  0.1908
   32DOPE  H13R 4064   3.060   4.656   6.406 -0.0871  0.2528  0.5318
   32DOPE  H13S 4065   3.221   4.723   6.392 -1.3053 -0.8910 -2.6987
   32DOPE  C214 4066   3.162   4.662   6.601 -0.2389  0.1396  0.2146
   32DOPE  H14R 4067   3.258   4.630   6.647  1.1846  1.2846 -1.8406
   32DOPE  H14S 4068   3.079   4.605   6.649  1.5489 -1.1099  2.0171
   32DOPE  C215 4069   3.141   4.813   6.635 -0.0416  0.4985  0.3436
   32DOPE  H15R 4070   3.064   4.870   6.579 -1.0572  1.5780  2.7051
   32DOPE  H15S 4071   3.235   4.854   6.592 -0.7073 -0.0478 -1.8063
   32DOPE  C216 4072   3.108   4.824   6.780  0.4860 -0.4459  0.3047
   32DOPE  H16R 4073   3.194   4.794   6.844 -0.1113 -2.7856  0.1127
   32DOPE  H16S 4074   3.034   4.743   6.800  0.6326 -1.2160 -2.0010
   32DOPE  C217 4075   3.071   4.968   6.819  0.0524 -0.3884 -0.0274
   32DOPE  H17R 4076   3.021   5.033   6.743 -0.5927 -0.3441  0.4190
   32DOPE  H17S 4077   3.163   5.024   6.845 -0.0234  0.4082 -1.3804
   32DOPE  C218 4078   2.983   4.973   6.946  0.2156  0.4053  0.0055
   32DOPE  H18R 4079   2.907   4.893   6.943  0.3187  0.1790  1.8343
   32DOPE  H18S 4080   2.931   5.069   6.968 -0.0721  0.5247 -1.1480
   32DOPE  H18T 4081   3.039   4.952   7.041 -2.5640  1.4601  2.0086
   32DOPE   C33 4082   3.789   4.470   4.721  0.2573  0.3000  0.5934
   32DOPE   H3X 4083   3.809   4.363   4.699  2.4078  0.4080  1.7230
   32DOPE   H3Y 4084   3.741   4.461   4.821  1.0651 -2.3080  0.8327
   32DOPE   C34 4085   3.928   4.523   4.741  0.4674 -0.3335  0.9290
   32DOPE   H4X 4086   3.984   4.511   4.646  0.4959  1.1300  0.7375
   32DOPE   H4Y 4087   3.911   4.628   4.773  2.0660  0.5953 -1.0910
   32DOPE   C35 4088   4.009   4.455   4.847 -0.2168 -0.9025 -1.4026
   32DOPE   H5X 4089   4.052   4.359   4.809 -0.0202 -0.5630 -2.0576
   32DOPE   H5Y 4090   3.944   4.428   4.933  0.5382 -1.5743 -1.0264
   32DOPE   C36 4091   4.117   4.553   4.905  0.4536 -0.4043  0.2704
   32DOPE   H6X 4092   4.070   4.643   4.950  2.2575  0.4146  0.6035
   32DOPE   H6Y 4093   4.185   4.580   4.821  1.3509 -2.6535  0.2095
   32DOPE   C37 4094   4.217   4.489   4.999 -0.1628 -0.2094 -0.2445
   32DOPE   H7X 4095   4.174   4.460   5.097 -2.0767  0.8879 -0.7145
   32DOPE   H7Y 4096   4.265   4.397   4.958  2.0924 -0.8407  3.3589
   32DOPE   C38 4097   4.327   4.595   5.031 -0.1937 -0.1952  0.3629
   32DOPE   H8X 4098   4.384   4.606   4.936 -0.8016  3.5336  0.2807
   32DOPE   H8Y 4099   4.387   4.548   5.111  0.7131 -0.4408 -0.4425
   32DOPE   C39 4100   4.272   4.725   5.064  0.0967 -0.2228  0.0775
   32DOPE   H9X 4101   4.250   4.783   4.973  2.4770 -0.8822 -0.9924
   32DOPE  C310 4102   4.227   4.767   5.183  0.3208 -0.3081  0.8821
   32DOPE  H10X 4103   4.199   4.873   5.190 -0.4552 -0.3759 -0.9026
   32DOPE  C311 4104   4.223   4.690   5.310  1.1362  0.5290  0.3754
   32DOPE  H11X 4105   4.129   4.632   5.299  1.8766 -1.4204  3.2777
   32DOPE  H11Y 4106   4.300   4.612   5.325 -0.6050 -1.1156  1.1612
   32DOPE  C312 4107   4.209   4.773   5.437 -0.4151 -0.5053 -0.1763
   32DOPE  H12X 4108   4.102   4.798   5.451 -0.3419 -0.5126  0.4518
   32DOPE  H12Y 4109   4.269   4.865   5.418 -2.0066  0.7686  0.7305
   32DOPE  C313 4110   4.246   4.691   5.558 -0.1534  0.4483 -0.4723
   32DOPE  H13X 4111   4.174   4.606   5.551 -1.3692  1.5339 -1.6579
   32DOPE  H13Y 4112   4.350   4.659   5.539  0.4181  1.8301  0.2042
   32DOPE  C314 4113   4.228   4.756   5.695  0.1724  0.5023 -0.1927
   32DOPE  H14X 4114   4.243   4.866   5.688  0.5002  0.5789  1.3476
   32DOPE  H14Y 4115   4.288   4.706   5.773 -2.1400  0.1181  1.4463
   32DOPE  C315 4116   4.080   4.745   5.718 -0.6732 -0.0561 -0.0057
   32DOPE  H15X 4117   4.041   4.641   5.707 -0.4348 -0.1645  0.1569
   32DOPE  H15Y 4118   4.027   4.803   5.639 -1.3681 -0.0198  0.4706
   32DOPE  C316 4119   4.051   4.809   5.853  0.2206 -0.5626 -0.1126
   32DOPE  H16X 4120   3.943   4.832   5.847  0.5622  1.3765  0.2370
   32DOPE  H16Y 4121   4.101   4.908   5.865  0.5266 -0.8776  1.6201
   32DOPE  C317 4122   4.080   4.714   5.967  0.2101  0.6097  0.0723
   32DOPE  H17X 4123   4.014   4.625   5.957 -0.2585  0.8891  0.6579
   32DOPE  H17Y 4124   4.187   4.683   5.968  0.1957  0.4896 -0.8781
   32DOPE  C318 4125   4.040   4.778   6.101  0.3488 -0.0717  0.5242
   32DOPE  H18X 4126   3.933   4.765   6.124  0.5676 -2.3251  0.4639
   32DOPE  H18Y 4127   4.101   4.734   6.182 -1.7517 -0.1227  2.1465
   32DOPE  H18Z 4128   4.069   4.885   6.091 -0.7898  0.2551  0.6614
   33DOPE     N 4129   3.914   4.347   3.813  0.6359 -0.6954 -0.1194
   33DOPE   HN1 4130   3.906   4.378   3.713  1.4499  0.8492  0.2525
   33DOPE   HN2 4131   3.818   4.363   3.851 -0.0617 -0.3894 -1.8617
   33DOPE   HN3 4132   3.978   4.413   3.861 -1.7170  1.1315  0.7111
   33DOPE   C12 4133   3.938   4.199   3.819  0.3110 -0.3786 -0.1142
   33DOPE  H12A 4134   4.037   4.179   3.774  1.0170 -0.3684  1.3586
   33DOPE  H12B 4135   3.860   4.148   3.758  0.8941 -0.2835 -0.9544
   33DOPE   C11 4136   3.932   4.157   3.975  0.2162 -0.1737  0.0261
   33DOPE  H11A 4137   3.945   4.047   3.982  0.1297 -0.3114 -1.5282
   33DOPE  H11B 4138   3.828   4.179   4.008 -0.5240 -2.3349 -0.7284
   33DOPE     P 4139   4.174   4.184   4.073  0.3424  0.6609  0.2149
   33DOPE   O13 4140   4.266   4.291   4.094  0.5940  0.2717 -0.5334
   33DOPE   O14 4141   4.206   4.101   3.956  0.4652  0.2023  0.4106
   33DOPE   O11 4142   4.166   4.092   4.205 -0.0885 -0.3729  0.0979
   33DOPE   O12 4143   4.034   4.239   4.045 -0.4984  0.6393 -0.4070
   33DOPE    C1 4144   4.084   4.135   4.316 -0.4885  0.0482 -0.2614
   33DOPE    HA 4145   3.990   4.076   4.314 -0.3970 -0.0904 -0.6747
   33DOPE    HB 4146   4.053   4.241   4.309 -0.2381  0.2135  0.9438
   33DOPE    C2 4147   4.146   4.116   4.458 -0.4840  0.1175 -0.6889
   33DOPE    HS 4148   4.118   4.200   4.525  2.1230  0.5697 -0.0767
   33DOPE   O21 4149   4.288   4.130   4.456  0.2652  0.6673  0.0950
   33DOPE   C21 4150   4.329   4.253   4.438 -0.0293 -0.3916  0.0781
   33DOPE   O22 4151   4.272   4.360   4.430  0.1012  0.2533 -0.3201
   33DOPE   C22 4152   4.480   4.252   4.433 -0.3080  0.1794  0.6775
   33DOPE   H2R 4153   4.506   4.357   4.409 -1.5273  0.2245 -0.5756
   33DOPE   H2S 4154   4.505   4.188   4.346 -2.7404 -0.4926  0.4009
   33DOPE    C3 4155   4.110   3.985   4.546 -0.4039 -0.9774 -0.7382
   33DOPE    HX 4156   4.169   3.907   4.493  0.7431 -1.1236  0.6901
   33DOPE    HY 4157   4.003   3.957   4.536 -1.3153  2.0797 -0.6299
   33DOPE   O31 4158   4.161   3.984   4.687  0.2052 -0.5486 -0.1335
   33DOPE   C31 4159   4.084   4.044   4.773 -0.6820  0.7755  0.2920
   33DOPE   O32 4160   3.983   4.106   4.750 -0.0859  0.5103 -0.4712
   33DOPE   C32 4161   4.142   4.025   4.917 -0.0411  0.1686 -0.0183
   33DOPE   H2X 4162   4.131   3.918   4.943  3.1129  0.1394  1.7321
   33DOPE   H2Y 4163   4.251   4.044   4.924 -0.3068  1.8035  0.0896
   33DOPE   C23 4164   4.531   4.193   4.564  0.0190 -0.0561 -0.5953
   33DOPE   H3R 4165   4.633   4.159   4.537  0.9011  0.6247  1.6560
   33DOPE   H3S 4166   4.480   4.105   4.608 -0.3987  1.8618  3.1774
   33DOPE   C24 4167   4.546   4.302   4.670  0.5194  0.2126  0.0900
   33DOPE   H4R 4168   4.461   4.373   4.675  0.2423 -0.1613  4.2469
   33DOPE   H4S 4169   4.631   4.373   4.664 -1.0239  2.0337 -2.0743
   33DOPE   C25 4170   4.552   4.236   4.809 -0.3746  0.2290  1.0686
   33DOPE   H5R 4171   4.634   4.161   4.800 -0.1526  0.4935  0.8529
   33DOPE   H5S 4172   4.464   4.175   4.835 -0.7711  0.4188  0.2020
   33DOPE   C26 4173   4.592   4.336   4.915  0.6023 -0.1512  0.1877
   33DOPE   H6R 4174   4.508   4.403   4.943 -0.2475 -1.1718  0.1735
   33DOPE   H6S 4175   4.677   4.399   4.883  0.0716  0.8611  0.7181
   33DOPE   C27 4176   4.654   4.276   5.046 -0.4727 -0.2905  0.0068
   33DOPE   H7R 4177   4.748   4.220   5.028  0.1481  1.1133 -1.2749
   33DOPE   H7S 4178   4.574   4.205   5.077 -2.1940  0.9578 -1.3957
   33DOPE   C28 4179   4.682   4.381   5.157  0.9585  0.1978  0.4127
   33DOPE   H8R 4180   4.592   4.444   5.174 -0.9719 -2.1868 -0.3750
   33DOPE   H8S 4181   4.770   4.441   5.123  1.9700 -1.4116  0.1128
   33DOPE   C29 4182   4.718   4.312   5.284 -0.0848  0.3342  0.3141
   33DOPE   H9R 4183   4.821   4.276   5.296  0.8226  2.5232 -0.4089
   33DOPE  C210 4184   4.644   4.299   5.397 -0.4408 -0.1810  0.3927
   33DOPE  H10R 4185   4.683   4.258   5.491  0.6518 -0.5843 -0.2174
   33DOPE  C211 4186   4.497   4.332   5.399  0.4376 -0.2247 -0.3837
   33DOPE  H11R 4187   4.437   4.274   5.325 -1.0197 -0.1378  0.6900
   33DOPE  H11S 4188   4.484   4.439   5.370  0.7161 -0.3512 -0.9853
   33DOPE  C212 4189   4.431   4.298   5.537  0.3938  0.6473 -0.3168
   33DOPE  H12R 4190   4.436   4.193   5.573  0.4682  0.5656 -0.5603
   33DOPE  H12S 4191   4.322   4.315   5.531  0.2773  0.2758  0.6279
   33DOPE  C213 4192   4.485   4.391   5.641 -0.3767 -0.0549  0.0051
   33DOPE  H13R 4193   4.454   4.492   5.608 -1.1797 -1.0686 -2.5388
   33DOPE  H13S 4194   4.594   4.380   5.656 -0.3813  0.0482  0.1270
   33DOPE  C214 4195   4.418   4.376   5.780 -0.3498 -0.2068  0.5878
   33DOPE  H14R 4196   4.437   4.270   5.808 -2.6419 -1.1395 -1.0516
   33DOPE  H14S 4197   4.308   4.381   5.766 -0.4299 -2.2152  0.1551
   33DOPE  C215 4198   4.451   4.470   5.892 -0.1269  0.4120  0.5836
   33DOPE  H15R 4199   4.419   4.570   5.856  0.7104  0.4200 -0.1756
   33DOPE  H15S 4200   4.562   4.469   5.901  0.0033 -0.3877 -0.7929
   33DOPE  C216 4201   4.377   4.439   6.019 -0.7392  0.5194 -0.7103
   33DOPE  H16R 4202   4.399   4.335   6.051  1.7819  1.2250  0.1488
   33DOPE  H16S 4203   4.269   4.454   5.998 -0.5662  0.6834 -1.5001
   33DOPE  C217 4204   4.422   4.537   6.132 -0.3012  0.1228 -0.3057
   33DOPE  H17R 4205   4.426   4.643   6.097  0.7399  0.1295 -0.1998
   33DOPE  H17S 4206   4.526   4.503   6.150 -0.0520  1.1636  0.3301
   33DOPE  C218 4207   4.335   4.537   6.264 -0.4326 -0.2527 -0.5491
   33DOPE  H18R 4208   4.226   4.556   6.254 -0.4076 -0.2976 -0.9315
   33DOPE  H18S 4209   4.367   4.617   6.334 -0.2160  0.0543 -0.9929
   33DOPE  H18T 4210   4.350   4.442   6.320  1.9383  1.0273  1.1814
   33DOPE   C33 4211   4.059   4.099   5.027  0.5708  0.4691 -0.2222
   33DOPE   H3X 4212   3.970   4.036   5.046  0.8179  0.1691 -0.0482
   33DOPE   H3Y 4213   4.022   4.199   4.995 -0.6700 -0.0771 -0.5484
   33DOPE   C34 4214   4.127   4.097   5.161 -0.7491 -0.3349 -0.1778
   33DOPE   H4X 4215   4.152   3.995   5.196 -0.2660 -0.7355 -1.6187
   33DOPE   H4Y 4216   4.231   4.135   5.147 -1.5205  1.8855 -0.2829
   33DOPE   C35 4217   4.059   4.186   5.265  0.1778  0.4840  0.3806
   33DOPE   H5X 4218   3.950   4.194   5.246 -0.1195 -0.2801  1.6224
   33DOPE   H5Y 4219   4.090   4.292   5.257 -1.1651  0.8462 -0.3541
   33DOPE   C36 4220   4.094   4.146   5.408  0.2433  0.1999 -0.2757
   33DOPE   H6X 4221   4.201   4.117   5.416 -0.0139 -0.6634  0.1345
   33DOPE   H6Y 4222   4.038   4.051   5.421 -1.6029  1.0778 -1.3254
   33DOPE   C37 4223   4.058   4.245   5.517  0.5121  0.7405  0.4349
   33DOPE   H7X 4224   4.087   4.189   5.608 -0.8372 -1.1045 -0.2081
   33DOPE   H7Y 4225   4.108   4.343   5.500  0.7658  0.6545  0.6839
   33DOPE   C38 4226   3.911   4.256   5.532 -0.2928  0.4554  0.1691
   33DOPE   H8X 4227   3.875   4.152   5.549 -0.4522  0.3332 -0.8712
   33DOPE   H8Y 4228   3.862   4.289   5.438  0.0977 -1.5007 -0.7755
   33DOPE   C39 4229   3.887   4.357   5.639  0.1297 -0.1542 -0.8587
   33DOPE   H9X 4230   3.884   4.462   5.605 -0.6152 -0.3331 -1.3744
   33DOPE  C310 4231   3.865   4.328   5.772  0.3399 -0.4037 -0.2371
   33DOPE  H10X 4232   3.836   4.409   5.841 -0.1911 -0.4082 -0.4505
   33DOPE  C311 4233   3.879   4.187   5.832  0.6738 -0.0737 -0.5194
   33DOPE  H11X 4234   3.780   4.156   5.872  2.2827 -1.0736  3.1354
   33DOPE  H11Y 4235   3.903   4.115   5.751  1.2903  0.6718 -1.0082
   33DOPE  C312 4236   3.983   4.167   5.941  0.4087 -0.3327 -0.3478
   33DOPE  H12X 4237   4.088   4.180   5.907  1.4319 -0.5850  2.4285
   33DOPE  H12Y 4238   3.971   4.060   5.965 -0.5287 -0.1313  0.1628
   33DOPE  C313 4239   3.954   4.264   6.061 -0.1474 -0.0948  0.3295
   33DOPE  H13X 4240   3.989   4.364   6.027  1.6759 -1.0242 -0.6502
   33DOPE  H13Y 4241   3.847   4.273   6.091  0.2724 -0.7785  2.1451
   33DOPE  C314 4242   4.025   4.225   6.186  0.0012 -0.8896  0.2216
   33DOPE  H14X 4243   4.134   4.206   6.172 -0.2835 -1.1378 -2.0623
   33DOPE  H14Y 4244   3.999   4.121   6.215 -0.3431 -1.2059 -1.1724
   33DOPE  C315 4245   3.990   4.314   6.305 -0.3493  0.0801  0.3770
   33DOPE  H15X 4246   3.880   4.308   6.321 -0.0642 -1.7877  2.0492
   33DOPE  H15Y 4247   4.033   4.409   6.268  1.4205 -0.5026  0.8352
   33DOPE  C316 4248   4.057   4.265   6.435  0.6063 -0.5270 -0.3362
   33DOPE  H16X 4249   4.168   4.263   6.433  0.5992 -0.9760 -2.2543
   33DOPE  H16Y 4250   4.017   4.161   6.435  0.8592 -0.6404 -1.9844
   33DOPE  C317 4251   4.004   4.337   6.559 -0.2816  0.1409  0.9186
   33DOPE  H17X 4252   3.894   4.322   6.562 -0.3432 -0.5355 -1.6304
   33DOPE  H17Y 4253   4.048   4.286   6.647  4.1753 -1.3973 -1.8291
   33DOPE  C318 4254   4.033   4.489   6.548 -0.9624  0.2997 -0.2979
   33DOPE  H18X 4255   4.134   4.519   6.582 -1.2345 -0.4888  1.3484
   33DOPE  H18Y 4256   4.009   4.525   6.446  1.1764 -0.5004 -1.1383
   33DOPE  H18Z 4257   3.958   4.546   6.608 -1.3134  1.6283 -1.9401
   34DOPE     N 4258   2.524   5.024   4.743 -0.0599 -0.3600  0.2236
   34DOPE   HN1 4259   2.482   5.119   4.737 -0.5515 -0.6678 -2.3296
   34DOPE   HN2 4260   2.560   5.015   4.840  1.3412  0.5283 -0.1784
   34DOPE   HN3 4261   2.607   5.021   4.680 -1.2855  1.3074 -1.5793
   34DOPE   C12 4262   2.427   4.919   4.712  0.2027 -0.3366 -0.1149
   34DOPE  H12A 4263   2.338   4.937   4.775 -0.0255 -3.6353  0.6848
   34DOPE  H12B 4264   2.460   4.817   4.741 -0.4738 -0.1572  1.3714
   34DOPE   C11 4265   2.385   4.929   4.563  0.5533  0.3482  0.3906
   34DOPE  H11A 4266   2.302   4.857   4.548 -1.0214  2.4134 -1.3010
   34DOPE  H11B 4267   2.467   4.904   4.492  1.3191 -1.4721  1.8229
   34DOPE     P 4268   2.261   5.100   4.395 -0.1907 -0.2852  0.4446
   34DOPE   O13 4269   2.364   5.144   4.301  0.0780 -0.4567 -0.3817
   34DOPE   O14 4270   2.162   5.198   4.438 -0.0511  0.0763 -0.1540
   34DOPE   O11 4271   2.192   4.970   4.333  0.6469 -0.1500 -0.2470
   34DOPE   O12 4272   2.331   5.055   4.528 -0.0470  0.1069 -1.0889
   34DOPE    C1 4273   2.047   4.972   4.317  0.1432 -0.2602  0.6346
   34DOPE    HA 4274   2.026   4.897   4.238 -1.1066 -1.2464  1.8458
   34DOPE    HB 4275   2.010   5.070   4.280  0.3533 -0.6911 -0.7585
   34DOPE    C2 4276   1.980   4.943   4.455 -1.1411  0.5132  0.1869
   34DOPE    HS 4277   2.027   5.001   4.537 -1.0100  1.6355 -0.6639
   34DOPE   O21 4278   1.993   4.800   4.476 -0.4422 -0.2149 -0.0497
   34DOPE   C21 4279   2.016   4.761   4.607  0.5076  0.5416  0.7084
   34DOPE   O22 4280   2.009   4.842   4.697 -0.2051 -0.0385 -1.2471
   34DOPE   C22 4281   2.048   4.613   4.619  0.3955 -0.2946  0.1456
   34DOPE   H2R 4282   2.129   4.580   4.551  1.5948  0.4376  1.1703
   34DOPE   H2S 4283   1.957   4.572   4.571  1.4788  0.2306 -2.4837
   34DOPE    C3 4284   1.821   4.976   4.443 -0.6859 -0.0352  0.0215
   34DOPE    HX 4285   1.783   4.911   4.362 -0.5694 -1.1437  0.8230
   34DOPE    HY 4286   1.796   5.080   4.414 -1.2305  0.5401  2.3065
   34DOPE   O31 4287   1.752   4.944   4.566 -0.3242  0.1997 -0.6827
   34DOPE   C31 4288   1.772   5.028   4.664  0.3442  0.4607  1.3419
   34DOPE   O32 4289   1.844   5.123   4.674  0.0350 -0.2426 -0.1765
   34DOPE   C32 4290   1.670   4.993   4.775 -0.3140 -0.8146 -0.3972
   34DOPE   H2X 4291   1.567   5.021   4.743 -0.5400 -0.6478  0.4585
   34DOPE   H2Y 4292   1.677   4.884   4.794  0.3867 -0.6600  0.2787
   34DOPE   C23 4293   2.058   4.556   4.764  0.1086  0.0222 -0.2655
   34DOPE   H3R 4294   2.046   4.446   4.765  2.7239 -0.3890 -2.2366
   34DOPE   H3S 4295   1.971   4.593   4.823 -0.0540 -0.3486 -0.2680
   34DOPE   C24 4296   2.196   4.593   4.825  0.0904  0.2739 -0.5705
   34DOPE   H4R 4297   2.191   4.687   4.885  0.3542 -1.9032  3.2163
   34DOPE   H4S 4298   2.276   4.597   4.749  0.5040 -0.8312 -0.2166
   34DOPE   C25 4299   2.233   4.504   4.940  0.2236  0.7232  0.2371
   34DOPE   H5R 4300   2.212   4.400   4.907  0.4004  0.4889  0.8508
   34DOPE   H5S 4301   2.167   4.517   5.028 -0.2530 -1.7122  0.3021
   34DOPE   C26 4302   2.375   4.521   4.997 -0.2776  0.0430 -0.4788
   34DOPE   H6R 4303   2.395   4.627   5.021 -1.2807  0.6109 -1.9675
   34DOPE   H6S 4304   2.451   4.480   4.926  0.6565 -0.6557  0.8844
   34DOPE   C27 4305   2.383   4.440   5.132 -0.0457 -0.0016 -0.4711
   34DOPE   H7R 4306   2.350   4.336   5.112  0.7341 -0.5275  0.8608
   34DOPE   H7S 4307   2.303   4.475   5.201 -0.0745 -0.5029 -0.2448
   34DOPE   C28 4308   2.512   4.459   5.203 -0.2135  0.7977 -0.3441
   34DOPE   H8R 4309   2.533   4.563   5.235 -1.8670  0.4867  1.9554
   34DOPE   H8S 4310   2.604   4.430   5.147 -0.2218 -1.4217  0.6779
   34DOPE   C29 4311   2.517   4.363   5.323  0.0274  0.4576 -0.1399
   34DOPE   H9R 4312   2.460   4.270   5.309 -0.6383  0.1892  3.4658
   34DOPE  C210 4313   2.558   4.398   5.450  0.3356 -0.1672  0.0678
   34DOPE  H10R 4314   2.553   4.312   5.519  0.1175 -0.8018 -0.7356
   34DOPE  C211 4315   2.618   4.526   5.510 -0.1550  0.1656 -0.1429
   34DOPE  H11R 4316   2.585   4.608   5.442  1.1015 -0.5994 -1.7282
   34DOPE  H11S 4317   2.727   4.507   5.507 -0.3875 -1.3158 -0.2624
   34DOPE  C212 4318   2.575   4.557   5.658 -0.3269 -0.1375  0.4603
   34DOPE  H12R 4319   2.465   4.574   5.666 -0.1305  1.9844 -0.5862
   34DOPE  H12S 4320   2.621   4.657   5.672 -0.5783 -0.3177  2.8869
   34DOPE  C213 4321   2.628   4.448   5.754 -0.1863 -0.3468 -0.6060
   34DOPE  H13R 4322   2.721   4.402   5.715 -0.6550 -2.4531  0.5894
   34DOPE  H13S 4323   2.558   4.362   5.761  1.0241 -1.2497  2.8951
   34DOPE  C214 4324   2.660   4.500   5.899 -0.2159 -0.9326  0.7670
   34DOPE  H14R 4325   2.601   4.589   5.930 -0.1183  0.1446 -1.8049
   34DOPE  H14S 4326   2.760   4.547   5.903  0.2032 -1.4366 -1.7554
   34DOPE  C215 4327   2.643   4.386   6.005  0.4476  0.3760  1.1988
   34DOPE  H15R 4328   2.711   4.302   5.979 -1.0547 -0.8255  1.0063
   34DOPE  H15S 4329   2.537   4.354   6.002  0.4410  0.4406 -0.3742
   34DOPE  C216 4330   2.681   4.427   6.148  0.4724  0.1317 -0.0795
   34DOPE  H16R 4331   2.600   4.499   6.173  1.5424  1.1749  0.4915
   34DOPE  H16S 4332   2.772   4.490   6.156  0.5253  0.2596 -1.4669
   34DOPE  C217 4333   2.689   4.319   6.256  0.0025  0.6717  0.1330
   34DOPE  H17R 4334   2.761   4.238   6.234 -1.0254 -0.3316  0.3580
   34DOPE  H17S 4335   2.587   4.277   6.271 -0.4298  1.1656 -1.2939
   34DOPE  C218 4336   2.732   4.375   6.390 -0.3592  0.0518 -0.5589
   34DOPE  H18R 4337   2.839   4.402   6.378 -0.7715  1.2420 -1.8325
   34DOPE  H18S 4338   2.719   4.299   6.470  0.6008 -1.6734 -1.9641
   34DOPE  H18T 4339   2.672   4.466   6.412 -1.0966 -0.4792 -0.3526
   34DOPE   C33 4340   1.710   5.083   4.904 -0.8765  0.1518 -0.0687
   34DOPE   H3X 4341   1.691   5.192   4.896 -0.3223  0.2486 -0.1081
   34DOPE   H3Y 4342   1.818   5.067   4.925 -0.7512  2.2127  1.0786
   34DOPE   C34 4343   1.622   5.046   5.026 -0.3713 -0.1490  1.0357
   34DOPE   H4X 4344   1.514   5.067   5.011 -0.4742  1.2665  3.3090
   34DOPE   H4Y 4345   1.630   4.935   5.027 -0.0980 -0.1277  1.0621
   34DOPE   C35 4346   1.650   5.117   5.157 -0.2228  0.0820 -0.3434
   34DOPE   H5X 4347   1.605   5.218   5.166 -1.7093 -0.5898  0.1056
   34DOPE   H5Y 4348   1.760   5.129   5.158 -0.1533 -0.2451  1.7068
   34DOPE   C36 4349   1.596   5.036   5.275 -0.4399 -0.3535  0.0692
   34DOPE   H6X 4350   1.629   4.930   5.274 -0.9381 -0.5111 -0.6056
   34DOPE   H6Y 4351   1.489   5.022   5.251 -0.3541 -1.3746  0.2366
   34DOPE   C37 4352   1.605   5.120   5.404  0.3937 -0.1218  0.6593
   34DOPE   H7X 4353   1.714   5.135   5.412  0.4233  0.2421 -0.2813
   34DOPE   H7Y 4354   1.544   5.213   5.394  2.2288  1.1096  0.5378
   34DOPE   C38 4355   1.553   5.048   5.524 -0.2194 -0.5224 -0.8494
   34DOPE   H8X 4356   1.626   4.977   5.568 -0.8468 -0.6845 -0.0453
   34DOPE   H8Y 4357   1.466   4.995   5.479  0.1717 -0.8771 -1.1994
   34DOPE   C39 4358   1.504   5.135   5.637 -0.0688  0.2793  0.0607
   34DOPE   H9X 4359   1.574   5.189   5.701  0.4094  0.5262 -0.6650
   34DOPE  C310 4360   1.373   5.182   5.649 -0.1659 -0.1811  0.1740
   34DOPE  H10X 4361   1.347   5.259   5.723  1.7046  0.7337 -0.0583
   34DOPE  C311 4362   1.264   5.165   5.546  0.0165  0.0566  0.7897
   34DOPE  H11X 4363   1.210   5.260   5.525  0.2934 -0.0459 -0.4764
   34DOPE  H11Y 4364   1.305   5.127   5.450 -3.5535 -1.8793 -0.1463
   34DOPE  C312 4365   1.157   5.060   5.586 -0.2827  0.6104  0.5237
   34DOPE  H12X 4366   1.205   4.962   5.607 -1.0196 -0.1108 -1.0157
   34DOPE  H12Y 4367   1.083   5.038   5.506  0.0756  0.5307  0.2116
   34DOPE  C313 4368   1.082   5.101   5.710 -0.7590 -1.0140  0.4693
   34DOPE  H13X 4369   1.157   5.125   5.789 -2.2391  1.2366  1.3028
   34DOPE  H13Y 4370   1.028   5.196   5.686  0.5408 -0.3998 -0.1122
   34DOPE  C314 4371   0.978   5.006   5.747  0.2041  0.7984  0.2590
   34DOPE  H14X 4372   0.910   4.990   5.661  0.7981  0.8384 -0.2266
   34DOPE  H14Y 4373   0.913   5.055   5.823 -0.3031 -1.1515  1.1498
   34DOPE  C315 4374   1.031   4.879   5.806 -0.4019 -0.3259 -0.2996
   34DOPE  H15X 4375   1.122   4.896   5.867  0.5904 -1.3853 -1.4414
   34DOPE  H15Y 4376   1.050   4.801   5.730  0.4556 -0.9027  0.4858
   34DOPE  C316 4377   0.926   4.811   5.896  0.1394 -0.2091 -0.2334
   34DOPE  H16X 4378   0.906   4.879   5.981  2.7008 -0.1774  0.4368
   34DOPE  H16Y 4379   0.975   4.720   5.938  0.3197  0.9608  2.3064
   34DOPE  C317 4380   0.795   4.786   5.828 -0.0408  0.7585  0.2276
   34DOPE  H17X 4381   0.735   4.880   5.820  0.3935  0.9346 -1.4102
   34DOPE  H17Y 4382   0.816   4.748   5.726  2.6289  2.7502 -0.0634
   34DOPE  C318 4383   0.705   4.677   5.884  0.0427  0.7194 -0.1638
   34DOPE  H18X 4384   0.740   4.576   5.853  1.4113  0.9229  0.6091
   34DOPE  H18Y 4385   0.701   4.673   5.995 -0.2124  0.2786 -0.1885
   34DOPE  H18Z 4386   0.606   4.689   5.835  0.2149 -0.2525 -0.7802
   35DOPE     N 4387   5.759   5.185   3.411  0.1242  0.5064 -0.1692
   35DOPE   HN1 4388   5.787   5.178   3.311  1.9991  1.0950  0.2810
   35DOPE   HN2 4389   5.795   5.270   3.460 -0.0770  0.0631  0.7681
   35DOPE   HN3 4390   5.796   5.098   3.453  0.1796  0.8041  0.3999
   35DOPE   C12 4391   5.611   5.195   3.401  0.5655  1.3392  0.6728
   35DOPE  H12A 4392   5.564   5.174   3.302 -2.5722  0.4227  2.2266
   35DOPE  H12B 4393   5.571   5.294   3.432 -1.7216  0.5571  0.4321
   35DOPE   C11 4394   5.536   5.088   3.495 -0.1394  0.1492  0.0356
   35DOPE  H11A 4395   5.429   5.116   3.499 -0.0729  0.6026 -0.9676
   35DOPE  H11B 4396   5.572   5.093   3.600 -0.3959  1.9658  0.0695
   35DOPE     P 4397   5.619   4.847   3.500  0.2388 -0.0245  0.0773
   35DOPE   O13 4398   5.752   4.898   3.541  0.1224  0.4319  0.4812
   35DOPE   O14 4399   5.620   4.731   3.406  0.3680  0.5330  0.0171
   35DOPE   O11 4400   5.533   4.820   3.624  0.4413  0.0400  0.0925
   35DOPE   O12 4401   5.535   4.961   3.423  0.3800 -0.2128  0.1205
   35DOPE    C1 4402   5.502   4.684   3.661  0.6951  0.4304  0.6162
   35DOPE    HA 4403   5.568   4.601   3.630 -1.4483 -2.3052  2.8091
   35DOPE    HB 4404   5.396   4.664   3.634 -0.5160  4.0874  2.0345
   35DOPE    C2 4405   5.490   4.659   3.820 -0.0155  0.0474 -0.4366
   35DOPE    HS 4406   5.404   4.725   3.844  0.8520  1.5764 -1.4004
   35DOPE   O21 4407   5.610   4.702   3.883 -0.6088 -0.0748 -0.3635
   35DOPE   C21 4408   5.615   4.826   3.926  0.3446 -0.7294 -0.7475
   35DOPE   O22 4409   5.518   4.903   3.940  0.3340  0.4703 -0.4576
   35DOPE   C22 4410   5.754   4.865   3.965  0.3084  0.4576 -0.2560
   35DOPE   H2R 4411   5.749   4.972   3.995  2.2809 -0.0747  2.3615
   35DOPE   H2S 4412   5.821   4.844   3.879  1.1030 -0.0049  0.4522
   35DOPE    C3 4413   5.452   4.513   3.867  0.4341  0.2228 -0.1970
   35DOPE    HX 4414   5.535   4.446   3.835 -1.6046 -2.4441 -0.2612
   35DOPE    HY 4415   5.362   4.473   3.815  2.9571 -2.7162 -2.7065
   35DOPE   O31 4416   5.437   4.494   4.010 -0.2099  0.2898 -0.0429
   35DOPE   C31 4417   5.352   4.573   4.073  0.1597 -0.5744 -0.0515
   35DOPE   O32 4418   5.265   4.645   4.024  0.8165  0.3500 -0.5253
   35DOPE   C32 4419   5.381   4.554   4.225 -0.6157  0.1802  0.1058
   35DOPE   H2X 4420   5.363   4.446   4.244 -0.7618 -0.3468 -2.5625
   35DOPE   H2Y 4421   5.490   4.568   4.240 -0.6739  0.1791  0.5361
   35DOPE   C23 4422   5.804   4.778   4.081 -0.0046 -0.0521 -0.3424
   35DOPE   H3R 4423   5.912   4.806   4.086 -0.4600  2.3445 -1.7867
   35DOPE   H3S 4424   5.811   4.668   4.068 -0.7814  0.0864 -2.3806
   35DOPE   C24 4425   5.725   4.815   4.197  0.0248  0.3525 -0.5858
   35DOPE   H4R 4426   5.617   4.789   4.193  0.0386  0.1708  0.1104
   35DOPE   H4S 4427   5.717   4.926   4.200 -0.6396  0.2868  1.2847
   35DOPE   C25 4428   5.803   4.764   4.322 -0.4380  0.9674  0.1072
   35DOPE   H5R 4429   5.911   4.791   4.321 -0.4383  0.9585 -0.4710
   35DOPE   H5S 4430   5.810   4.655   4.300 -1.0194  1.1022 -0.7650
   35DOPE   C26 4431   5.735   4.782   4.458  0.2845 -0.3457 -0.1196
   35DOPE   H6R 4432   5.628   4.753   4.451  0.5944 -1.2481 -1.6817
   35DOPE   H6S 4433   5.720   4.885   4.496 -0.3808 -1.1082  1.7726
   35DOPE   C27 4434   5.811   4.714   4.570 -0.1594  1.2576 -0.0292
   35DOPE   H7R 4435   5.912   4.758   4.579  1.2031 -1.1455 -2.1521
   35DOPE   H7S 4436   5.817   4.610   4.531  2.5935  0.8787  1.1553
   35DOPE   C28 4437   5.732   4.710   4.703 -0.5494  0.4258  0.3835
   35DOPE   H8R 4438   5.767   4.632   4.774  1.2325 -1.5024 -2.3581
   35DOPE   H8S 4439   5.631   4.674   4.675 -0.1219 -0.6692  0.1922
   35DOPE   C29 4440   5.715   4.848   4.766  0.2561  0.0902  0.4897
   35DOPE   H9R 4441   5.657   4.917   4.703 -1.1621  0.0565  1.6905
   35DOPE  C210 4442   5.729   4.874   4.895 -0.5730  0.5351 -0.3558
   35DOPE  H10R 4443   5.703   4.976   4.925  1.7036  0.1866  3.3460
   35DOPE  C211 4444   5.773   4.794   5.011  0.5518  0.1587 -0.0290
   35DOPE  H11R 4445   5.860   4.841   5.063  0.8455  0.1313 -0.4922
   35DOPE  H11S 4446   5.803   4.689   4.991 -2.5521 -0.6873 -0.7173
   35DOPE  C212 4447   5.655   4.766   5.103  0.1889  0.2051  0.8050
   35DOPE  H12R 4448   5.591   4.686   5.061 -0.4268  0.3104  1.5326
   35DOPE  H12S 4449   5.597   4.858   5.127 -0.4928 -0.0189  0.0561
   35DOPE  C213 4450   5.710   4.708   5.238  0.2713  0.2733 -0.6818
   35DOPE  H13R 4451   5.804   4.761   5.266  0.4720 -0.1293 -0.5840
   35DOPE  H13S 4452   5.726   4.598   5.228 -1.9817 -0.3372  1.5797
   35DOPE  C214 4453   5.602   4.718   5.353  0.2536 -0.3569  0.3134
   35DOPE  H14R 4454   5.507   4.673   5.316 -0.6234  1.7803 -0.1620
   35DOPE  H14S 4455   5.582   4.825   5.378 -2.6597 -1.0718  1.5660
   35DOPE  C215 4456   5.653   4.655   5.488 -0.2616 -0.0491 -0.5593
   35DOPE  H15R 4457   5.743   4.709   5.526  0.1060 -0.1277 -1.3022
   35DOPE  H15S 4458   5.684   4.549   5.475 -0.3462 -0.1678  0.1430
   35DOPE  C216 4459   5.544   4.644   5.600 -0.4991  0.7680  0.5601
   35DOPE  H16R 4460   5.467   4.573   5.563  1.5939 -0.4068 -1.8492
   35DOPE  H16S 4461   5.491   4.740   5.619  0.4743  1.0852  1.7888
   35DOPE  C217 4462   5.609   4.601   5.729  0.5570  0.0213  0.5401
   35DOPE  H17R 4463   5.687   4.678   5.742 -0.9898  1.6775  0.4378
   35DOPE  H17S 4464   5.670   4.509   5.722  1.7933  0.8793 -0.4454
   35DOPE  C218 4465   5.513   4.590   5.847 -0.1981 -0.3669  0.1101
   35DOPE  H18R 4466   5.435   4.514   5.827  0.0491 -0.3835 -0.8637
   35DOPE  H18S 4467   5.474   4.691   5.873  0.7683  0.6756 -2.2156
   35DOPE  H18T 4468   5.575   4.562   5.934 -0.5450 -2.0466 -0.1391
   35DOPE   C33 4469   5.304   4.643   4.323  0.2135 -0.4505  0.1517
   35DOPE   H3X 4470   5.194   4.646   4.305  0.0809  0.0867  0.9929
   35DOPE   H3Y 4471   5.332   4.748   4.299 -2.3283  0.1351 -0.6184
   35DOPE   C34 4472   5.325   4.610   4.474  0.5065  0.4008  0.1479
   35DOPE   H4X 4473   5.257   4.526   4.499  0.0731  0.9785  0.9405
   35DOPE   H4Y 4474   5.433   4.590   4.490  0.5068  0.8136  0.6830
   35DOPE   C35 4475   5.280   4.725   4.566  0.0799  0.0890  0.4320
   35DOPE   H5X 4476   5.184   4.768   4.527 -0.1310  0.7954  1.6665
   35DOPE   H5Y 4477   5.358   4.802   4.547  0.2150 -0.3617 -0.9967
   35DOPE   C36 4478   5.274   4.679   4.709 -0.0206  0.4881  0.1651
   35DOPE   H6X 4479   5.362   4.622   4.745 -1.4811 -3.3255 -1.7154
   35DOPE   H6Y 4480   5.203   4.594   4.715  0.2344  0.3596  3.1564
   35DOPE   C37 4481   5.240   4.782   4.817  0.1124 -0.1500  0.0015
   35DOPE   H7X 4482   5.145   4.825   4.781  1.1329 -0.3867 -3.2598
   35DOPE   H7Y 4483   5.206   4.728   4.908 -0.4558  1.9170  1.0602
   35DOPE   C38 4484   5.351   4.882   4.840 -1.0364 -0.0722 -0.4597
   35DOPE   H8X 4485   5.381   4.930   4.745 -2.5814 -1.8997 -1.9781
   35DOPE   H8Y 4486   5.437   4.837   4.894  0.5776  2.5991 -0.6214
   35DOPE   C39 4487   5.295   4.986   4.932  0.6439  0.3192 -0.0049
   35DOPE   H9X 4488   5.270   5.080   4.882  0.9757 -0.2545 -1.2796
   35DOPE  C310 4489   5.272   4.973   5.065 -0.0766  0.4942 -0.2905
   35DOPE  H10X 4490   5.219   5.045   5.129 -0.9287  0.9518 -1.4807
   35DOPE  C311 4491   5.315   4.848   5.145  0.0893  0.3253 -0.0629
   35DOPE  H11X 4492   5.367   4.771   5.083 -2.3128 -0.7613 -0.8556
   35DOPE  H11Y 4493   5.396   4.876   5.216  0.2106  0.5721 -0.2986
   35DOPE  C312 4494   5.202   4.776   5.211  0.7632 -0.6153 -0.6881
   35DOPE  H12X 4495   5.227   4.671   5.238  0.1514 -0.3690  0.9370
   35DOPE  H12Y 4496   5.124   4.768   5.132  0.4763 -0.1767 -0.4525
   35DOPE  C313 4497   5.134   4.839   5.337  0.3024  0.3186  0.1469
   35DOPE  H13X 4498   5.116   4.946   5.317 -0.9885 -0.2442 -2.0061
   35DOPE  H13Y 4499   5.036   4.791   5.360  1.1981 -1.4053  0.6040
   35DOPE  C314 4500   5.216   4.833   5.469  0.2390  0.4283  0.4003
   35DOPE  H14X 4501   5.319   4.874   5.460 -0.3449  2.4119  1.9858
   35DOPE  H14Y 4502   5.239   4.727   5.494  2.0057  0.5727 -0.4527
   35DOPE  C315 4503   5.154   4.887   5.600 -0.0741  0.1043  0.1647
   35DOPE  H15X 4504   5.051   4.846   5.606 -0.7823  1.7328 -0.3331
   35DOPE  H15Y 4505   5.146   4.997   5.607  1.0174  0.1009  2.1980
   35DOPE  C316 4506   5.229   4.834   5.724 -0.1408  0.0626 -0.8755
   35DOPE  H16X 4507   5.338   4.848   5.710 -0.1161  0.3868 -0.3547
   35DOPE  H16Y 4508   5.224   4.723   5.725 -0.5706  0.0798 -0.9972
   35DOPE  C317 4509   5.174   4.875   5.860  0.2358 -0.1891 -0.6303
   35DOPE  H17X 4510   5.240   4.838   5.942  0.0159  0.3947 -0.1854
   35DOPE  H17Y 4511   5.190   4.984   5.876 -0.0577 -0.4315  1.6345
   35DOPE  C318 4512   5.027   4.835   5.879 -0.6357 -0.1113 -0.7250
   35DOPE  H18X 4513   4.968   4.884   5.798  2.3049  0.0944 -2.9124
   35DOPE  H18Y 4514   5.028   4.725   5.862  3.1365 -0.4654  0.8572
   35DOPE  H18Z 4515   4.981   4.854   5.978 -0.7601  0.8886 -0.9640
   36DOPE     N 4516   6.341   5.825   3.775  0.2195  0.0731  0.6014
   36DOPE   HN1 4517   6.308   5.791   3.682  1.4835 -0.5118  0.3399
   36DOPE   HN2 4518   6.387   5.918   3.765  0.3288 -0.1964 -2.5644
   36DOPE   HN3 4519   6.413   5.759   3.809  1.4633 -0.1306 -2.1150
   36DOPE   C12 4520   6.230   5.833   3.872  0.4908  0.1420 -0.0914
   36DOPE  H12A 4521   6.163   5.918   3.847 -0.0952 -0.3519 -0.2194
   36DOPE  H12B 4522   6.275   5.845   3.972 -2.1084  1.6758  0.9907
   36DOPE   C11 4523   6.153   5.701   3.871  0.2118  0.5137 -0.3294
   36DOPE  H11A 4524   6.081   5.710   3.955  0.8664  1.6941  0.1292
   36DOPE  H11B 4525   6.218   5.615   3.897 -0.4933 -0.1132 -0.5994
   36DOPE     P 4526   5.948   5.714   3.715 -0.0003 -0.4589  0.1559
   36DOPE   O13 4527   5.905   5.664   3.583  0.5343 -0.3666 -0.2321
   36DOPE   O14 4528   5.947   5.861   3.722  1.0746  0.0302  0.1455
   36DOPE   O11 4529   5.866   5.642   3.832 -0.1228 -0.3983 -0.1945
   36DOPE   O12 4530   6.102   5.662   3.739  0.7301  0.1246  0.1653
   36DOPE    C1 4531   5.738   5.682   3.870 -0.2983  0.0399  0.3858
   36DOPE    HA 4532   5.662   5.601   3.880  0.5245 -1.0635 -1.8205
   36DOPE    HB 4533   5.692   5.756   3.801  0.9408 -0.4575 -1.0146
   36DOPE    C2 4534   5.734   5.728   4.019  0.2139 -0.1832 -0.2899
   36DOPE    HS 4535   5.631   5.763   4.038  0.7763  0.4255  1.9427
   36DOPE   O21 4536   5.831   5.832   4.049  0.0420 -0.2714  0.1722
   36DOPE   C21 4537   5.791   5.949   4.028 -0.6245  0.0669 -0.2208
   36DOPE   O22 4538   5.675   5.978   4.002 -0.2290 -0.0914  0.2441
   36DOPE   C22 4539   5.895   6.048   4.066 -0.2123 -0.0216  0.6902
   36DOPE   H2R 4540   5.893   6.133   3.994  0.0860 -0.4111  0.2186
   36DOPE   H2S 4541   5.996   6.002   4.058  1.9272  4.0784  1.3230
   36DOPE    C3 4542   5.768   5.606   4.110  0.4320  0.4214 -0.3111
   36DOPE    HX 4543   5.872   5.579   4.085  0.2693  0.5204 -1.1034
   36DOPE    HY 4544   5.698   5.524   4.082 -1.7060  1.6745  1.0584
   36DOPE   O31 4545   5.733   5.635   4.253  0.1206  0.7239  0.1224
   36DOPE   C31 4546   5.822   5.700   4.327  0.0263  0.3066  0.1111
   36DOPE   O32 4547   5.940   5.709   4.302  0.2687  0.1551 -0.1422
   36DOPE   C32 4548   5.760   5.749   4.454  0.6446 -0.0676 -0.3010
   36DOPE   H2X 4549   5.691   5.830   4.423  1.8945  1.4614  0.7506
   36DOPE   H2Y 4550   5.694   5.670   4.495  0.5022 -0.3755 -1.0886
   36DOPE   C23 4551   5.880   6.100   4.212  0.6830 -0.3121  0.4032
   36DOPE   H3R 4552   5.966   6.168   4.230  2.6086 -2.5911  0.2899
   36DOPE   H3S 4553   5.886   6.008   4.275  3.9179  0.1282  0.9245
   36DOPE   C24 4554   5.758   6.194   4.230  0.2683 -0.0210  0.3173
   36DOPE   H4R 4555   5.668   6.132   4.249  1.0218 -1.0083  0.7549
   36DOPE   H4S 4556   5.733   6.252   4.138 -1.7593 -1.0787  0.1442
   36DOPE   C25 4557   5.778   6.283   4.349  0.0190  0.5811 -0.2881
   36DOPE   H5R 4558   5.731   6.383   4.341  0.9549  0.9203 -1.9779
   36DOPE   H5S 4559   5.885   6.313   4.354  0.1388  0.5064 -1.8932
   36DOPE   C26 4560   5.732   6.216   4.481 -0.0318  0.5301  0.3501
   36DOPE   H6R 4561   5.792   6.124   4.490  1.3173  1.2832 -0.5625
   36DOPE   H6S 4562   5.623   6.195   4.471  0.6287 -2.0820 -2.7447
   36DOPE   C27 4563   5.785   6.288   4.605  0.0605  0.4951 -0.3339
   36DOPE   H7R 4564   5.848   6.374   4.575  0.3285 -0.0059 -1.2217
   36DOPE   H7S 4565   5.852   6.224   4.666 -2.1072  0.0756  1.8029
   36DOPE   C28 4566   5.680   6.350   4.699  0.2386 -1.3860 -0.6936
   36DOPE   H8R 4567   5.607   6.416   4.647  1.4331  0.8737  0.3768
   36DOPE   H8S 4568   5.735   6.424   4.760 -2.7282  2.3702 -2.1251
   36DOPE   C29 4569   5.617   6.237   4.775 -0.9816  0.1662  0.1827
   36DOPE   H9R 4570   5.561   6.164   4.714 -0.7153  0.0156  0.1152
   36DOPE  C210 4571   5.606   6.229   4.909  0.2797  0.3450 -0.0860
   36DOPE  H10R 4572   5.534   6.155   4.946  0.9352 -1.6517 -2.5725
   36DOPE  C211 4573   5.675   6.320   5.003  0.6292  0.0658 -0.2708
   36DOPE  H11R 4574   5.746   6.393   4.958  1.2653 -0.4719 -0.1531
   36DOPE  H11S 4575   5.734   6.250   5.066  1.0246 -0.1289 -0.8537
   36DOPE  C212 4576   5.583   6.393   5.106  1.4180  0.5689 -0.1508
   36DOPE  H12R 4577   5.516   6.457   5.043  2.9549  3.4834  0.9543
   36DOPE  H12S 4578   5.647   6.459   5.170  1.9075 -0.4866  0.4642
   36DOPE  C213 4579   5.508   6.289   5.204  0.4389  0.1899 -0.3395
   36DOPE  H13R 4580   5.585   6.259   5.278  0.2598  0.7344  0.0724
   36DOPE  H13S 4581   5.470   6.202   5.148 -1.2368  1.3305 -1.0689
   36DOPE  C214 4582   5.391   6.359   5.279 -0.4755  0.4179  0.6828
   36DOPE  H14R 4583   5.328   6.288   5.336 -0.7267 -1.6406 -1.9658
   36DOPE  H14S 4584   5.322   6.389   5.197 -1.4576 -3.3144 -0.0330
   36DOPE  C215 4585   5.430   6.481   5.364  0.2786 -0.0157  0.5817
   36DOPE  H15R 4586   5.340   6.529   5.406  0.2894 -0.7588  1.4847
   36DOPE  H15S 4587   5.493   6.547   5.300  0.5506 -1.1309 -0.3375
   36DOPE  C216 4588   5.522   6.449   5.483 -0.4958 -0.0838 -0.8068
   36DOPE  H16R 4589   5.581   6.539   5.512 -0.1875 -0.6181  0.2335
   36DOPE  H16S 4590   5.592   6.365   5.467  1.2375  1.0145  0.6189
   36DOPE  C217 4591   5.437   6.415   5.612 -0.3881  0.4358 -0.0603
   36DOPE  H17R 4592   5.491   6.338   5.671 -0.2977  0.8741  0.4350
   36DOPE  H17S 4593   5.354   6.353   5.573  1.6224 -1.4577 -1.5653
   36DOPE  C218 4594   5.397   6.531   5.701  0.7347  0.6083  0.4587
   36DOPE  H18R 4595   5.489   6.586   5.730  0.7627  1.2293 -0.7391
   36DOPE  H18S 4596   5.349   6.505   5.798  1.2762  0.3167  0.6485
   36DOPE  H18T 4597   5.335   6.601   5.641  1.3022  0.7511  0.0341
   36DOPE   C33 4598   5.861   5.796   4.554  0.3434  0.0714  0.3344
   36DOPE   H3X 4599   5.914   5.884   4.512  2.3022 -0.2219  2.0100
   36DOPE   H3Y 4600   5.947   5.732   4.583 -0.7736 -1.6464 -0.0199
   36DOPE   C34 4601   5.795   5.845   4.682 -0.4022  0.9106 -0.0630
   36DOPE   H4X 4602   5.845   5.927   4.738 -1.6452  2.3734 -1.0129
   36DOPE   H4Y 4603   5.706   5.904   4.652 -1.4415 -0.1518  0.8306
   36DOPE   C35 4604   5.751   5.740   4.777 -0.1211 -0.1393  0.3285
   36DOPE   H5X 4605   5.841   5.678   4.798  1.9319  1.3469 -3.1699
   36DOPE   H5Y 4606   5.664   5.693   4.725 -1.0626  1.5792  0.2923
   36DOPE   C36 4607   5.705   5.802   4.912 -0.5982  0.5268  0.5011
   36DOPE   H6X 4608   5.613   5.856   4.881 -0.2836  0.2948 -0.9237
   36DOPE   H6Y 4609   5.791   5.867   4.938  0.2938 -0.0567 -0.8522
   36DOPE   C37 4610   5.684   5.698   5.034  0.1434 -0.1773  0.7315
   36DOPE   H7X 4611   5.600   5.630   5.009 -0.5950  0.1982  2.1276
   36DOPE   H7Y 4612   5.778   5.638   5.031  0.6734  0.4995 -3.5717
   36DOPE   C38 4613   5.670   5.750   5.180  0.2380 -0.3099 -0.5609
   36DOPE   H8X 4614   5.664   5.659   5.243 -1.0192  0.9941  1.3229
   36DOPE   H8Y 4615   5.565   5.785   5.192  0.6413  1.3112 -1.4816
   36DOPE   C39 4616   5.773   5.848   5.223 -0.0451 -0.4112  0.5664
   36DOPE   H9X 4617   5.852   5.848   5.146 -0.1808 -1.1348  0.4200
   36DOPE  C310 4618   5.763   5.954   5.304  0.1836  0.1167 -0.4600
   36DOPE  H10X 4619   5.839   6.032   5.316  1.9206 -1.1215 -2.6613
   36DOPE  C311 4620   5.649   5.957   5.400  0.3916 -0.3348  0.0706
   36DOPE  H11X 4621   5.572   6.036   5.383 -0.1182 -0.8536 -0.0876
   36DOPE  H11Y 4622   5.585   5.866   5.409 -1.9625  1.3494  1.6567
   36DOPE  C312 4623   5.693   5.968   5.548  0.5470 -0.5973  0.0962
   36DOPE  H12X 4624   5.744   6.066   5.557 -0.0489 -0.2637 -0.0685
   36DOPE  H12Y 4625   5.768   5.888   5.565 -0.2321 -1.4582 -0.4464
   36DOPE  C313 4626   5.573   5.958   5.643 -0.2574 -0.1963  0.0968
   36DOPE  H13X 4627   5.487   6.017   5.605 -0.0627 -0.1792 -0.3198
   36DOPE  H13Y 4628   5.541   5.852   5.652 -1.5605  0.2627  1.2056
   36DOPE  C314 4629   5.613   6.017   5.784  0.1720  0.1722  0.3768
   36DOPE  H14X 4630   5.530   6.036   5.855  1.4064  0.2414  1.8564
   36DOPE  H14Y 4631   5.657   6.116   5.759  1.4211 -0.7959 -1.4829
   36DOPE  C315 4632   5.721   5.931   5.854  0.1056  0.1570 -0.3757
   36DOPE  H15X 4633   5.818   5.941   5.801  0.5361 -1.7465 -0.0223
   36DOPE  H15Y 4634   5.679   5.829   5.843 -3.0943  1.3104  0.1080
   36DOPE  C316 4635   5.739   5.957   6.002  0.3463 -0.8004  0.7885
   36DOPE  H16X 4636   5.630   5.962   6.026  0.2162  1.1518  0.0305
   36DOPE  H16Y 4637   5.784   6.056   6.025  0.0529 -0.7867  1.3341
   36DOPE  C317 4638   5.812   5.842   6.083  0.2375  0.0223 -0.7272
   36DOPE  H17X 4639   5.742   5.756   6.079  2.6054 -2.0107 -0.9605
   36DOPE  H17Y 4640   5.894   5.802   6.019 -0.8910 -2.2403 -0.8875
   36DOPE  C318 4641   5.851   5.882   6.227 -0.0889  0.0859  0.6588
   36DOPE  H18X 4642   5.907   5.805   6.285  0.0514  0.5950  1.2125
   36DOPE  H18Y 4643   5.911   5.975   6.231  0.4670 -0.2470  0.2375
   36DOPE  H18Z 4644   5.760   5.897   6.288 -0.0508  1.3915  0.4248
   37DOPE     N 4645   2.511   3.402   4.249 -0.6487 -0.2809 -0.3650
   37DOPE   HN1 4646   2.457   3.488   4.225 -0.4071 -0.3239 -1.0779
   37DOPE   HN2 4647   2.448   3.319   4.246 -0.7542 -0.4818  2.9036
   37DOPE   HN3 4648   2.548   3.402   4.346 -0.7097  0.4299 -0.3352
   37DOPE   C12 4649   2.641   3.375   4.172 -0.3002  0.0200  0.1348
   37DOPE  H12A 4650   2.619   3.369   4.064  2.2346  2.1756 -0.6160
   37DOPE  H12B 4651   2.688   3.284   4.216  1.3686  0.6771 -0.2366
   37DOPE   C11 4652   2.742   3.483   4.203  0.0952 -1.2009 -0.0633
   37DOPE  H11A 4653   2.827   3.462   4.135 -0.2396 -0.9058 -0.5740
   37DOPE  H11B 4654   2.775   3.474   4.309 -0.6163  0.4960  0.3353
   37DOPE     P 4655   2.769   3.744   4.158  0.0463  0.0973  0.3962
   37DOPE   O13 4656   2.689   3.844   4.083  0.1342  0.1627 -0.1506
   37DOPE   O14 4657   2.896   3.701   4.094 -0.4442  0.0316 -0.1568
   37DOPE   O11 4658   2.783   3.790   4.311  0.1114  0.0054  0.1577
   37DOPE   O12 4659   2.686   3.611   4.172  0.1341 -0.8625  0.6349
   37DOPE    C1 4660   2.654   3.796   4.390 -0.0699 -0.7341  0.0611
   37DOPE    HA 4661   2.562   3.776   4.331 -1.3566  0.4416  1.5936
   37DOPE    HB 4662   2.656   3.901   4.428  2.8358  0.0606 -1.9310
   37DOPE    C2 4663   2.659   3.712   4.507 -0.6673  0.4616 -0.3831
   37DOPE    HS 4664   2.660   3.607   4.472  1.2585  0.0119  0.8766
   37DOPE   O21 4665   2.563   3.738   4.608 -0.3094  0.0003 -0.1332
   37DOPE   C21 4666   2.471   3.636   4.614 -0.5134 -0.8151 -1.0599
   37DOPE   O22 4667   2.463   3.552   4.527  0.0023 -0.3423  0.4755
   37DOPE   C22 4668   2.392   3.648   4.748  0.5706 -0.8823 -0.5609
   37DOPE   H2R 4669   2.321   3.728   4.716  0.7256 -0.9578 -1.0982
   37DOPE   H2S 4670   2.459   3.679   4.831  0.2291 -1.7008  0.0250
   37DOPE    C3 4671   2.807   3.715   4.575  0.2775  0.1600  0.1438
   37DOPE    HX 4672   2.826   3.822   4.597  0.4584  0.2876 -0.6304
   37DOPE    HY 4673   2.892   3.684   4.511  0.6938  0.9745  0.2830
   37DOPE   O31 4674   2.809   3.644   4.703  0.5353 -0.6326  0.1293
   37DOPE   C31 4675   2.839   3.514   4.689 -0.5417  0.6241  0.4833
   37DOPE   O32 4676   2.856   3.447   4.589  0.3835 -0.4542  0.7779
   37DOPE   C32 4677   2.861   3.459   4.831  0.1614  0.0496  0.1917
   37DOPE   H2X 4678   2.886   3.351   4.829 -1.5889 -0.4043  1.0693
   37DOPE   H2Y 4679   2.950   3.512   4.873 -1.1375  3.9821 -1.5542
   37DOPE   C23 4680   2.312   3.521   4.788 -0.3429  0.3568  0.5956
   37DOPE   H3R 4681   2.356   3.428   4.746  0.7732  0.5611  1.2800
   37DOPE   H3S 4682   2.206   3.523   4.756  0.1459 -0.9795 -1.2933
   37DOPE   C24 4683   2.305   3.492   4.937 -0.0819 -0.2969 -0.8102
   37DOPE   H4R 4684   2.231   3.558   4.986 -1.6425 -1.7898 -1.0400
   37DOPE   H4S 4685   2.403   3.511   4.986 -0.5065 -0.2263  0.0188
   37DOPE   C25 4686   2.263   3.350   4.978 -0.1042  0.3393 -0.2969
   37DOPE   H5R 4687   2.269   3.352   5.089 -1.2141  2.3719 -0.2281
   37DOPE   H5S 4688   2.341   3.280   4.942  3.6596  2.7595  2.4090
   37DOPE   C26 4689   2.118   3.315   4.936  0.2008 -0.0357 -0.5080
   37DOPE   H6R 4690   2.099   3.325   4.827 -2.8666 -0.7546 -0.1370
   37DOPE   H6S 4691   2.061   3.398   4.981  0.6672  0.5818 -1.0396
   37DOPE   C27 4692   2.070   3.176   4.978 -0.5042  0.0120  0.1212
   37DOPE   H7R 4693   2.134   3.097   4.934 -0.7276  0.1587 -0.4867
   37DOPE   H7S 4694   1.969   3.162   4.934  1.0102 -0.5205 -3.5158
   37DOPE   C28 4695   2.083   3.161   5.136  0.4020 -0.3222  0.7869
   37DOPE   H8R 4696   2.031   3.252   5.174 -0.6675 -0.1293 -1.0061
   37DOPE   H8S 4697   2.188   3.175   5.168  0.9663 -1.0194 -0.6813
   37DOPE   C29 4698   2.028   3.037   5.185  0.6878 -0.4649 -0.6179
   37DOPE   H9R 4699   2.006   2.964   5.106  2.2630 -0.4023 -1.1498
   37DOPE  C210 4700   2.014   3.003   5.317 -0.6168  0.0294 -0.3987
   37DOPE  H10R 4701   1.971   2.906   5.344  0.1676  0.3827  2.4392
   37DOPE  C211 4702   2.060   3.088   5.434 -0.1279 -0.1471  0.2014
   37DOPE  H11R 4703   1.997   3.178   5.448  0.0567 -0.2648  2.0467
   37DOPE  H11S 4704   2.157   3.133   5.404 -0.6562  0.3026 -0.8745
   37DOPE  C212 4705   2.104   3.035   5.570  0.1426 -0.5146 -0.9832
   37DOPE  H12R 4706   2.168   2.944   5.568  1.6630  0.5154 -1.4957
   37DOPE  H12S 4707   2.012   3.005   5.624  1.2035 -0.6455  0.8855
   37DOPE  C213 4708   2.161   3.146   5.654  0.3561 -0.0754 -0.2530
   37DOPE  H13R 4709   2.083   3.225   5.653 -0.0745 -0.4875 -1.9149
   37DOPE  H13S 4710   2.252   3.183   5.603 -0.2854  1.2604 -0.4650
   37DOPE  C214 4711   2.196   3.086   5.783  0.3340 -0.3897 -0.3620
   37DOPE  H14R 4712   2.267   3.001   5.778  0.3792 -0.2968 -2.7921
   37DOPE  H14S 4713   2.103   3.040   5.821  0.6277 -1.0670 -0.4504
   37DOPE  C215 4714   2.249   3.184   5.882  0.3629  0.0423 -0.1891
   37DOPE  H15R 4715   2.167   3.259   5.892  2.4387  2.5408 -0.7204
   37DOPE  H15S 4716   2.338   3.240   5.847  0.3968  0.0771 -0.0492
   37DOPE  C216 4717   2.285   3.121   6.019 -0.5150  0.0515  0.2602
   37DOPE  H16R 4718   2.377   3.061   6.005 -0.9828 -1.1572  2.0001
   37DOPE  H16S 4719   2.209   3.054   6.066 -0.2962 -0.9575 -0.8003
   37DOPE  C217 4720   2.315   3.227   6.136  0.3045 -0.5408  0.4711
   37DOPE  H17R 4721   2.234   3.303   6.135 -0.6825 -1.5701 -0.0344
   37DOPE  H17S 4722   2.406   3.284   6.106  1.5223 -1.0799  2.9483
   37DOPE  C218 4723   2.328   3.167   6.271  0.0922  0.1034  0.4274
   37DOPE  H18R 4724   2.235   3.127   6.316 -0.4319  0.4324 -0.3405
   37DOPE  H18S 4725   2.380   3.237   6.340  2.1065 -1.0522  0.1700
   37DOPE  H18T 4726   2.392   3.076   6.265 -0.2027 -0.1271  0.7737
   37DOPE   C33 4727   2.740   3.481   4.922  0.1632  0.4058 -0.3130
   37DOPE   H3X 4728   2.656   3.430   4.871 -0.3096  0.7952  0.0637
   37DOPE   H3Y 4729   2.721   3.589   4.940  0.0487  0.7285 -2.2367
   37DOPE   C34 4730   2.752   3.399   5.051  0.2169 -0.3174  0.5535
   37DOPE   H4X 4731   2.762   3.292   5.025 -1.1668 -0.4103  0.3509
   37DOPE   H4Y 4732   2.834   3.445   5.111  3.0532 -2.7114 -1.1696
   37DOPE   C35 4733   2.623   3.406   5.134  0.7147  0.6344  0.7059
   37DOPE   H5X 4734   2.554   3.332   5.088  0.8043  1.1033 -0.2095
   37DOPE   H5Y 4735   2.578   3.507   5.122 -1.4192 -0.5062 -2.3219
   37DOPE   C36 4736   2.631   3.374   5.287 -0.1292  0.2160 -0.1640
   37DOPE   H6X 4737   2.684   3.461   5.330  0.2074 -0.6975  1.3415
   37DOPE   H6Y 4738   2.676   3.276   5.310 -0.5011  0.1043  0.1059
   37DOPE   C37 4739   2.487   3.362   5.355  0.0685 -0.3994  0.3375
   37DOPE   H7X 4740   2.423   3.301   5.287 -0.8606  2.1401 -1.2124
   37DOPE   H7Y 4741   2.507   3.309   5.450  1.8804 -1.3714 -0.5325
   37DOPE   C38 4742   2.418   3.494   5.374  0.0812 -0.1144 -0.5922
   37DOPE   H8X 4743   2.408   3.558   5.284  1.7293 -1.4008 -1.7432
   37DOPE   H8Y 4744   2.479   3.552   5.446 -0.4310  0.2490 -0.4463
   37DOPE   C39 4745   2.277   3.466   5.425  0.6874  0.1927  0.3128
   37DOPE   H9X 4746   2.206   3.439   5.346  0.1809  0.6644  0.5972
   37DOPE  C310 4747   2.221   3.474   5.548  0.1244  0.3041 -0.3740
   37DOPE  H10X 4748   2.119   3.437   5.562 -0.5210  1.2106 -2.3964
   37DOPE  C311 4749   2.301   3.513   5.675  0.6156  0.2262 -0.4472
   37DOPE  H11X 4750   2.279   3.437   5.753 -2.0536  0.6256 -0.6924
   37DOPE  H11Y 4751   2.411   3.506   5.661  0.6863  0.2298  0.0970
   37DOPE  C312 4752   2.253   3.651   5.710 -0.1777  0.2730  0.1396
   37DOPE  H12X 4753   2.151   3.630   5.749 -0.4620  1.0818 -0.1539
   37DOPE  H12Y 4754   2.244   3.722   5.625  1.3918 -1.2629 -1.4051
   37DOPE  C313 4755   2.331   3.716   5.825  0.2587 -0.5374 -0.4123
   37DOPE  H13X 4756   2.433   3.748   5.796  0.5882 -1.1073  0.0966
   37DOPE  H13Y 4757   2.270   3.803   5.857 -1.3065 -1.5174 -0.6305
   37DOPE  C314 4758   2.348   3.627   5.952 -0.4361 -0.5409  0.2085
   37DOPE  H14X 4759   2.425   3.672   6.018  0.0154 -1.8138  0.5752
   37DOPE  H14Y 4760   2.395   3.534   5.913  1.9076  0.3205  0.8160
   37DOPE  C315 4761   2.217   3.606   6.035  0.4613  0.4553  0.5971
   37DOPE  H15X 4762   2.213   3.505   6.082  2.3317  0.9060  1.8025
   37DOPE  H15Y 4763   2.134   3.621   5.961  1.4408  0.1778 -0.5951
   37DOPE  C316 4764   2.201   3.712   6.147  0.7699  0.3912 -0.4521
   37DOPE  H16X 4765   2.175   3.803   6.089 -1.2202 -1.1244 -2.1111
   37DOPE  H16Y 4766   2.295   3.732   6.202  0.3703  2.4908 -0.4388
   37DOPE  C317 4767   2.084   3.687   6.243 -0.1620 -0.5138  0.2195
   37DOPE  H17X 4768   1.993   3.662   6.185  0.6420 -2.9461 -0.0902
   37DOPE  H17Y 4769   2.111   3.595   6.299 -1.1580  0.0687  1.7270
   37DOPE  C318 4770   2.055   3.797   6.353  0.4306 -0.0990 -0.3286
   37DOPE  H18X 4771   1.971   3.756   6.412  1.2021 -0.5067  0.5191
   37DOPE  H18Y 4772   2.139   3.806   6.426  1.8235 -1.5161 -1.6738
   37DOPE  H18Z 4773   2.015   3.890   6.308 -3.8097 -0.9944  1.1224
   38DOPE     N 4774   6.477   5.447   3.700  0.2532  0.2003 -0.3533
   38DOPE   HN1 4775   6.457   5.468   3.600  2.1083  0.8303 -0.6239
   38DOPE   HN2 4776   6.385   5.444   3.749 -0.3010  1.6954 -1.2209
   38DOPE   HN3 4777   6.523   5.528   3.746 -0.3934 -0.5859  1.7766
   38DOPE   C12 4778   6.553   5.327   3.725  0.6035  0.2488  0.0348
   38DOPE  H12A 4779   6.653   5.326   3.675  1.1144  0.0397  1.0313
   38DOPE  H12B 4780   6.489   5.250   3.677  0.0280 -1.3997  3.1294
   38DOPE   C11 4781   6.576   5.297   3.876  0.2596  0.1894 -0.2270
   38DOPE  H11A 4782   6.666   5.362   3.880 -0.0077  0.7801 -2.5976
   38DOPE  H11B 4783   6.612   5.196   3.905  1.8343  0.7555 -0.1051
   38DOPE     P 4784   6.331   5.284   3.974  0.1748  0.3326  0.4391
   38DOPE   O13 4785   6.332   5.148   4.032 -0.4321 -0.1911 -0.7523
   38DOPE   O14 4786   6.250   5.310   3.849 -0.0951  0.6342 -0.1811
   38DOPE   O11 4787   6.257   5.380   4.081 -0.2941  0.0683 -0.7532
   38DOPE   O12 4788   6.473   5.348   3.958  0.1122 -0.6495  0.5906
   38DOPE    C1 4789   6.117   5.367   4.118  0.4605  0.2799 -0.4023
   38DOPE    HA 4790   6.070   5.298   4.044  0.9164  1.9437 -2.3298
   38DOPE    HB 4791   6.074   5.469   4.117  1.2984  0.6709  0.9123
   38DOPE    C2 4792   6.102   5.315   4.266 -0.0680 -0.1559 -1.3286
   38DOPE    HS 4793   6.155   5.220   4.289 -0.7906  0.0277  1.5442
   38DOPE   O21 4794   5.962   5.305   4.295  0.5846  0.1914 -0.1590
   38DOPE   C21 4795   5.895   5.204   4.237  0.2485 -0.0513 -0.3255
   38DOPE   O22 4796   5.953   5.114   4.176 -0.6924 -0.0914  0.6184
   38DOPE   C22 4797   5.746   5.219   4.264 -0.0580  1.0482 -0.1825
   38DOPE   H2R 4798   5.708   5.116   4.281  4.3937 -0.7780 -0.0086
   38DOPE   H2S 4799   5.709   5.273   4.174  0.4104  1.6123 -0.0449
   38DOPE    C3 4800   6.163   5.414   4.372  0.9211  0.2196 -0.5339
   38DOPE    HX 4801   6.137   5.517   4.336  0.5500  2.0089  4.2114
   38DOPE    HY 4802   6.273   5.400   4.368  0.7016 -1.6161 -1.0371
   38DOPE   O31 4803   6.105   5.391   4.508  0.7086 -0.1683  0.0689
   38DOPE   C31 4804   6.167   5.432   4.610 -0.1453 -0.7648 -0.3956
   38DOPE   O32 4805   6.281   5.481   4.609  0.7975  0.0271  0.0735
   38DOPE   C32 4806   6.083   5.419   4.737 -0.2256 -0.1362  0.1457
   38DOPE   H2X 4807   5.986   5.469   4.718 -0.0848 -0.7035 -2.3947
   38DOPE   H2Y 4808   6.052   5.313   4.740 -0.6198 -0.1782 -2.6132
   38DOPE   C23 4809   5.714   5.296   4.391  0.5900  0.4485 -1.1322
   38DOPE   H3R 4810   5.608   5.328   4.383 -0.0196  0.3339  3.8124
   38DOPE   H3S 4811   5.777   5.385   4.410  2.3171 -1.0718  0.6058
   38DOPE   C24 4812   5.715   5.218   4.526  0.1558 -0.0233 -0.4390
   38DOPE   H4R 4813   5.818   5.185   4.554 -0.1572  0.3029  1.2182
   38DOPE   H4S 4814   5.647   5.130   4.528  0.1878 -0.0451  1.5830
   38DOPE   C25 4815   5.690   5.310   4.644 -0.5716 -0.4584  0.3229
   38DOPE   H5R 4816   5.603   5.380   4.638  0.8821  1.4710  0.7723
   38DOPE   H5S 4817   5.779   5.377   4.648 -0.3291 -0.8077  0.8008
   38DOPE   C26 4818   5.673   5.237   4.780 -0.4016 -0.3215 -0.1669
   38DOPE   H6R 4819   5.759   5.167   4.780 -0.2659 -0.2164  2.2992
   38DOPE   H6S 4820   5.590   5.164   4.785 -0.1888 -0.7348 -2.0316
   38DOPE   C27 4821   5.692   5.324   4.904  0.6114  0.0559 -0.5764
   38DOPE   H7R 4822   5.606   5.393   4.916  1.1518  0.4893  1.1377
   38DOPE   H7S 4823   5.785   5.382   4.884  0.8010  0.1484  0.5154
   38DOPE   C28 4824   5.700   5.249   5.033  0.1880 -0.5215  0.1223
   38DOPE   H8R 4825   5.725   5.324   5.111 -1.9687 -0.2679  0.6175
   38DOPE   H8S 4826   5.787   5.180   5.044  0.6398  0.1493  0.8002
   38DOPE   C29 4827   5.576   5.178   5.080 -0.0499 -0.7443  0.0596
   38DOPE   H9R 4828   5.512   5.154   4.994  0.5812 -0.5103 -0.4852
   38DOPE  C210 4829   5.537   5.143   5.206  0.0080 -0.2847  0.6378
   38DOPE  H10R 4830   5.434   5.106   5.218  0.3788 -1.1359  1.3074
   38DOPE  C211 4831   5.611   5.183   5.330  0.2743  0.3971 -0.1617
   38DOPE  H11R 4832   5.650   5.287   5.338 -0.0226  0.4497  0.8115
   38DOPE  H11S 4833   5.694   5.112   5.349  1.6525  1.7937 -0.7363
   38DOPE  C212 4834   5.509   5.173   5.445 -0.5109  0.5610 -1.1424
   38DOPE  H12R 4835   5.458   5.076   5.459  0.1870  0.2835 -0.4532
   38DOPE  H12S 4836   5.420   5.236   5.425  0.8416  3.1909  0.5659
   38DOPE  C213 4837   5.570   5.220   5.585 -0.2038 -0.1490  0.2926
   38DOPE  H13R 4838   5.584   5.330   5.584 -0.6231 -0.0886  0.6577
   38DOPE  H13S 4839   5.670   5.177   5.606 -0.2254 -0.0756  0.5475
   38DOPE  C214 4840   5.484   5.172   5.700 -0.0190  0.4616 -0.7745
   38DOPE  H14R 4841   5.472   5.062   5.703  1.6416  0.2193  3.0827
   38DOPE  H14S 4842   5.389   5.227   5.685  0.3815  1.3807 -0.0794
   38DOPE  C215 4843   5.530   5.198   5.842  0.7811  0.0086  0.0829
   38DOPE  H15R 4844   5.553   5.305   5.862  1.0432 -0.0068 -0.1261
   38DOPE  H15S 4845   5.630   5.152   5.861  1.2014  0.2034 -1.5228
   38DOPE  C216 4846   5.424   5.167   5.944  0.0793 -0.2327  0.4051
   38DOPE  H16R 4847   5.401   5.059   5.951  0.5124 -0.2803  1.2675
   38DOPE  H16S 4848   5.327   5.217   5.922  0.5297 -0.3632 -2.1570
   38DOPE  C217 4849   5.461   5.197   6.096 -1.0123 -0.7732  0.3633
   38DOPE  H17R 4850   5.486   5.305   6.105 -1.3149 -0.5142 -1.4613
   38DOPE  H17S 4851   5.556   5.141   6.111  0.9713  2.6612  1.7784
   38DOPE  C218 4852   5.358   5.144   6.197  0.5746  0.0298 -0.5909
   38DOPE  H18R 4853   5.378   5.036   6.213  2.6152  0.2133 -1.5808
   38DOPE  H18S 4854   5.256   5.162   6.156 -0.3541 -0.8892  1.2182
   38DOPE  H18T 4855   5.359   5.190   6.298 -2.3412 -0.1786 -0.3758
   38DOPE   C33 4856   6.147   5.459   4.870  0.1540 -0.0325  0.0378
   38DOPE   H3X 4857   6.159   5.569   4.882  2.0439 -0.2981  1.0188
   38DOPE   H3Y 4858   6.241   5.408   4.899 -1.0699 -1.5919  1.4002
   38DOPE   C34 4859   6.040   5.422   4.975 -0.2764  0.5799 -0.0447
   38DOPE   H4X 4860   5.957   5.492   4.950 -2.0610 -1.5820 -0.4394
   38DOPE   H4Y 4861   6.010   5.316   4.965  2.7813 -0.2953 -1.2070
   38DOPE   C35 4862   6.090   5.450   5.118 -0.7139 -0.6089 -0.3527
   38DOPE   H5X 4863   6.153   5.541   5.117  1.4995 -2.0543  0.3959
   38DOPE   H5Y 4864   6.170   5.374   5.134  0.5755  0.7604 -0.1411
   38DOPE   C36 4865   5.986   5.433   5.223 -0.1519 -0.3143 -0.2286
   38DOPE   H6X 4866   5.954   5.327   5.213 -1.8718  0.2071 -0.6628
   38DOPE   H6Y 4867   5.907   5.507   5.197  0.6859  0.9141  0.6133
   38DOPE   C37 4868   6.035   5.466   5.367 -0.2908  0.5736  0.0106
   38DOPE   H7X 4869   6.137   5.424   5.371 -0.1216  1.0333  2.7098
   38DOPE   H7Y 4870   6.039   5.577   5.377 -1.7148  0.5961  0.6820
   38DOPE   C38 4871   5.933   5.410   5.469  0.4565 -0.1068 -0.3509
   38DOPE   H8X 4872   5.985   5.421   5.567 -1.7577 -0.9259  0.9980
   38DOPE   H8Y 4873   5.921   5.301   5.450 -2.5702  0.0796  0.0816
   38DOPE   C39 4874   5.808   5.491   5.462  0.0646  0.7633  0.5331
   38DOPE   H9X 4875   5.755   5.495   5.366 -1.7120 -0.0939  1.4214
   38DOPE  C310 4876   5.757   5.576   5.560 -0.2081  0.0339  0.3134
   38DOPE  H10X 4877   5.657   5.622   5.550 -0.3363  0.4435  2.9558
   38DOPE  C311 4878   5.812   5.585   5.702 -0.1096 -0.5854  0.1491
   38DOPE  H11X 4879   5.918   5.618   5.704  0.3334 -1.9122  0.0267
   38DOPE  H11Y 4880   5.759   5.662   5.762  1.0128 -1.0705  1.8420
   38DOPE  C312 4881   5.793   5.454   5.782  0.0507 -0.8251  0.6344
   38DOPE  H12X 4882   5.840   5.372   5.723  1.0905 -0.7885  1.3992
   38DOPE  H12Y 4883   5.682   5.450   5.785 -0.1866  2.8606  1.2582
   38DOPE  C313 4884   5.852   5.470   5.922 -0.4273  0.6798  0.2342
   38DOPE  H13X 4885   5.961   5.492   5.931 -0.2594 -0.4217  1.0809
   38DOPE  H13Y 4886   5.798   5.552   5.974 -0.2645  1.6229 -1.0465
   38DOPE  C314 4887   5.827   5.340   6.008 -0.3971 -0.2455 -0.4192
   38DOPE  H14X 4888   5.816   5.245   5.952  0.0234 -0.7675  0.3786
   38DOPE  H14Y 4889   5.735   5.358   6.067  0.3903 -1.1875  1.1589
   38DOPE  C315 4890   5.946   5.316   6.110  0.3806  0.2619  0.2864
   38DOPE  H15X 4891   5.970   5.400   6.178 -1.1843 -0.0459  1.2704
   38DOPE  H15Y 4892   6.040   5.294   6.054 -0.5164 -1.9653 -0.4694
   38DOPE  C316 4893   5.925   5.186   6.197 -0.6694 -0.3429 -0.1212
   38DOPE  H16X 4894   5.949   5.091   6.146  2.4793 -0.8129  1.9934
   38DOPE  H16Y 4895   5.816   5.183   6.219 -0.5916 -4.7796  0.5654
   38DOPE  C317 4896   6.000   5.188   6.339  0.3964 -0.4829  0.4605
   38DOPE  H17X 4897   6.108   5.172   6.319 -0.0724 -2.6563 -0.6183
   38DOPE  H17Y 4898   5.996   5.293   6.376 -0.1579  0.1179 -1.2210
   38DOPE  C318 4899   5.940   5.075   6.425  0.7035  0.5871 -0.0740
   38DOPE  H18X 4900   5.830   5.083   6.422  0.3549 -2.6243  0.2339
   38DOPE  H18Y 4901   5.973   4.974   6.389  1.5569  0.7026  0.3490
   38DOPE  H18Z 4902   5.986   5.092   6.524  0.8590 -1.8369  0.3306
   39DOPE     N 4903   1.621   5.818   4.551  0.3451 -0.3039  0.3945
   39DOPE   HN1 4904   1.723   5.819   4.567  0.5660 -0.1985 -0.9303
   39DOPE   HN2 4905   1.574   5.882   4.619  0.7590  1.0893 -0.6009
   39DOPE   HN3 4906   1.584   5.727   4.584 -0.8473  0.3448  0.9251
   39DOPE   C12 4907   1.573   5.839   4.413  0.0038  0.1412  0.1695
   39DOPE  H12A 4908   1.629   5.929   4.381  1.6787 -0.2678  1.7851
   39DOPE  H12B 4909   1.463   5.855   4.421 -0.1593 -1.0506  0.4374
   39DOPE   C11 4910   1.611   5.724   4.320 -0.1226  0.2627  0.2478
   39DOPE  H11A 4911   1.719   5.699   4.331 -0.0464 -2.4550 -4.0122
   39DOPE  H11B 4912   1.594   5.753   4.214 -1.4702 -2.1685 -0.2818
   39DOPE     P 4913   1.514   5.488   4.253 -0.2961 -0.3306  0.2142
   39DOPE   O13 4914   1.643   5.438   4.210  0.1369 -0.1144  0.0726
   39DOPE   O14 4915   1.417   5.530   4.153 -0.1148  0.5377 -0.3534
   39DOPE   O11 4916   1.452   5.368   4.342  0.0963 -0.3573 -0.2564
   39DOPE   O12 4917   1.535   5.606   4.357 -0.2256 -0.0770 -0.4234
   39DOPE    C1 4918   1.314   5.366   4.384 -1.6480  0.8871  0.1303
   39DOPE    HA 4919   1.268   5.265   4.388 -1.3337  0.6992 -0.8063
   39DOPE    HB 4920   1.243   5.413   4.313 -1.2277 -0.4200 -1.2037
   39DOPE    C2 4921   1.292   5.446   4.511  0.6310 -0.4233  0.3973
   39DOPE    HS 4922   1.303   5.553   4.485  1.3214 -0.6300 -0.1923
   39DOPE   O21 4923   1.381   5.390   4.610 -0.0011  0.6574  0.0641
   39DOPE   C21 4924   1.466   5.473   4.664 -0.7929  0.2703 -0.2343
   39DOPE   O22 4925   1.473   5.593   4.653  0.7614  0.2836 -0.4277
   39DOPE   C22 4926   1.562   5.389   4.754 -0.3179  0.3886  0.2157
   39DOPE   H2R 4927   1.632   5.343   4.680 -2.0748  0.7578 -1.7589
   39DOPE   H2S 4928   1.500   5.308   4.797  0.6918 -1.2120 -1.1958
   39DOPE    C3 4929   1.143   5.427   4.565  0.0693 -0.2733  0.0440
   39DOPE    HX 4930   1.124   5.318   4.574 -1.4567 -0.3660 -3.0781
   39DOPE    HY 4931   1.079   5.464   4.483  0.7776 -1.1387 -0.9336
   39DOPE   O31 4932   1.117   5.482   4.696  0.0227 -0.3008 -0.4355
   39DOPE   C31 4933   1.123   5.617   4.698 -0.1496 -0.4000  0.9508
   39DOPE   O32 4934   1.132   5.683   4.597  0.1701  0.0442  0.4167
   39DOPE   C32 4935   1.117   5.651   4.840  0.7912  0.5876 -0.6387
   39DOPE   H2X 4936   1.124   5.562   4.905 -2.6653  0.7207  0.1102
   39DOPE   H2Y 4937   1.203   5.716   4.867 -0.2282  1.8157 -0.2326
   39DOPE   C23 4938   1.650   5.472   4.861  0.2759 -0.7879  0.1540
   39DOPE   H3R 4939   1.720   5.536   4.804  0.6233 -0.3653  1.0446
   39DOPE   H3S 4940   1.721   5.412   4.921 -0.5053 -3.0303 -1.0206
   39DOPE   C24 4941   1.565   5.552   4.965 -0.2392 -0.2814  0.2442
   39DOPE   H4R 4942   1.503   5.632   4.921 -0.9615 -0.1543  1.4548
   39DOPE   H4S 4943   1.630   5.607   5.037 -0.5751 -0.0697  0.3881
   39DOPE   C25 4944   1.462   5.465   5.037  0.3324  0.4741 -0.1770
   39DOPE   H5R 4945   1.525   5.392   5.092  1.6669  0.7493 -1.2718
   39DOPE   H5S 4946   1.393   5.419   4.962  0.5398  1.9360 -1.3158
   39DOPE   C26 4947   1.380   5.543   5.142 -0.5364 -0.1082 -0.4738
   39DOPE   H6R 4948   1.314   5.613   5.087  0.8070  1.2900 -0.3921
   39DOPE   H6S 4949   1.450   5.604   5.204 -1.6965 -1.1100  1.9525
   39DOPE   C27 4950   1.292   5.452   5.233 -0.2985  0.3600  1.0076
   39DOPE   H7R 4951   1.344   5.357   5.257 -0.2043  0.0462 -0.3444
   39DOPE   H7S 4952   1.195   5.424   5.186  0.1917  0.2459  0.0323
   39DOPE   C28 4953   1.244   5.521   5.364  0.4272  0.2015 -0.3745
   39DOPE   H8R 4954   1.335   5.533   5.427  0.8722  0.9067 -1.1420
   39DOPE   H8S 4955   1.170   5.441   5.387 -0.1769  0.5012 -1.2204
   39DOPE   C29 4956   1.184   5.662   5.348 -0.6609  0.5653  0.3687
   39DOPE   H9R 4957   1.244   5.726   5.282  0.6587 -0.3626  0.6179
   39DOPE  C210 4958   1.065   5.699   5.391  0.5187 -0.0244 -0.7388
   39DOPE  H10R 4959   1.033   5.802   5.375  0.9153  0.7767  2.7136
   39DOPE  C211 4960   0.969   5.629   5.480 -1.1106 -0.5563 -0.1185
   39DOPE  H11R 4961   1.000   5.523   5.495 -1.3985 -0.5755  0.3439
   39DOPE  H11S 4962   0.877   5.612   5.421 -0.2561 -0.2322 -1.6061
   39DOPE  C212 4963   0.932   5.691   5.612 -0.1940 -0.9409 -0.8193
   39DOPE  H12R 4964   0.857   5.624   5.661 -0.5270 -1.0577 -1.4777
   39DOPE  H12S 4965   0.882   5.788   5.593 -0.9853 -0.5971  2.3535
   39DOPE  C213 4966   1.047   5.702   5.723  0.4495 -0.2964  0.4308
   39DOPE  H13R 4967   1.014   5.754   5.815 -0.4457 -0.4672  0.2178
   39DOPE  H13S 4968   1.118   5.774   5.676  0.8948  0.1807  1.7783
   39DOPE  C214 4969   1.114   5.568   5.748  0.1870  0.2710  0.0571
   39DOPE  H14R 4970   1.189   5.582   5.829 -1.3811 -0.3445  1.6948
   39DOPE  H14S 4971   1.171   5.523   5.665  0.2783  1.2837 -0.4382
   39DOPE  C215 4972   1.013   5.481   5.826 -0.2090 -1.2441 -0.2676
   39DOPE  H15R 4973   0.957   5.423   5.750  2.4669 -1.9293 -1.8658
   39DOPE  H15S 4974   0.940   5.556   5.864  3.9559  2.1355  2.0072
   39DOPE  C216 4975   1.065   5.398   5.944 -0.3358  0.3065 -0.6381
   39DOPE  H16R 4976   1.104   5.471   6.018 -2.3703  0.3327  0.4702
   39DOPE  H16S 4977   1.153   5.338   5.912 -1.4813 -0.2887 -2.8246
   39DOPE  C217 4978   0.944   5.323   5.996  0.4002 -0.2321  0.1206
   39DOPE  H17R 4979   0.901   5.260   5.916  1.6638 -1.4654  0.3690
   39DOPE  H17S 4980   0.874   5.407   6.017  0.6098  0.5505 -2.1123
   39DOPE  C218 4981   0.979   5.250   6.124 -0.2106 -0.6101 -0.2232
   39DOPE  H18R 4982   1.071   5.192   6.104 -0.6508 -1.5676  0.4432
   39DOPE  H18S 4983   0.892   5.187   6.150 -0.5736  0.6237  1.7401
   39DOPE  H18T 4984   0.995   5.325   6.204  0.3548 -0.3118 -0.6100
   39DOPE   C33 4985   0.981   5.718   4.877 -0.3470  0.5504 -0.3720
   39DOPE   H3X 4986   0.902   5.669   4.817 -0.1289  1.2867 -1.2792
   39DOPE   H3Y 4987   0.997   5.826   4.856  1.2761 -0.0178 -2.4645
   39DOPE   C34 4988   0.938   5.715   5.029 -0.0550  0.4967  0.6688
   39DOPE   H4X 4989   0.943   5.620   5.086 -1.6236  1.1371  1.9674
   39DOPE   H4Y 4990   1.008   5.784   5.082  2.5307 -0.3952 -1.3718
   39DOPE   C35 4991   0.796   5.764   5.048  0.3720 -0.8390  0.9630
   39DOPE   H5X 4992   0.731   5.716   4.971  1.1267 -0.7111  0.2264
   39DOPE   H5Y 4993   0.806   5.874   5.037  2.1848 -0.7516  2.8680
   39DOPE   C36 4994   0.730   5.732   5.186  0.6155  0.3672 -0.4488
   39DOPE   H6X 4995   0.779   5.789   5.269  0.9894 -0.7967  0.1483
   39DOPE   H6Y 4996   0.735   5.624   5.210  2.2553  0.6235  0.5332
   39DOPE   C37 4997   0.578   5.768   5.165  0.2521 -0.1079  0.3364
   39DOPE   H7X 4998   0.581   5.853   5.094  0.8830 -2.0627 -2.0775
   39DOPE   H7Y 4999   0.526   5.691   5.105 -1.3524  0.3043  1.1277
   39DOPE   C38 5000   0.509   5.793   5.298 -0.0070  0.3042 -0.8661
   39DOPE   H8X 5001   0.414   5.841   5.265  0.7819  3.7445  1.3969
   39DOPE   H8Y 5002   0.560   5.873   5.356 -1.3038  0.8374 -0.4353
   39DOPE   C39 5003   0.483   5.664   5.375  0.1826  0.3000 -0.7871
   39DOPE   H9X 5004   0.440   5.578   5.322 -0.2621  0.7183 -1.1075
   39DOPE  C310 5005   0.512   5.639   5.504  0.1543  1.4030 -0.6705
   39DOPE  H10X 5006   0.506   5.535   5.539 -1.8196  2.2515  1.8056
   39DOPE  C311 5007   0.557   5.736   5.608  0.1743 -0.0690  0.1615
   39DOPE  H11X 5008   0.651   5.789   5.579 -0.2478  1.7750  1.8874
   39DOPE  H11Y 5009   0.485   5.820   5.613 -0.9360 -0.9628 -0.4197
   39DOPE  C312 5010   0.574   5.683   5.749  0.8436 -0.2617  0.0430
   39DOPE  H12X 5011   0.628   5.759   5.810 -0.4325  0.8494 -0.1573
   39DOPE  H12Y 5012   0.640   5.593   5.743  1.5522  0.2867 -0.6076
   39DOPE  C313 5013   0.439   5.655   5.828 -0.6514 -0.4262 -0.0922
   39DOPE  H13X 5014   0.398   5.751   5.867 -2.3515 -1.3259  0.4409
   39DOPE  H13Y 5015   0.358   5.616   5.764 -0.9808  1.3262 -0.7893
   39DOPE  C314 5016   0.443   5.546   5.935 -0.2094  0.5084 -0.0588
   39DOPE  H14X 5017   0.534   5.571   5.995 -0.2361  0.3462  0.0489
   39DOPE  H14Y 5018   0.456   5.446   5.888 -0.8228  0.2254  0.3571
   39DOPE  C315 5019   0.320   5.537   6.021 -0.3377 -0.0981 -0.2813
   39DOPE  H15X 5020   0.235   5.492   5.966  0.6884 -0.6443 -1.4711
   39DOPE  H15Y 5021   0.282   5.638   6.046  0.6635  0.2600 -0.1696
   39DOPE  C316 5022   0.330   5.454   6.147  0.2198  0.4862  0.7892
   39DOPE  H16X 5023   0.401   5.515   6.206  1.0558  0.6524 -0.3635
   39DOPE  H16Y 5024   0.376   5.353   6.136  3.2619  1.7949  0.5830
   39DOPE  C317 5025   0.199   5.442   6.224 -0.2384  0.0562  0.5660
   39DOPE  H17X 5026   0.181   5.537   6.279 -2.0824 -0.4600  0.9585
   39DOPE  H17Y 5027   0.118   5.427   6.149  0.7047 -1.0868 -0.2743
   39DOPE  C318 5028   0.198   5.324   6.316 -0.1485  0.1358  0.4788
   39DOPE  H18X 5029   0.105   5.317   6.375 -0.7387  0.9973 -0.3179
   39DOPE  H18Y 5030   0.210   5.229   6.259  0.2585  1.2784 -1.4494
   39DOPE  H18Z 5031   0.283   5.310   6.386 -0.0706 -0.8040  0.2066
   40DOPE     N 5032   2.013   5.334   4.622  0.1029  0.0748 -0.3217
   40DOPE   HN1 5033   2.087   5.287   4.566 -0.0699  1.5626 -1.8642
   40DOPE   HN2 5034   1.925   5.279   4.612  0.8143 -1.4650  1.2929
   40DOPE   HN3 5035   2.002   5.431   4.586 -0.0546  0.0800 -0.2619
   40DOPE   C12 5036   2.057   5.335   4.767  0.8298 -0.3197  0.0932
   40DOPE  H12A 5037   1.994   5.265   4.825  0.0616 -1.7738 -2.3336
   40DOPE  H12B 5038   2.044   5.438   4.806  1.0031 -0.5611  0.8143
   40DOPE   C11 5039   2.208   5.302   4.783  0.4506 -0.1050  0.6496
   40DOPE  H11A 5040   2.236   5.209   4.729 -3.1771 -1.8373  1.4310
   40DOPE  H11B 5041   2.215   5.270   4.890  0.7102 -2.0511  0.0857
   40DOPE     P 5042   2.441   5.403   4.761  0.2936 -0.7763  0.3345
   40DOPE   O13 5043   2.507   5.525   4.716 -0.0062 -0.2315 -0.2822
   40DOPE   O14 5044   2.479   5.278   4.692 -0.6604  0.3119 -0.1220
   40DOPE   O11 5045   2.463   5.383   4.912  0.6535  0.0128 -0.5625
   40DOPE   O12 5046   2.287   5.419   4.752 -0.0328  0.5775 -0.0698
   40DOPE    C1 5047   2.416   5.475   5.012  0.4361 -0.2210  0.5417
   40DOPE    HA 5048   2.338   5.425   5.073 -3.3380  2.0306 -1.9943
   40DOPE    HB 5049   2.386   5.573   4.970  3.2749  1.6649  2.5337
   40DOPE    C2 5050   2.535   5.521   5.107  0.8976 -0.3074  0.5887
   40DOPE    HS 5051   2.604   5.563   5.031  0.3802  1.2515  0.9488
   40DOPE   O21 5052   2.581   5.404   5.173  0.4525 -0.5720 -0.3870
   40DOPE   C21 5053   2.711   5.404   5.208  0.1116 -0.9404  0.6225
   40DOPE   O22 5054   2.786   5.497   5.180 -0.3574  0.0535 -0.2952
   40DOPE   C22 5055   2.754   5.267   5.257 -0.1805  0.0895  0.4783
   40DOPE   H2R 5056   2.731   5.195   5.175 -1.3554 -1.1320  1.8285
   40DOPE   H2S 5057   2.697   5.238   5.347 -0.4478 -0.6350  0.0856
   40DOPE    C3 5058   2.492   5.630   5.218  0.4026  0.6987  0.1191
   40DOPE    HX 5059   2.458   5.713   5.152 -1.2074 -1.3454 -1.7723
   40DOPE    HY 5060   2.586   5.664   5.267  0.4536  0.4600  0.1885
   40DOPE   O31 5061   2.386   5.574   5.295 -0.0877 -0.3229 -0.0752
   40DOPE   C31 5062   2.418   5.519   5.403  0.0139 -0.0200  0.1298
   40DOPE   O32 5063   2.530   5.516   5.448 -0.4597  0.1910  0.3279
   40DOPE   C32 5064   2.291   5.452   5.454  0.6869 -0.1882  0.6023
   40DOPE   H2X 5065   2.210   5.527   5.439 -0.0715 -1.1505 -0.2617
   40DOPE   H2Y 5066   2.273   5.369   5.382 -2.3222  1.3178 -0.5986
   40DOPE   C23 5067   2.911   5.257   5.276 -0.2613  0.2142  0.2214
   40DOPE   H3R 5068   2.970   5.304   5.195 -0.7139 -0.0606 -0.2745
   40DOPE   H3S 5069   2.935   5.148   5.280 -0.7660 -0.0120 -2.0929
   40DOPE   C24 5070   2.967   5.319   5.406  0.1650 -0.2770 -0.4065
   40DOPE   H4R 5071   2.968   5.428   5.386  1.6145 -0.4971 -1.6358
   40DOPE   H4S 5072   3.072   5.284   5.413  0.1929  0.0884  1.9264
   40DOPE   C25 5073   2.881   5.283   5.530 -0.1018 -0.0247 -0.9638
   40DOPE   H5R 5074   2.885   5.172   5.538  2.5988  0.0623 -0.0024
   40DOPE   H5S 5075   2.778   5.323   5.538 -0.5273 -1.3821  1.0788
   40DOPE   C26 5076   2.954   5.343   5.656 -0.0478 -0.1332 -0.3112
   40DOPE   H6R 5077   2.952   5.454   5.644 -4.1004  0.1958  1.6191
   40DOPE   H6S 5078   3.061   5.313   5.662  0.2787  1.2074  1.2036
   40DOPE   C27 5079   2.892   5.305   5.792  0.3588  0.5478 -0.5403
   40DOPE   H7R 5080   2.871   5.196   5.785  3.7731 -0.1588 -2.0438
   40DOPE   H7S 5081   2.795   5.359   5.793  0.1967  0.2661 -0.6182
   40DOPE   C28 5082   2.984   5.350   5.910  0.4107 -0.0722 -0.7331
   40DOPE   H8R 5083   2.998   5.461   5.907 -0.6692  0.1118  0.1708
   40DOPE   H8S 5084   3.086   5.306   5.903  0.3420 -0.8117  1.9643
   40DOPE   C29 5085   2.926   5.305   6.042  0.0650  0.5482  0.3865
   40DOPE   H9R 5086   2.905   5.198   6.056 -1.6634  0.5184 -1.8134
   40DOPE  C210 5087   2.892   5.383   6.143 -1.1385  0.0430 -0.2043
   40DOPE  H10R 5088   2.873   5.343   6.244  1.6254  0.9485  0.7926
   40DOPE  C211 5089   2.907   5.533   6.148 -0.1106  0.3083 -0.9620
   40DOPE  H11R 5090   2.805   5.561   6.182 -0.5052 -2.0921  0.0864
   40DOPE  H11S 5091   2.920   5.578   6.047  0.4768 -1.4378 -1.7209
   40DOPE  C212 5092   3.017   5.579   6.253  0.7600  0.4968  0.0916
   40DOPE  H12R 5093   3.006   5.529   6.351  0.7889 -0.4352 -0.3662
   40DOPE  H12S 5094   3.003   5.688   6.268  0.8838  0.3164  1.6320
   40DOPE  C213 5095   3.162   5.556   6.203  0.0745 -0.1147  0.1082
   40DOPE  H13R 5096   3.170   5.594   6.099  1.8731 -0.8934 -0.0640
   40DOPE  H13S 5097   3.181   5.447   6.193  0.9759  0.0202  0.2694
   40DOPE  C214 5098   3.266   5.606   6.304  0.2287  0.6166 -0.0193
   40DOPE  H14R 5099   3.228   5.574   6.403 -1.6145 -1.4219 -1.3047
   40DOPE  H14S 5100   3.283   5.716   6.302 -0.8111  0.7814 -1.6990
   40DOPE  C215 5101   3.402   5.535   6.269 -0.0484  0.9131 -0.4808
   40DOPE  H15R 5102   3.421   5.546   6.160  2.7758  0.6802 -0.0674
   40DOPE  H15S 5103   3.386   5.429   6.297  1.4540  1.3018  2.1869
   40DOPE  C216 5104   3.534   5.589   6.340  0.0383 -0.2134  0.6697
   40DOPE  H16R 5105   3.546   5.686   6.287  0.5293 -0.4385  0.3654
   40DOPE  H16S 5106   3.614   5.519   6.310  0.3917  0.6260 -0.4250
   40DOPE  C217 5107   3.525   5.609   6.492 -0.1518  0.7170  0.2779
   40DOPE  H17R 5108   3.511   5.506   6.532 -1.0807  0.4282 -0.7432
   40DOPE  H17S 5109   3.441   5.671   6.530 -1.6867 -1.3368  0.4253
   40DOPE  C218 5110   3.658   5.668   6.541  0.1021 -0.1325 -0.5926
   40DOPE  H18R 5111   3.665   5.667   6.652  0.0068 -1.2056 -0.5828
   40DOPE  H18S 5112   3.668   5.772   6.504 -0.4602 -0.0451 -0.4991
   40DOPE  H18T 5113   3.735   5.602   6.495 -0.9221  0.2732 -3.0339
   40DOPE   C33 5114   2.294   5.400   5.595  0.6257  0.0056 -0.4061
   40DOPE   H3X 5115   2.401   5.372   5.607  1.0731  0.3130 -3.0140
   40DOPE   H3Y 5116   2.224   5.313   5.603  1.2664 -0.4058  1.0248
   40DOPE   C34 5117   2.251   5.505   5.698 -0.0594  0.6852 -1.4238
   40DOPE   H4X 5118   2.326   5.588   5.703  0.8029 -0.0727  3.5527
   40DOPE   H4Y 5119   2.156   5.550   5.662 -2.2333 -2.5088 -0.0727
   40DOPE   C35 5120   2.247   5.444   5.838  0.1488 -0.7112  0.6579
   40DOPE   H5X 5121   2.186   5.352   5.827  0.2914 -0.6913 -0.4620
   40DOPE   H5Y 5122   2.201   5.510   5.914 -0.4103 -1.0501  0.6179
   40DOPE   C36 5123   2.384   5.399   5.888 -0.8222 -0.0685  0.2306
   40DOPE   H6X 5124   2.456   5.483   5.883 -2.2351  1.1368 -0.4540
   40DOPE   H6Y 5125   2.429   5.324   5.820  1.4206 -0.3279  1.8826
   40DOPE   C37 5126   2.375   5.367   6.041  0.2505  0.5398  1.1065
   40DOPE   H7X 5127   2.328   5.448   6.101  0.4566  1.6327 -0.1680
   40DOPE   H7Y 5128   2.305   5.282   6.059 -0.7331  0.7796 -1.2213
   40DOPE   C38 5129   2.509   5.331   6.106  0.0743  0.8514  0.3446
   40DOPE   H8X 5130   2.562   5.425   6.134  0.0749  0.3966  2.0002
   40DOPE   H8Y 5131   2.577   5.283   6.033 -1.1845  0.9447 -0.9525
   40DOPE   C39 5132   2.493   5.240   6.226 -0.4396 -0.6415 -0.0554
   40DOPE   H9X 5133   2.527   5.135   6.219 -0.0216 -0.5076 -0.0849
   40DOPE  C310 5134   2.466   5.274   6.353  0.0137  0.3235  0.6092
   40DOPE  H10X 5135   2.470   5.199   6.433 -2.4730  1.0989  1.5462
   40DOPE  C311 5136   2.420   5.408   6.396 -0.4111  0.1699 -0.2025
   40DOPE  H11X 5137   2.380   5.464   6.309  0.6582  2.9383  0.9832
   40DOPE  H11Y 5138   2.332   5.386   6.459 -0.0559 -0.3784  0.1152
   40DOPE  C312 5139   2.530   5.491   6.473  0.0325 -0.0389  0.2290
   40DOPE  H12X 5140   2.475   5.582   6.509  0.8567 -0.2033  1.9970
   40DOPE  H12Y 5141   2.612   5.520   6.405  1.7061 -0.2125  2.0899
   40DOPE  C313 5142   2.600   5.429   6.590  0.2551  0.1204  0.2098
   40DOPE  H13X 5143   2.523   5.413   6.668 -1.9160 -1.6341 -2.1282
   40DOPE  H13Y 5144   2.641   5.334   6.550 -0.7328 -0.4623  0.5622
   40DOPE  C314 5145   2.716   5.536   6.624 -0.4625 -0.3825  0.3632
   40DOPE  H14X 5146   2.678   5.637   6.650  0.6458  0.2157 -0.3053
   40DOPE  H14Y 5147   2.782   5.544   6.535 -1.3745 -1.1892 -0.4154
   40DOPE  C315 5148   2.797   5.495   6.742 -0.4100 -0.0054 -0.7836
   40DOPE  H15X 5149   2.892   5.552   6.748  0.2780 -0.6023 -3.9338
   40DOPE  H15Y 5150   2.824   5.387   6.734  1.0574  0.1454  1.4315
   40DOPE  C316 5151   2.721   5.522   6.880 -0.0314  0.3340 -0.2679
   40DOPE  H16X 5152   2.647   5.601   6.855 -1.6138 -0.7492  0.8075
   40DOPE  H16Y 5153   2.789   5.555   6.962  1.9025  0.6085 -1.8832
   40DOPE  C317 5154   2.641   5.398   6.925  0.3287 -0.2244 -0.3105
   40DOPE  H17X 5155   2.538   5.439   6.933  0.1830 -0.2382 -1.8451
   40DOPE  H17Y 5156   2.628   5.318   6.849  1.2136 -0.9584  0.2810
   40DOPE  C318 5157   2.688   5.333   7.060  0.2068  0.2258  0.6762
   40DOPE  H18X 5158   2.789   5.288   7.063  0.3545  0.3534 -1.1850
   40DOPE  H18Y 5159   2.691   5.407   7.142 -1.5835  1.3365 -0.1952
   40DOPE  H18Z 5160   2.618   5.252   7.090  3.2160 -2.1924  1.6063
   41DOPE     N 5161   2.046   6.694   4.212 -0.1557 -0.3960  0.5743
   41DOPE   HN1 5162   2.001   6.610   4.170  2.0744 -1.3044 -0.1828
   41DOPE   HN2 5163   2.150   6.683   4.206  0.0859  1.8582  0.0177
   41DOPE   HN3 5164   2.018   6.703   4.312 -1.6528  0.2821  0.1063
   41DOPE   C12 5165   2.004   6.811   4.133 -0.1527  0.3412  0.5868
   41DOPE  H12A 5166   1.893   6.816   4.130 -0.2063  1.4496  2.6059
   41DOPE  H12B 5167   2.036   6.783   4.030  1.7693  0.2544  1.1769
   41DOPE   C11 5168   2.063   6.944   4.180  0.1448 -0.7405 -0.0108
   41DOPE  H11A 5169   2.007   6.973   4.271 -2.1085  1.4835 -1.9774
   41DOPE  H11B 5170   2.040   7.014   4.098 -3.1168  0.8479  2.0647
   41DOPE     P 5171   2.291   7.054   4.243  0.1239 -0.3121 -0.1270
   41DOPE   O13 5172   2.273   7.149   4.133  0.6872 -0.2741 -1.1203
   41DOPE   O14 5173   2.433   7.021   4.270  0.5868  0.1142 -0.3689
   41DOPE   O11 5174   2.220   7.088   4.373  0.5114 -0.1654  0.4148
   41DOPE   O12 5175   2.202   6.922   4.214  0.1517 -0.0574  0.2889
   41DOPE    C1 5176   2.145   7.213   4.403  0.3797 -0.2171  0.6029
   41DOPE    HA 5177   2.043   7.187   4.367 -0.1685  0.6898  1.4386
   41DOPE    HB 5178   2.174   7.303   4.345 -1.4909 -1.0236 -1.7288
   41DOPE    C2 5179   2.142   7.244   4.549  0.0415 -0.2490 -0.4154
   41DOPE    HS 5180   2.040   7.284   4.568  0.9629  3.3486 -2.0762
   41DOPE   O21 5181   2.250   7.332   4.581  0.1098 -0.2649  0.4086
   41DOPE   C21 5182   2.223   7.461   4.582 -0.1064 -0.2510  0.2367
   41DOPE   O22 5183   2.119   7.516   4.551 -0.1562 -0.0553  0.6615
   41DOPE   C22 5184   2.354   7.533   4.645  0.2371  0.3261  0.4849
   41DOPE   H2R 5185   2.388   7.586   4.553 -2.3110  1.7190  0.2324
   41DOPE   H2S 5186   2.430   7.458   4.674 -0.8247 -1.3841 -0.9304
   41DOPE    C3 5187   2.153   7.117   4.638  0.5262  0.2041  0.3627
   41DOPE    HX 5188   2.243   7.059   4.608  0.8327  0.2182  1.2347
   41DOPE    HY 5189   2.069   7.047   4.621  0.8808  0.4063 -2.8851
   41DOPE   O31 5190   2.157   7.157   4.776  0.1849  1.0870  0.0981
   41DOPE   C31 5191   2.210   7.063   4.849  0.1381  0.3182 -0.4746
   41DOPE   O32 5192   2.246   6.949   4.813 -0.3393 -0.4898 -0.0120
   41DOPE   C32 5193   2.221   7.111   4.992  0.1646 -0.1443  0.2071
   41DOPE   H2X 5194   2.302   7.187   4.994 -0.1523  0.3124 -2.1375
   41DOPE   H2Y 5195   2.132   7.166   5.029  1.6282  2.5516 -0.0381
   41DOPE   C23 5196   2.305   7.637   4.749 -0.6083  0.0112 -0.0630
   41DOPE   H3R 5197   2.242   7.709   4.693 -1.4671 -1.4657 -1.0496
   41DOPE   H3S 5198   2.396   7.693   4.779 -0.4070 -0.3190 -0.0528
   41DOPE   C24 5199   2.238   7.579   4.875 -0.2199  0.7803 -0.3153
   41DOPE   H4R 5200   2.146   7.521   4.852 -0.0571  0.1877  0.4895
   41DOPE   H4S 5201   2.198   7.668   4.926 -0.5798  0.8362 -0.6876
   41DOPE   C25 5202   2.338   7.500   4.963  0.1973 -0.9479 -0.0773
   41DOPE   H5R 5203   2.428   7.562   4.984 -0.0005  0.2155 -2.3265
   41DOPE   H5S 5204   2.362   7.413   4.898 -3.8239 -0.2859 -2.7960
   41DOPE   C26 5205   2.293   7.465   5.111  0.5151  0.0653 -0.2031
   41DOPE   H6R 5206   2.360   7.388   5.155  1.4490  0.5059 -0.8312
   41DOPE   H6S 5207   2.194   7.414   5.107  0.4946 -0.1196  1.7447
   41DOPE   C27 5208   2.286   7.579   5.209 -0.0949  0.3129  0.1142
   41DOPE   H7R 5209   2.201   7.646   5.182  0.1742  0.0968 -1.3269
   41DOPE   H7S 5210   2.377   7.640   5.192  0.3098 -0.4249 -0.4057
   41DOPE   C28 5211   2.294   7.533   5.362  0.1998 -0.2402  0.4962
   41DOPE   H8R 5212   2.339   7.617   5.419  0.6419  1.3600 -2.0527
   41DOPE   H8S 5213   2.363   7.446   5.359  0.8823  0.3014 -1.8865
   41DOPE   C29 5214   2.156   7.500   5.417  0.6603  0.1033 -0.1845
   41DOPE   H9R 5215   2.079   7.499   5.339  0.7527 -1.8569 -0.2883
   41DOPE  C210 5216   2.125   7.476   5.545 -0.0003  0.1411  0.4976
   41DOPE  H10R 5217   2.018   7.478   5.571 -0.5746  1.3784 -1.7649
   41DOPE  C211 5218   2.237   7.482   5.651 -0.0518  0.0757 -0.0393
   41DOPE  H11R 5219   2.208   7.540   5.742 -0.1002 -2.4466  1.6651
   41DOPE  H11S 5220   2.335   7.523   5.619  0.1367  0.9369  1.5209
   41DOPE  C212 5221   2.284   7.336   5.695  0.6811  0.0641  0.4463
   41DOPE  H12R 5222   2.331   7.283   5.610  0.0097  0.0390  0.0863
   41DOPE  H12S 5223   2.194   7.278   5.724  0.0722  0.4949 -0.5330
   41DOPE  C213 5224   2.387   7.339   5.800 -0.0161 -0.0989 -0.6285
   41DOPE  H13R 5225   2.473   7.407   5.780  0.9885 -0.5738  1.6770
   41DOPE  H13S 5226   2.439   7.241   5.797  0.0384 -0.0492 -1.3800
   41DOPE  C214 5227   2.333   7.340   5.944 -0.0190  0.0563  0.1144
   41DOPE  H14R 5228   2.263   7.254   5.954  1.5354 -1.0360  2.7872
   41DOPE  H14S 5229   2.278   7.435   5.966 -3.6546 -1.8371  0.0310
   41DOPE  C215 5230   2.442   7.326   6.049  0.7086 -0.3043  0.5243
   41DOPE  H15R 5231   2.504   7.418   6.047  1.2898 -0.6388  2.0275
   41DOPE  H15S 5232   2.509   7.243   6.019  1.1190 -0.3623  1.5853
   41DOPE  C216 5233   2.380   7.317   6.189  0.7295  0.4367  0.4541
   41DOPE  H16R 5234   2.325   7.221   6.200 -0.4366  1.0549  0.2229
   41DOPE  H16S 5235   2.312   7.405   6.198 -2.0703 -1.7074  2.3638
   41DOPE  C217 5236   2.485   7.335   6.305  0.0104 -0.2132 -1.0066
   41DOPE  H17R 5237   2.519   7.441   6.299  1.4325 -0.3618  2.2898
   41DOPE  H17S 5238   2.570   7.266   6.288 -0.9453 -2.0020  0.9698
   41DOPE  C218 5239   2.425   7.312   6.443 -0.1193  0.5393 -0.5311
   41DOPE  H18R 5240   2.326   7.363   6.440 -0.8311 -0.7106  0.6847
   41DOPE  H18S 5241   2.493   7.358   6.518  0.3473 -0.2610 -0.4585
   41DOPE  H18T 5242   2.410   7.206   6.472  0.7303  0.2679 -1.0683
   41DOPE   C33 5243   2.275   6.996   5.070  1.0312 -0.3671 -0.1197
   41DOPE   H3X 5244   2.381   6.976   5.047  0.9076 -0.5375 -0.5529
   41DOPE   H3Y 5245   2.224   6.899   5.051  0.9307 -0.7442  1.8621
   41DOPE   C34 5246   2.265   7.013   5.222 -0.2519 -0.1330  0.1365
   41DOPE   H4X 5247   2.320   6.928   5.269  0.0891  0.2823  0.5000
   41DOPE   H4Y 5248   2.327   7.103   5.238 -2.3347  1.5190 -0.6750
   41DOPE   C35 5249   2.133   7.022   5.289 -0.4285  0.4116  0.4301
   41DOPE   H5X 5250   2.080   6.925   5.286  0.6909 -0.1788 -2.2353
   41DOPE   H5Y 5251   2.072   7.098   5.235 -0.0852  0.5878  0.2894
   41DOPE   C36 5252   2.130   7.061   5.438  0.5075 -0.4437 -0.2603
   41DOPE   H6X 5253   2.156   7.167   5.458 -1.0180 -0.1460  0.2809
   41DOPE   H6Y 5254   2.209   7.002   5.489  1.6855 -0.9233 -2.5156
   41DOPE   C37 5255   1.998   7.037   5.507 -0.5146 -0.7709  0.6733
   41DOPE   H7X 5256   1.925   7.103   5.456 -0.3530 -1.3469 -0.3307
   41DOPE   H7Y 5257   1.971   6.930   5.494 -0.1491 -0.4910 -3.6151
   41DOPE   C38 5258   1.996   7.092   5.656 -1.0055  0.5399  0.3043
   41DOPE   H8X 5259   2.006   7.202   5.648 -0.0187  0.3214 -2.2219
   41DOPE   H8Y 5260   2.089   7.049   5.699 -0.2716  1.1844 -0.6000
   41DOPE   C39 5261   1.878   7.041   5.735  0.5589 -0.3143  0.0959
   41DOPE   H9X 5262   1.793   7.008   5.673 -1.1113  1.7779  1.1627
   41DOPE  C310 5263   1.875   7.019   5.868  0.4931 -0.6903  0.3318
   41DOPE  H10X 5264   1.792   6.962   5.913 -0.9626 -0.2848 -1.7019
   41DOPE  C311 5265   1.995   7.045   5.958  0.7811  0.2176  0.6839
   41DOPE  H11X 5266   2.085   7.018   5.899 -0.6394  1.0721 -2.0702
   41DOPE  H11Y 5267   2.008   7.155   5.970  1.2372  0.2124  0.2582
   41DOPE  C312 5268   1.996   6.964   6.094  0.0683 -0.1376  0.9655
   41DOPE  H12X 5269   2.075   6.886   6.097  0.7629  0.5744  1.6461
   41DOPE  H12Y 5270   1.902   6.907   6.109 -0.1114 -0.1060 -0.0045
   41DOPE  C313 5271   1.988   7.051   6.223 -0.3413 -0.7827  0.2383
   41DOPE  H13X 5272   2.089   7.097   6.226  0.8648 -2.8122 -3.4889
   41DOPE  H13Y 5273   1.903   7.120   6.203 -2.2314 -3.0562 -0.0185
   41DOPE  C314 5274   1.967   6.971   6.357 -0.8189  0.5273 -0.5224
   41DOPE  H14X 5275   2.029   6.879   6.353  2.6805  2.6409  0.4964
   41DOPE  H14Y 5276   1.860   6.944   6.368 -0.8986 -0.0352 -2.3165
   41DOPE  C315 5277   2.006   7.052   6.479  0.3435  0.4600  0.2898
   41DOPE  H15X 5278   1.948   7.147   6.486  1.0523  0.8222  1.6985
   41DOPE  H15Y 5279   2.114   7.078   6.473  0.7822 -0.8876  1.5264
   41DOPE  C316 5280   1.986   6.971   6.609  0.6103  0.4479  0.4873
   41DOPE  H16X 5281   2.045   6.878   6.599  0.3030  0.3406 -0.4900
   41DOPE  H16Y 5282   1.878   6.945   6.623  0.2884  2.1099  1.3912
   41DOPE  C317 5283   2.024   7.054   6.730  0.1191  0.0240 -0.3793
   41DOPE  H17X 5284   2.125   7.097   6.712 -0.8373  1.6255 -2.3917
   41DOPE  H17Y 5285   1.956   7.141   6.742 -0.0252 -0.3109  1.4504
   41DOPE  C318 5286   2.022   6.965   6.855  0.0346  0.1230  0.0715
   41DOPE  H18X 5287   1.930   6.903   6.860 -0.9289  1.5721  1.9209
   41DOPE  H18Y 5288   2.103   6.889   6.855  1.8127  1.9250 -0.5695
   41DOPE  H18Z 5289   2.026   7.029   6.947 -1.4174 -0.0970  0.3173
   42DOPE     N 5290   0.886   5.191   4.083 -0.3970  0.4385  0.1250
   42DOPE   HN1 5291   0.933   5.130   4.012 -1.2200 -0.2668  0.1635
   42DOPE   HN2 5292   0.791   5.152   4.102  0.5040 -1.6450  0.6638
   42DOPE   HN3 5293   0.871   5.287   4.046  0.3573  1.9545  3.4667
   42DOPE   C12 5294   0.966   5.183   4.204  0.0161  0.6622 -0.0983
   42DOPE  H12A 5295   1.074   5.200   4.182  1.0027 -1.0478  2.7813
   42DOPE  H12B 5296   0.951   5.080   4.242 -2.8681  0.5956 -1.2111
   42DOPE   C11 5297   0.929   5.286   4.313  0.3219  0.2960 -0.0664
   42DOPE  H11A 5298   0.970   5.247   4.409 -1.5323 -1.3422  0.1112
   42DOPE  H11B 5299   0.819   5.292   4.323  0.1522 -0.8846 -1.0854
   42DOPE     P 5300   0.932   5.525   4.187  0.2980 -0.3133  0.3184
   42DOPE   O13 5301   0.886   5.463   4.062 -0.6242  0.5722 -0.1488
   42DOPE   O14 5302   1.030   5.638   4.187 -0.2366 -0.1864  0.8924
   42DOPE   O11 5303   0.814   5.579   4.268 -0.4340 -0.3208 -0.2610
   42DOPE   O12 5304   0.990   5.416   4.276  0.1956  0.7379 -0.1511
   42DOPE    C1 5305   0.840   5.621   4.407  0.3316  0.3069  0.1779
   42DOPE    HA 5306   0.823   5.730   4.407 -2.2111  0.0257 -2.4152
   42DOPE    HB 5307   0.938   5.586   4.446  0.3496 -1.3795 -1.2384
   42DOPE    C2 5308   0.729   5.575   4.508 -0.3648  0.3386 -0.5146
   42DOPE    HS 5309   0.714   5.654   4.584  1.0245  1.5759 -1.4634
   42DOPE   O21 5310   0.773   5.453   4.573 -0.0838  0.0079  0.0221
   42DOPE   C21 5311   0.744   5.427   4.698  0.2610  0.1447  0.0567
   42DOPE   O22 5312   0.669   5.498   4.770 -0.1427  0.3660 -0.0038
   42DOPE   C22 5313   0.807   5.299   4.738 -0.2796  0.0136 -0.5899
   42DOPE   H2R 5314   0.870   5.266   4.653 -1.7042 -1.7728 -1.0306
   42DOPE   H2S 5315   0.729   5.219   4.738 -1.7489  1.3225 -2.9502
   42DOPE    C3 5316   0.594   5.566   4.434 -0.0972  0.0644 -0.5633
   42DOPE    HX 5317   0.601   5.479   4.365  0.2688  0.3788 -0.9322
   42DOPE    HY 5318   0.573   5.657   4.373 -0.0256 -1.5602 -3.1563
   42DOPE   O31 5319   0.484   5.545   4.531 -0.1859  0.0513  0.2850
   42DOPE   C31 5320   0.449   5.642   4.599  0.6535  0.4530 -0.2314
   42DOPE   O32 5321   0.482   5.755   4.586  0.0451  0.2934  0.4986
   42DOPE   C32 5322   0.345   5.582   4.700  0.4723  0.3831 -0.2227
   42DOPE   H2X 5323   0.260   5.536   4.644  2.5211 -1.2615 -2.1939
   42DOPE   H2Y 5324   0.394   5.499   4.757 -0.4489 -1.4635 -1.9735
   42DOPE   C23 5325   0.879   5.286   4.877  0.1485  0.0795 -1.1918
   42DOPE   H3R 5326   0.932   5.384   4.884  2.4093 -1.1959  1.2598
   42DOPE   H3S 5327   0.956   5.206   4.869  1.2785  1.0594 -0.4791
   42DOPE   C24 5328   0.777   5.263   4.989 -0.3039 -0.2778 -0.0053
   42DOPE   H4R 5329   0.747   5.156   4.982 -0.8648 -0.1473  0.3047
   42DOPE   H4S 5330   0.694   5.329   4.956  0.6884  0.3866 -1.2139
   42DOPE   C25 5331   0.837   5.302   5.127 -0.1601  0.6040 -0.1782
   42DOPE   H5R 5332   0.874   5.406   5.116 -1.6381  1.0146 -1.7036
   42DOPE   H5S 5333   0.925   5.236   5.144 -0.9320 -0.4224 -0.0714
   42DOPE   C26 5334   0.722   5.287   5.231  0.5397 -0.6267 -1.1184
   42DOPE   H6R 5335   0.687   5.182   5.235 -2.1574  0.2041  1.8168
   42DOPE   H6S 5336   0.641   5.357   5.201  0.7845  0.1271 -0.1156
   42DOPE   C27 5337   0.765   5.322   5.376 -0.1769 -0.0827 -0.1943
   42DOPE   H7R 5338   0.757   5.432   5.376  0.3784 -0.0365  0.1316
   42DOPE   H7S 5339   0.870   5.286   5.387 -0.1373  0.0639 -0.0947
   42DOPE   C28 5340   0.665   5.255   5.475  0.2391 -0.0056  0.4059
   42DOPE   H8R 5341   0.672   5.144   5.463 -4.0403 -0.2448 -1.6820
   42DOPE   H8S 5342   0.563   5.277   5.439  0.1516  1.1713  1.3356
   42DOPE   C29 5343   0.689   5.301   5.620  0.2662  0.6806  0.2899
   42DOPE   H9R 5344   0.764   5.381   5.629  1.3741  0.2571 -3.4305
   42DOPE  C210 5345   0.635   5.252   5.728 -0.4475 -0.3642  0.0497
   42DOPE  H10R 5346   0.673   5.275   5.828 -0.9937 -0.9791  0.4049
   42DOPE  C211 5347   0.541   5.135   5.733  0.3298  0.0064 -0.1552
   42DOPE  H11R 5348   0.573   5.055   5.662 -1.0497 -0.1641 -0.6184
   42DOPE  H11S 5349   0.439   5.175   5.714  0.7941  0.9314 -0.8210
   42DOPE  C212 5350   0.554   5.067   5.873  0.3523  0.0843  0.0154
   42DOPE  H12R 5351   0.663   5.056   5.891  1.5827  4.2637 -3.0810
   42DOPE  H12S 5352   0.508   4.967   5.857  0.6643 -0.0880  0.1735
   42DOPE  C213 5353   0.478   5.144   5.979  0.2666  0.9715  0.2672
   42DOPE  H13R 5354   0.370   5.151   5.953  0.2067 -0.0202  0.2189
   42DOPE  H13S 5355   0.502   5.253   5.984 -0.7388  1.1623  2.5890
   42DOPE  C214 5356   0.480   5.081   6.118 -0.9299 -0.6325 -0.1348
   42DOPE  H14R 5357   0.487   4.971   6.110 -0.5968 -0.4868 -2.3204
   42DOPE  H14S 5358   0.380   5.101   6.163 -1.1314  0.7938 -1.1554
   42DOPE  C215 5359   0.599   5.140   6.196 -0.2498  0.9449  0.0473
   42DOPE  H15R 5360   0.607   5.250   6.179  0.6450  0.7077 -1.1869
   42DOPE  H15S 5361   0.692   5.096   6.154 -1.1122  0.3302 -1.2679
   42DOPE  C216 5362   0.591   5.117   6.347 -0.2233 -0.5025 -0.9445
   42DOPE  H16R 5363   0.623   5.013   6.369 -1.1585 -0.5434  0.2898
   42DOPE  H16S 5364   0.487   5.134   6.381  0.3138 -0.3711  0.7048
   42DOPE  C217 5365   0.702   5.202   6.417 -0.5389 -0.6575 -0.0014
   42DOPE  H17R 5366   0.685   5.308   6.390  1.5225 -0.4408 -0.6124
   42DOPE  H17S 5367   0.804   5.175   6.383 -0.6845 -1.4109  0.1405
   42DOPE  C218 5368   0.708   5.199   6.569  0.1515  0.4134  0.2716
   42DOPE  H18R 5369   0.606   5.211   6.610  0.9342  2.8730  1.7244
   42DOPE  H18S 5370   0.759   5.287   6.615 -1.0198  1.8270 -1.0216
   42DOPE  H18T 5371   0.767   5.109   6.597  1.3942  0.9900 -0.3866
   42DOPE   C33 5372   0.298   5.688   4.795 -0.0423 -0.2891  0.3393
   42DOPE   H3X 5373   0.232   5.750   4.731  1.5471 -0.7302 -1.8197
   42DOPE   H3Y 5374   0.378   5.749   4.842  0.6189 -1.2615  0.5046
   42DOPE   C34 5375   0.214   5.645   4.919 -0.1692 -0.2966  0.1633
   42DOPE   H4X 5376   0.128   5.581   4.891 -1.0550  0.6082  0.7573
   42DOPE   H4Y 5377   0.288   5.590   4.981 -1.6729 -1.4105  1.0295
   42DOPE   C35 5378   0.169   5.774   4.999  0.1020  0.7378 -1.1282
   42DOPE   H5X 5379   0.109   5.843   4.935  0.1847  0.2610 -1.7346
   42DOPE   H5Y 5380   0.263   5.827   5.025  0.8231 -0.6772 -0.7820
   42DOPE   C36 5381   0.093   5.727   5.128  0.2795 -0.2334  0.2115
   42DOPE   H6X 5382   0.146   5.645   5.180  0.9790 -0.1607 -0.3642
   42DOPE   H6Y 5383  -0.007   5.684   5.106 -0.3431  0.8293  0.8831
   42DOPE   C37 5384   0.073   5.853   5.219 -0.1287  0.2015 -0.1530
   42DOPE   H7X 5385   0.162   5.918   5.231  0.0865 -0.1982  0.4325
   42DOPE   H7Y 5386  -0.010   5.919   5.185 -2.5408 -1.5151  1.9203
   42DOPE   C38 5387   0.031   5.825   5.367 -0.4168  0.1222  0.4984
   42DOPE   H8X 5388  -0.059   5.759   5.367  0.3480 -0.9582 -0.4497
   42DOPE   H8Y 5389  -0.007   5.927   5.390  0.2093  0.9452 -1.8515
   42DOPE   C39 5390   0.131   5.773   5.467 -0.2615 -0.1261 -0.1490
   42DOPE   H9X 5391   0.197   5.694   5.428 -2.2573 -1.1048 -1.6725
   42DOPE  C310 5392   0.115   5.806   5.600  0.5367 -0.0247 -0.4794
   42DOPE  H10X 5393   0.202   5.787   5.665  0.8177  1.0923 -0.5088
   42DOPE  C311 5394   0.013   5.898   5.659  0.2107 -0.8072 -0.0996
   42DOPE  H11X 5395   0.062   5.979   5.717 -0.5606  0.5998 -1.3439
   42DOPE  H11Y 5396  -0.052   5.950   5.585  0.2744 -0.7726 -0.1305
   42DOPE  C312 5397  -0.066   5.818   5.764 -0.3170  0.0506  0.1022
   42DOPE  H12X 5398   0.010   5.780   5.837  1.5776 -1.4962 -2.4728
   42DOPE  H12Y 5399  -0.126   5.739   5.714 -1.1395  0.2399  0.7766
   42DOPE  C313 5400  -0.174   5.901   5.833 -0.6562  0.0335 -0.0536
   42DOPE  H13X 5401  -0.150   6.009   5.826  0.1158 -0.2412 -4.0704
   42DOPE  H13Y 5402  -0.269   5.881   5.780 -0.8356  0.8695 -0.0605
   42DOPE  C314 5403  -0.182   5.874   5.984  0.5860 -0.4838  0.2982
   42DOPE  H14X 5404  -0.169   5.764   5.992  0.1686 -0.6283 -0.7859
   42DOPE  H14Y 5405  -0.279   5.908   6.024  0.6824  0.0053  0.1318
   42DOPE  C315 5406  -0.066   5.950   6.058  0.2322 -0.3302 -0.2381
   42DOPE  H15X 5407  -0.094   6.053   6.089  0.3863 -0.6951  1.1771
   42DOPE  H15Y 5408   0.018   5.958   5.986 -0.2020 -1.3129 -0.8673
   42DOPE  C316 5409  -0.030   5.869   6.183 -0.6057 -0.0674 -0.4269
   42DOPE  H16X 5410  -0.015   5.759   6.174  1.8260  0.1267  0.4407
   42DOPE  H16Y 5411  -0.107   5.880   6.262 -1.6264 -1.1332 -1.2393
   42DOPE  C317 5412   0.098   5.920   6.247  0.3272 -0.5898 -0.0189
   42DOPE  H17X 5413   0.186   5.936   6.181  1.0365 -2.6825  0.3264
   42DOPE  H17Y 5414   0.082   6.024   6.282  2.4490 -0.0937 -0.3667
   42DOPE  C318 5415   0.153   5.844   6.362  0.6540 -0.2874  0.0323
   42DOPE  H18X 5416   0.256   5.881   6.383  0.2390  0.5568  0.6598
   42DOPE  H18Y 5417   0.094   5.842   6.456  0.2064  1.8186 -0.1417
   42DOPE  H18Z 5418   0.156   5.737   6.335  2.8981 -0.5621  1.1174
   43DOPE     N 5419   1.655   4.229   3.859 -0.6459 -0.7242  0.3256
   43DOPE   HN1 5420   1.668   4.209   3.758  2.0101  2.1041 -0.0222
   43DOPE   HN2 5421   1.616   4.326   3.854 -2.9921 -1.5465  1.2630
   43DOPE   HN3 5422   1.750   4.230   3.900 -0.8119 -2.8098  0.8810
   43DOPE   C12 5423   1.575   4.133   3.942  0.5198 -0.4005 -0.2540
   43DOPE  H12A 5424   1.567   4.178   4.044 -0.0038  3.0355 -1.6957
   43DOPE  H12B 5425   1.633   4.039   3.951 -0.2784 -0.7731  1.3865
   43DOPE   C11 5426   1.441   4.111   3.888  0.5264 -0.2911 -0.1703
   43DOPE  H11A 5427   1.382   4.045   3.955 -0.7406  1.1427  0.1724
   43DOPE  H11B 5428   1.449   4.047   3.798  0.2617 -2.6980  1.4090
   43DOPE     P 5429   1.233   4.206   3.785  0.3292 -0.5502  0.3318
   43DOPE   O13 5430   1.276   4.145   3.661  0.2325 -0.1765  0.1535
   43DOPE   O14 5431   1.147   4.323   3.782 -0.1843  0.0446  0.1180
   43DOPE   O11 5432   1.156   4.091   3.871 -0.4744 -0.3254  0.1510
   43DOPE   O12 5433   1.362   4.229   3.865  0.4518 -0.5478  0.5258
   43DOPE    C1 5434   1.094   4.133   3.994  0.0069  0.2480 -0.3498
   43DOPE    HA 5435   0.991   4.090   3.995 -1.0867  2.6890 -0.7488
   43DOPE    HB 5436   1.079   4.243   4.000 -0.2978  0.3449 -2.3207
   43DOPE    C2 5437   1.173   4.089   4.123  0.6692  0.2612  0.3270
   43DOPE    HS 5438   1.271   4.138   4.110  0.2667  0.7413 -1.1738
   43DOPE   O21 5439   1.175   3.941   4.126 -0.1065 -0.0877 -0.2667
   43DOPE   C21 5440   1.294   3.886   4.178  0.5066 -0.4167 -0.1372
   43DOPE   O22 5441   1.384   3.953   4.223 -0.1062 -1.0848  0.9382
   43DOPE   C22 5442   1.281   3.738   4.189  0.7620 -0.4857  0.4780
   43DOPE   H2R 5443   1.320   3.689   4.097  0.1377  0.7628 -0.4708
   43DOPE   H2S 5444   1.173   3.723   4.211  0.5231 -1.5978 -1.2589
   43DOPE    C3 5445   1.094   4.148   4.242  0.4740  0.1955 -0.1744
   43DOPE    HX 5446   0.989   4.109   4.238  0.7290 -0.4807 -0.5032
   43DOPE    HY 5447   1.075   4.256   4.226  0.4064  0.2127  0.0169
   43DOPE   O31 5448   1.146   4.112   4.376  0.0414 -0.0900 -0.4012
   43DOPE   C31 5449   1.237   4.194   4.413 -0.1286 -0.6823  1.0705
   43DOPE   O32 5450   1.268   4.303   4.362  0.0450  0.0657 -0.4422
   43DOPE   C32 5451   1.299   4.144   4.538  0.6759 -0.6090 -0.6220
   43DOPE   H2X 5452   1.325   4.037   4.528 -1.6536 -1.7819  3.5770
   43DOPE   H2Y 5453   1.388   4.207   4.561 -1.0466  1.2527  1.2643
   43DOPE   C23 5454   1.359   3.671   4.302 -0.1837 -0.2864 -0.8226
   43DOPE   H3R 5455   1.470   3.676   4.294 -0.2122  0.8525 -0.7315
   43DOPE   H3S 5456   1.326   3.565   4.291 -0.6420 -0.1038 -1.2777
   43DOPE   C24 5457   1.299   3.714   4.438 -0.3917 -0.6683  0.0580
   43DOPE   H4R 5458   1.192   3.682   4.441 -0.1970 -1.3762 -0.4844
   43DOPE   H4S 5459   1.304   3.825   4.446 -1.2855 -0.3678 -2.6378
   43DOPE   C25 5460   1.367   3.645   4.560  0.1542  0.0587 -0.7992
   43DOPE   H5R 5461   1.474   3.659   4.535 -0.0916  0.4431 -1.6649
   43DOPE   H5S 5462   1.346   3.536   4.559 -2.0249  0.4404 -1.2242
   43DOPE   C26 5463   1.325   3.717   4.694  0.2599  0.3253 -0.2299
   43DOPE   H6R 5464   1.217   3.699   4.714  0.4368  1.2184  1.6841
   43DOPE   H6S 5465   1.344   3.826   4.701  0.6642  0.1409  3.3293
   43DOPE   C27 5466   1.392   3.664   4.821 -0.1438  0.6144  0.8386
   43DOPE   H7R 5467   1.491   3.712   4.832  1.7051 -2.4306 -0.9036
   43DOPE   H7S 5468   1.412   3.556   4.802  1.4633  1.0701 -0.2274
   43DOPE   C28 5469   1.311   3.701   4.951  0.5787 -0.3136  0.5431
   43DOPE   H8R 5470   1.203   3.678   4.938  0.5356 -0.4897  1.1726
   43DOPE   H8S 5471   1.318   3.811   4.963  1.0208 -0.4021  1.1347
   43DOPE   C29 5472   1.359   3.616   5.066 -0.0921 -0.4560  0.1873
   43DOPE   H9R 5473   1.337   3.509   5.055  0.7121 -0.5068 -1.0280
   43DOPE  C210 5474   1.416   3.673   5.175 -0.7107  0.2548  0.1998
   43DOPE  H10R 5475   1.453   3.607   5.255  1.7434 -1.0643 -1.8624
   43DOPE  C211 5476   1.457   3.814   5.194 -0.6875 -0.3078 -0.0410
   43DOPE  H11R 5477   1.425   3.872   5.105 -0.8646  0.4191  0.4900
   43DOPE  H11S 5478   1.566   3.817   5.215 -1.0393  0.0702  1.9185
   43DOPE  C212 5479   1.403   3.880   5.324 -0.1587  0.3124 -0.4203
   43DOPE  H12R 5480   1.295   3.858   5.323  0.2224 -1.7862 -0.6606
   43DOPE  H12S 5481   1.408   3.991   5.318 -1.9040  0.3229 -3.3115
   43DOPE  C213 5482   1.462   3.827   5.460 -0.5107  0.7348 -0.3518
   43DOPE  H13R 5483   1.559   3.878   5.478 -0.9863  1.3973  0.4150
   43DOPE  H13S 5484   1.460   3.717   5.478 -0.7114  1.1014  2.4311
   43DOPE  C214 5485   1.373   3.886   5.573 -0.2493 -0.1974  0.0950
   43DOPE  H14R 5486   1.273   3.841   5.557  0.8187 -2.5665 -0.4148
   43DOPE  H14S 5487   1.371   3.996   5.563 -1.4615 -0.2537 -0.4770
   43DOPE  C215 5488   1.419   3.844   5.709 -0.3860  0.4595 -0.1130
   43DOPE  H15R 5489   1.520   3.888   5.726 -1.0956  1.7287  1.0258
   43DOPE  H15S 5490   1.427   3.734   5.698  0.0411  0.6254 -1.6670
   43DOPE  C216 5491   1.315   3.894   5.806  0.0142  0.0094 -0.1725
   43DOPE  H16R 5492   1.220   3.837   5.808  1.1798 -2.0392 -0.4072
   43DOPE  H16S 5493   1.288   3.999   5.782 -0.8632 -0.4175 -1.1101
   43DOPE  C217 5494   1.374   3.893   5.946 -0.3959 -0.0164  0.2573
   43DOPE  H17R 5495   1.468   3.951   5.945  0.8952 -2.0054 -1.8580
   43DOPE  H17S 5496   1.415   3.796   5.981 -0.2237 -0.3567 -0.8404
   43DOPE  C218 5497   1.283   3.965   6.048  1.1073  0.7736 -0.1099
   43DOPE  H18R 5498   1.280   4.073   6.023  1.4136  1.4568  2.6045
   43DOPE  H18S 5499   1.329   3.958   6.148  1.5690 -2.7109 -0.4284
   43DOPE  H18T 5500   1.182   3.921   6.031  1.3218 -0.1491  0.9074
   43DOPE   C33 5501   1.205   4.150   4.660  0.4031 -0.1214 -0.4606
   43DOPE   H3X 5502   1.241   4.084   4.741  1.6114  0.4748 -0.4937
   43DOPE   H3Y 5503   1.099   4.125   4.636  0.3890  0.2121 -0.7569
   43DOPE   C34 5504   1.211   4.300   4.703 -0.1683  0.3789  0.4025
   43DOPE   H4X 5505   1.312   4.346   4.708  0.5290 -0.8560 -1.2920
   43DOPE   H4Y 5506   1.149   4.364   4.636 -2.4377  0.2574  2.2279
   43DOPE   C35 5507   1.161   4.326   4.849 -0.2540 -0.3820 -0.3229
   43DOPE   H5X 5508   1.223   4.257   4.911 -1.2651 -1.5910 -0.6073
   43DOPE   H5Y 5509   1.058   4.288   4.866 -0.1489 -0.6574 -0.2967
   43DOPE   C36 5510   1.183   4.470   4.892  0.1348  0.4133  0.4520
   43DOPE   H6X 5511   1.144   4.537   4.813  1.1864  0.4699 -0.0402
   43DOPE   H6Y 5512   1.293   4.487   4.895  0.2048 -0.0941  0.9052
   43DOPE   C37 5513   1.125   4.520   5.028 -0.3961  0.1646  0.7437
   43DOPE   H7X 5514   1.110   4.630   5.026 -1.5478  0.0082  0.0558
   43DOPE   H7Y 5515   1.024   4.482   5.053 -0.2111 -1.0200 -0.2039
   43DOPE   C38 5516   1.210   4.470   5.148  0.2144  0.2555  0.6905
   43DOPE   H8X 5517   1.218   4.360   5.142 -2.9394 -0.0209 -0.2963
   43DOPE   H8Y 5518   1.149   4.490   5.239  1.4153  1.4458  1.2724
   43DOPE   C39 5519   1.343   4.532   5.144  0.0394  0.3498  0.1127
   43DOPE   H9X 5520   1.399   4.507   5.052  0.5905 -1.4366  0.8872
   43DOPE  C310 5521   1.399   4.626   5.231  0.3602  0.7867 -1.1324
   43DOPE  H10X 5522   1.499   4.664   5.209 -0.1136  1.2803 -2.5782
   43DOPE  C311 5523   1.348   4.661   5.365 -0.0761  0.3341 -0.6695
   43DOPE  H11X 5524   1.340   4.771   5.376 -2.6984  0.2800 -1.2408
   43DOPE  H11Y 5525   1.244   4.623   5.378 -0.6287  2.0220  0.0258
   43DOPE  C312 5526   1.441   4.611   5.484  0.4383 -0.5890  0.4389
   43DOPE  H12X 5527   1.549   4.630   5.469  0.1051 -0.1425 -1.7010
   43DOPE  H12Y 5528   1.434   4.500   5.482  0.8710 -0.6796  2.2816
   43DOPE  C313 5529   1.398   4.662   5.621 -0.1072 -0.2051  0.1827
   43DOPE  H13X 5530   1.409   4.772   5.620 -0.1130 -0.2065 -0.0710
   43DOPE  H13Y 5531   1.288   4.648   5.635 -0.7588  0.4630 -3.4191
   43DOPE  C314 5532   1.487   4.608   5.733  0.3355 -0.1517  0.4507
   43DOPE  H14X 5533   1.591   4.642   5.711  0.4493 -1.1596 -0.7323
   43DOPE  H14Y 5534   1.484   4.497   5.725  0.0402 -0.0360 -1.6735
   43DOPE  C315 5535   1.436   4.670   5.863  0.2740  0.5699  0.0653
   43DOPE  H15X 5536   1.444   4.781   5.864 -2.2311  0.7963  1.2484
   43DOPE  H15Y 5537   1.509   4.638   5.940  1.2878  0.1985 -1.0078
   43DOPE  C316 5538   1.303   4.620   5.901  0.3642  0.2094  0.6691
   43DOPE  H16X 5539   1.226   4.665   5.835 -0.1040 -0.3639  0.8211
   43DOPE  H16Y 5540   1.289   4.654   6.006  1.2651 -0.1768  0.9234
   43DOPE  C317 5541   1.282   4.471   5.903 -0.2180  0.5226  0.8380
   43DOPE  H17X 5542   1.269   4.435   5.799 -0.0354 -2.4434  1.7373
   43DOPE  H17Y 5543   1.376   4.420   5.931 -0.3160 -1.4282 -1.9722
   43DOPE  C318 5544   1.152   4.433   5.971 -0.7668  0.5148 -0.1211
   43DOPE  H18X 5545   1.120   4.333   5.937  2.0849 -0.9335  1.1303
   43DOPE  H18Y 5546   1.159   4.431   6.082  1.1748  0.7001 -0.2015
   43DOPE  H18Z 5547   1.066   4.500   5.947 -0.4234  1.2896  0.7459
   44DOPE     N 5548   4.190   3.077   3.704 -0.0792  0.0923  0.3310
   44DOPE   HN1 5549   4.293   3.095   3.706 -0.0140  0.1583 -1.7312
   44DOPE   HN2 5550   4.158   3.004   3.770 -1.6436 -2.0188 -2.5720
   44DOPE   HN3 5551   4.173   3.045   3.607  0.6059 -0.9879  0.5537
   44DOPE   C12 5552   4.114   3.207   3.727 -0.2333  0.9543 -0.2631
   44DOPE  H12A 5553   4.148   3.285   3.656 -0.0722  0.0952 -1.1583
   44DOPE  H12B 5554   4.135   3.234   3.833  0.2485  0.7284 -0.2992
   44DOPE   C11 5555   3.972   3.178   3.694  0.7498 -0.9906 -0.2644
   44DOPE  H11A 5556   3.974   3.139   3.590  3.4257 -1.2342 -0.1895
   44DOPE  H11B 5557   3.913   3.272   3.695 -1.0329 -2.0103  1.8041
   44DOPE     P 5558   3.745   3.054   3.746  0.3057  0.4952  0.1180
   44DOPE   O13 5559   3.726   2.908   3.742  0.1656  0.7006 -0.9402
   44DOPE   O14 5560   3.701   3.127   3.629  0.2817 -0.7908 -0.5138
   44DOPE   O11 5561   3.680   3.119   3.873 -0.3647  0.1972 -0.0024
   44DOPE   O12 5562   3.904   3.087   3.774  0.6136 -0.3157 -0.2156
   44DOPE    C1 5563   3.579   3.045   3.952  0.6360 -0.0157  0.8009
   44DOPE    HA 5564   3.559   2.941   3.917 -1.6074  0.4552  0.5389
   44DOPE    HB 5565   3.483   3.094   3.929  1.0148  0.1445 -0.5338
   44DOPE    C2 5566   3.622   3.048   4.094  0.8810  0.9624 -0.2940
   44DOPE    HS 5567   3.548   2.984   4.146  0.5165  1.1358 -0.5958
   44DOPE   O21 5568   3.619   3.181   4.145 -0.0573  0.1944 -0.5001
   44DOPE   C21 5569   3.621   3.183   4.276  0.2746 -0.4338  0.2286
   44DOPE   O22 5570   3.608   3.087   4.351  0.3785 -0.5656  0.2582
   44DOPE   C22 5571   3.625   3.324   4.320  0.5553  1.1391  0.0060
   44DOPE   H2R 5572   3.573   3.382   4.241 -0.9875 -0.0033  0.1546
   44DOPE   H2S 5573   3.727   3.369   4.326  0.8312  0.6616 -0.8987
   44DOPE    C3 5574   3.765   2.981   4.114 -0.3791  0.1273  1.1349
   44DOPE    HX 5575   3.838   3.029   4.045 -0.3693  2.0765  2.4378
   44DOPE    HY 5576   3.749   2.876   4.078  1.1711  0.7639 -1.7697
   44DOPE   O31 5577   3.830   2.995   4.244  0.3001 -0.1015 -0.3989
   44DOPE   C31 5578   3.830   2.889   4.322 -0.0701 -0.4129  0.2312
   44DOPE   O32 5579   3.779   2.785   4.296 -0.0707  0.2260  0.2089
   44DOPE   C32 5580   3.918   2.918   4.446 -0.1180 -0.7610  0.5166
   44DOPE   H2X 5581   3.994   2.993   4.414 -2.8169  1.6608 -0.6419
   44DOPE   H2Y 5582   3.860   2.965   4.528 -1.2109 -2.6556  0.8979
   44DOPE   C23 5583   3.565   3.339   4.460 -0.4012  0.3752 -0.3543
   44DOPE   H3R 5584   3.466   3.289   4.468  0.2768 -0.9936 -0.1987
   44DOPE   H3S 5585   3.558   3.450   4.469  1.5045  0.4626  0.4926
   44DOPE   C24 5586   3.661   3.290   4.570 -0.2278 -0.2375  0.3150
   44DOPE   H4R 5587   3.762   3.336   4.564 -1.1320  1.8741  0.0964
   44DOPE   H4S 5588   3.688   3.183   4.564  2.2198  0.2711  1.0379
   44DOPE   C25 5589   3.602   3.323   4.704 -0.1415  0.1276 -0.9320
   44DOPE   H5R 5590   3.512   3.259   4.714  1.1978 -2.0409 -1.7408
   44DOPE   H5S 5591   3.577   3.430   4.711  2.5424  0.8072 -0.4790
   44DOPE   C26 5592   3.698   3.291   4.823  0.9090 -0.3687  0.2837
   44DOPE   H6R 5593   3.767   3.377   4.838  0.5677 -0.0764  0.1723
   44DOPE   H6S 5594   3.767   3.207   4.802  0.8921 -0.9233  2.3169
   44DOPE   C27 5595   3.615   3.286   4.955  0.0249  0.1682  0.1854
   44DOPE   H7R 5596   3.563   3.188   4.947  2.9798 -1.7132  2.1477
   44DOPE   H7S 5597   3.541   3.368   4.966  1.7183  1.6124  1.1128
   44DOPE   C28 5598   3.704   3.289   5.080 -0.5954 -0.2442 -0.5882
   44DOPE   H8R 5599   3.682   3.391   5.119  0.5374  0.5274 -1.8906
   44DOPE   H8S 5600   3.806   3.296   5.037 -0.2159 -0.6493  0.2141
   44DOPE   C29 5601   3.701   3.176   5.176  0.0846  0.0447 -0.7825
   44DOPE   H9R 5602   3.684   3.079   5.126  0.0215  0.7570 -2.1848
   44DOPE  C210 5603   3.713   3.175   5.310  0.5713 -0.8887 -0.6712
   44DOPE  H10R 5604   3.708   3.074   5.353  2.3249 -1.1983 -1.1034
   44DOPE  C211 5605   3.740   3.300   5.407  0.1109  0.4675  0.0560
   44DOPE  H11R 5606   3.698   3.393   5.363 -2.2800 -1.6603 -2.5169
   44DOPE  H11S 5607   3.851   3.305   5.419  0.5680 -2.2591 -1.9228
   44DOPE  C212 5608   3.674   3.290   5.550  0.1026 -0.1364 -0.3477
   44DOPE  H12R 5609   3.565   3.277   5.533  0.2347  0.1649 -1.5199
   44DOPE  H12S 5610   3.680   3.391   5.597  0.6894 -0.3445  0.0301
   44DOPE  C213 5611   3.721   3.194   5.654 -0.3383 -0.3615 -0.3602
   44DOPE  H13R 5612   3.832   3.197   5.665 -0.5193 -0.2491  1.9185
   44DOPE  H13S 5613   3.694   3.089   5.630  1.3724 -0.9238  0.0054
   44DOPE  C214 5614   3.670   3.241   5.798  0.3738 -0.2008 -0.0116
   44DOPE  H14R 5615   3.560   3.233   5.806  0.5565 -4.2657  0.6850
   44DOPE  H14S 5616   3.693   3.347   5.822 -0.0129 -0.0269 -0.3992
   44DOPE  C215 5617   3.733   3.152   5.912  0.2291 -0.0509  0.0532
   44DOPE  H15R 5618   3.838   3.188   5.912 -0.0821  0.8764  0.2869
   44DOPE  H15S 5619   3.731   3.044   5.886 -1.4892  0.2177 -1.0162
   44DOPE  C216 5620   3.677   3.181   6.049 -0.5679  0.2045  0.1035
   44DOPE  H16R 5621   3.573   3.219   6.038 -0.8543 -0.7868 -0.7217
   44DOPE  H16S 5622   3.746   3.263   6.080 -0.5704  0.1261  0.3179
   44DOPE  C217 5623   3.701   3.081   6.160 -0.5622  0.0324  0.1692
   44DOPE  H17R 5624   3.802   3.035   6.158  0.4606  2.2107 -1.2982
   44DOPE  H17S 5625   3.628   2.999   6.142  0.1728 -0.5669 -0.1188
   44DOPE  C218 5626   3.689   3.138   6.301  0.1622 -0.8786 -0.2368
   44DOPE  H18R 5627   3.748   3.231   6.313 -2.6653  0.9221  0.6517
   44DOPE  H18S 5628   3.728   3.063   6.374 -1.4338 -1.5544 -0.0300
   44DOPE  H18T 5629   3.583   3.150   6.331  0.5983  1.3166  0.6185
   44DOPE   C33 5630   3.976   2.784   4.500  0.3557 -0.1827 -0.1178
   44DOPE   H3X 5631   4.042   2.736   4.425  0.0785 -0.7914  0.0168
   44DOPE   H3Y 5632   3.890   2.714   4.515  2.1082 -2.4490 -0.0878
   44DOPE   C34 5633   4.051   2.803   4.633  0.1886  0.0971 -0.8512
   44DOPE   H4X 5634   4.124   2.726   4.665 -0.2112  1.2142  3.4503
   44DOPE   H4Y 5635   4.103   2.899   4.612  1.5806  0.1108  2.1085
   44DOPE   C35 5636   3.959   2.822   4.753  0.6718 -0.0540 -0.2307
   44DOPE   H5X 5637   3.904   2.726   4.766 -0.1218  0.6140  1.6157
   44DOPE   H5Y 5638   3.892   2.910   4.748  0.8095  0.5513  4.3426
   44DOPE   C36 5639   4.039   2.841   4.883  0.4695 -0.5786 -0.2888
   44DOPE   H6X 5640   4.104   2.929   4.868 -0.1791 -0.4208 -2.5036
   44DOPE   H6Y 5641   4.100   2.752   4.913 -1.2178 -1.8971 -0.5971
   44DOPE   C37 5642   3.953   2.897   5.000 -0.2478  0.1593  0.0384
   44DOPE   H7X 5643   3.927   3.005   4.986 -1.7267 -0.1154  0.4456
   44DOPE   H7Y 5644   3.861   2.837   5.018  0.3041 -0.3754  1.1579
   44DOPE   C38 5645   4.034   2.884   5.126  0.2731 -0.1825  0.2463
   44DOPE   H8X 5646   3.993   2.954   5.201  0.2092  1.3763 -1.1719
   44DOPE   H8Y 5647   4.132   2.932   5.103 -0.3229  1.2584  0.5567
   44DOPE   C39 5648   4.052   2.748   5.186  0.3288  0.0331  0.2579
   44DOPE   H9X 5649   4.118   2.684   5.125  2.0169  0.0691  1.9478
   44DOPE  C310 5650   4.005   2.704   5.299  0.5088 -0.5489 -1.0768
   44DOPE  H10X 5651   4.030   2.605   5.340 -1.6747 -0.1953  1.4367
   44DOPE  C311 5652   3.919   2.768   5.404 -0.2513  0.1830 -0.2996
   44DOPE  H11X 5653   3.882   2.867   5.370  1.7653  1.0788 -0.0464
   44DOPE  H11Y 5654   3.831   2.702   5.419  0.8563 -1.2213  0.2072
   44DOPE  C312 5655   4.006   2.794   5.535  0.1959  0.4613 -0.5772
   44DOPE  H12X 5656   4.069   2.885   5.528  0.3440  0.2899 -1.7315
   44DOPE  H12Y 5657   4.050   2.692   5.541 -2.4222 -0.6822  0.3751
   44DOPE  C313 5658   3.918   2.796   5.664 -0.6376  0.3253  0.2796
   44DOPE  H13X 5659   3.850   2.884   5.665 -1.7039 -0.4366 -1.0024
   44DOPE  H13Y 5660   3.855   2.706   5.677 -0.3446  0.3494  2.0410
   44DOPE  C314 5661   4.008   2.800   5.796 -0.1127  0.1714  0.5496
   44DOPE  H14X 5662   4.082   2.718   5.787  0.7502  0.9746  0.0001
   44DOPE  H14Y 5663   3.949   2.773   5.885 -0.0463 -0.6544  0.3475
   44DOPE  C315 5664   4.078   2.934   5.818  0.3976  0.0552  0.3047
   44DOPE  H15X 5665   3.992   3.003   5.828  1.0203  0.5456  2.9768
   44DOPE  H15Y 5666   4.136   2.965   5.728  0.4340  0.1636  0.3670
   44DOPE  C316 5667   4.157   2.940   5.949 -0.1440  0.5170  0.4918
   44DOPE  H16X 5668   4.216   3.034   5.958  0.8953 -0.1171  0.4911
   44DOPE  H16Y 5669   4.222   2.851   5.953 -1.9470 -0.8263  1.2207
   44DOPE  C317 5670   4.075   2.935   6.073  0.0359 -0.3585  0.0922
   44DOPE  H17X 5671   3.990   3.006   6.075 -0.6273 -1.1545  1.0053
   44DOPE  H17Y 5672   4.016   2.841   6.076 -1.3981  0.5444  1.0752
   44DOPE  C318 5673   4.161   2.940   6.202  0.3641  0.0541 -1.3757
   44DOPE  H18X 5674   4.240   3.018   6.199 -1.1860  1.8426  0.9149
   44DOPE  H18Y 5675   4.100   2.977   6.287 -0.2108  0.2012 -1.8434
   44DOPE  H18Z 5676   4.210   2.844   6.228 -0.7442 -0.0692  0.4103
   45DOPE     N 5677   3.754   3.018   3.261  0.4556  0.1648 -0.1038
   45DOPE   HN1 5678   3.722   3.095   3.323  0.5508 -1.5113  2.1731
   45DOPE   HN2 5679   3.843   3.049   3.217 -1.6232  0.6451 -4.4364
   45DOPE   HN3 5680   3.687   3.001   3.184  1.9180 -1.8640 -1.0009
   45DOPE   C12 5681   3.787   2.909   3.352  0.2822 -0.6996  0.4189
   45DOPE  H12A 5682   3.689   2.859   3.370  0.2907 -1.1877 -0.7650
   45DOPE  H12B 5683   3.821   2.951   3.449 -1.3520  0.2483  0.6122
   45DOPE   C11 5684   3.888   2.812   3.289 -0.1981 -0.0889 -0.1348
   45DOPE  H11A 5685   3.862   2.794   3.183 -2.4732  3.2096 -0.2868
   45DOPE  H11B 5686   3.876   2.713   3.338 -1.0421 -0.9016 -1.9004
   45DOPE     P 5687   4.128   2.824   3.402 -0.2543 -0.4465  0.3488
   45DOPE   O13 5688   4.154   2.946   3.487 -0.8520  0.3080 -0.1770
   45DOPE   O14 5689   4.237   2.750   3.343  0.1146  0.2665 -0.2487
   45DOPE   O11 5690   4.054   2.703   3.484 -0.4025  0.2134 -0.5767
   45DOPE   O12 5691   4.021   2.862   3.296  0.4760 -0.0213 -0.6225
   45DOPE    C1 5692   3.981   2.727   3.602 -0.0760  0.0656  0.7153
   45DOPE    HA 5693   3.890   2.664   3.599 -0.2501  0.3250  0.4499
   45DOPE    HB 5694   3.945   2.831   3.615  0.9030  0.4582  0.4384
   45DOPE    C2 5695   4.071   2.710   3.731 -0.4470 -0.0339  0.5817
   45DOPE    HS 5696   4.158   2.777   3.715  0.5072 -1.5014 -0.7549
   45DOPE   O21 5697   4.117   2.574   3.738  0.0724 -0.0252 -0.0319
   45DOPE   C21 5698   4.238   2.551   3.749 -1.1533 -0.3198 -0.6260
   45DOPE   O22 5699   4.330   2.634   3.748 -0.4311 -0.0897  0.1710
   45DOPE   C22 5700   4.260   2.403   3.767  0.3041 -0.0724 -0.1768
   45DOPE   H2R 5701   4.320   2.380   3.676 -0.0649  0.8209 -0.6565
   45DOPE   H2S 5702   4.165   2.348   3.749  0.9136 -1.6241  1.1001
   45DOPE    C3 5703   3.995   2.730   3.858 -0.2546 -0.7780  0.1094
   45DOPE    HX 5704   3.912   2.656   3.854 -0.6076 -0.3598 -0.3185
   45DOPE    HY 5705   3.944   2.828   3.857  0.7063 -0.2462 -1.4943
   45DOPE   O31 5706   4.075   2.711   3.984  0.3994 -0.4974 -0.7563
   45DOPE   C31 5707   4.150   2.823   4.013 -0.1424 -0.5688  0.1669
   45DOPE   O32 5708   4.159   2.917   3.940  0.7542  0.2993 -0.7189
   45DOPE   C32 5709   4.206   2.801   4.148  0.0753  0.1447 -0.0578
   45DOPE   H2X 5710   4.152   2.866   4.220 -0.9111 -1.5439  0.7881
   45DOPE   H2Y 5711   4.198   2.695   4.183 -0.6886  0.5587  1.0774
   45DOPE   C23 5712   4.339   2.370   3.892  0.1046 -0.1890  0.1363
   45DOPE   H3R 5713   4.435   2.425   3.896 -0.3630  0.8295 -1.6154
   45DOPE   H3S 5714   4.359   2.260   3.889  1.0108 -0.0188 -0.5443
   45DOPE   C24 5715   4.265   2.395   4.028 -0.0052 -0.1535  0.2589
   45DOPE   H4R 5716   4.156   2.380   4.008  0.3250 -1.4599 -0.6641
   45DOPE   H4S 5717   4.291   2.498   4.061  1.6911  0.1681 -1.9004
   45DOPE   C25 5718   4.318   2.316   4.145  0.0871  0.8869 -0.1361
   45DOPE   H5R 5719   4.428   2.335   4.143 -0.2044  2.7921 -1.6902
   45DOPE   H5S 5720   4.301   2.206   4.148  1.5104  0.6616  0.8577
   45DOPE   C26 5721   4.254   2.355   4.281  0.1455  0.2984 -0.2934
   45DOPE   H6R 5722   4.144   2.349   4.266  0.3422 -0.6378 -1.5386
   45DOPE   H6S 5723   4.283   2.461   4.299 -1.7080  0.7270  0.3634
   45DOPE   C27 5724   4.309   2.275   4.405  0.2988 -0.1139 -0.6203
   45DOPE   H7R 5725   4.408   2.318   4.432  0.4768 -0.4423 -0.7459
   45DOPE   H7S 5726   4.316   2.170   4.369 -0.9983 -0.8916  1.2368
   45DOPE   C28 5727   4.199   2.263   4.510 -0.1880 -0.1326  0.1977
   45DOPE   H8R 5728   4.236   2.179   4.573  2.0069  0.4046 -0.3012
   45DOPE   H8S 5729   4.103   2.228   4.467 -0.0228 -1.9406  1.1988
   45DOPE   C29 5730   4.181   2.391   4.588  0.0059 -0.0343 -0.5221
   45DOPE   H9R 5731   4.161   2.470   4.514 -0.0705 -0.7956 -1.3402
   45DOPE  C210 5732   4.210   2.418   4.718 -0.2511 -0.3706  0.1093
   45DOPE  H10R 5733   4.188   2.521   4.749  1.7080  0.3676 -0.7795
   45DOPE  C211 5734   4.256   2.323   4.816  0.8273  0.1291 -0.0403
   45DOPE  H11R 5735   4.350   2.371   4.852 -0.1857  0.6380  2.0822
   45DOPE  H11S 5736   4.280   2.223   4.774  2.2922 -0.6064  2.3534
   45DOPE  C212 5737   4.159   2.322   4.940  0.0024 -1.1680  0.2362
   45DOPE  H12R 5738   4.055   2.299   4.909 -0.7556  0.6795  1.2868
   45DOPE  H12S 5739   4.174   2.420   4.990  1.6394 -0.6668 -1.1086
   45DOPE  C213 5740   4.217   2.215   5.040 -0.0891 -0.2170 -0.0003
   45DOPE  H13R 5741   4.322   2.246   5.059 -0.3585  0.0187  1.1789
   45DOPE  H13S 5742   4.213   2.114   4.992  0.0634 -0.2956  0.1555
   45DOPE  C214 5743   4.158   2.203   5.178  0.9846 -1.0533 -0.2583
   45DOPE  H14R 5744   4.195   2.114   5.232 -1.0674 -1.4327  0.6071
   45DOPE  H14S 5745   4.049   2.183   5.167  0.6310  0.5482  0.0352
   45DOPE  C215 5746   4.169   2.330   5.272  0.5635  0.5605  1.0289
   45DOPE  H15R 5747   4.115   2.315   5.368 -1.6206  1.1227 -0.0595
   45DOPE  H15S 5748   4.113   2.420   5.239 -1.3988 -0.1910  2.1418
   45DOPE  C216 5749   4.318   2.386   5.288  0.6142 -0.3361 -0.0099
   45DOPE  H16R 5750   4.340   2.434   5.191 -2.1961 -0.1866 -0.6594
   45DOPE  H16S 5751   4.397   2.309   5.306  1.7058  0.7494 -0.0420
   45DOPE  C217 5752   4.326   2.483   5.400 -0.3259  0.0605 -0.1643
   45DOPE  H17R 5753   4.233   2.542   5.416  1.1087  2.2615  0.6057
   45DOPE  H17S 5754   4.410   2.555   5.388  2.4498 -2.9896 -0.3602
   45DOPE  C218 5755   4.339   2.407   5.530 -0.3978  0.0684  0.3420
   45DOPE  H18R 5756   4.273   2.319   5.518 -2.4679  1.5962  0.0205
   45DOPE  H18S 5757   4.314   2.468   5.620  1.7205 -1.6361  2.1975
   45DOPE  H18T 5758   4.441   2.367   5.547 -0.6412 -0.6862  0.0834
   45DOPE   C33 5759   4.355   2.838   4.148 -0.6708  0.0662 -0.2011
   45DOPE   H3X 5760   4.354   2.949   4.145 -0.6295  0.0548 -0.6659
   45DOPE   H3Y 5761   4.404   2.789   4.061  0.1796  0.5529 -0.0046
   45DOPE   C34 5762   4.424   2.807   4.286  0.4056  0.3372  0.2417
   45DOPE   H4X 5763   4.410   2.698   4.302  0.9420  0.0691 -1.0291
   45DOPE   H4Y 5764   4.532   2.830   4.276  0.0711  1.8409 -0.1625
   45DOPE   C35 5765   4.368   2.872   4.406  0.2169 -0.0267  0.4272
   45DOPE   H5X 5766   4.269   2.833   4.437 -0.4402 -0.0159 -1.4966
   45DOPE   H5Y 5767   4.357   2.980   4.383 -0.4538  0.1203  1.3920
   45DOPE   C36 5768   4.472   2.872   4.527 -0.2033  0.2713  0.4216
   45DOPE   H6X 5769   4.561   2.919   4.479 -0.7831 -0.7121 -1.7692
   45DOPE   H6Y 5770   4.500   2.769   4.559 -0.2101 -0.0235 -0.4793
   45DOPE   C37 5771   4.431   2.962   4.646 -0.4864  0.5928 -0.1099
   45DOPE   H7X 5772   4.449   3.072   4.641 -2.6137  1.0437  0.9750
   45DOPE   H7Y 5773   4.322   2.949   4.659 -0.4662 -1.8966 -1.7405
   45DOPE   C38 5774   4.484   2.907   4.776 -0.2353 -0.3106 -0.2451
   45DOPE   H8X 5775   4.446   2.979   4.851 -2.3876  0.6353 -2.1299
   45DOPE   H8Y 5776   4.595   2.914   4.772 -0.2868  1.2783  0.3199
   45DOPE   C39 5777   4.429   2.774   4.824  0.1033 -0.2975  0.6957
   45DOPE   H9X 5778   4.367   2.724   4.749  0.1814  1.8307 -0.8985
   45DOPE  C310 5779   4.456   2.709   4.937  0.1363 -0.0935  0.3808
   45DOPE  H10X 5780   4.394   2.619   4.943 -1.9894  1.2263 -0.3237
   45DOPE  C311 5781   4.540   2.767   5.050  0.0616 -0.2092  0.1565
   45DOPE  H11X 5782   4.598   2.687   5.100 -2.7428 -1.3379  1.8265
   45DOPE  H11Y 5783   4.613   2.848   5.025  0.5348 -0.8087 -0.4440
   45DOPE  C312 5784   4.447   2.816   5.157 -0.2773  0.1566  0.5632
   45DOPE  H12X 5785   4.379   2.734   5.189 -0.9335  0.9860  1.3081
   45DOPE  H12Y 5786   4.377   2.897   5.129 -0.4377  0.1189  0.8637
   45DOPE  C313 5787   4.526   2.870   5.282  0.5106  0.2081  0.8734
   45DOPE  H13X 5788   4.584   2.783   5.321  4.5713  0.8226 -3.0463
   45DOPE  H13Y 5789   4.593   2.951   5.248  1.5867 -1.4495 -1.2220
   45DOPE  C314 5790   4.422   2.925   5.380  0.2294 -0.3552  0.0496
   45DOPE  H14X 5791   4.334   2.859   5.391 -0.8164  0.9468 -0.1725
   45DOPE  H14Y 5792   4.373   3.016   5.337 -1.0802 -0.0056  2.1046
   45DOPE  C315 5793   4.486   2.943   5.514 -0.2023 -0.0515 -0.0162
   45DOPE  H15X 5794   4.556   3.026   5.492 -1.9877  1.9220  1.4746
   45DOPE  H15Y 5795   4.544   2.851   5.538 -1.5097 -0.3284  2.3819
   45DOPE  C316 5796   4.404   3.001   5.618  0.2133 -0.2349 -1.5581
   45DOPE  H16X 5797   4.326   2.925   5.639 -0.9840  0.6593 -2.5709
   45DOPE  H16Y 5798   4.357   3.093   5.577 -0.2963  0.0101 -0.4585
   45DOPE  C317 5799   4.480   3.037   5.747  0.9432 -0.0467  0.3307
   45DOPE  H17X 5800   4.577   3.085   5.720  1.9865 -1.5712  1.2216
   45DOPE  H17Y 5801   4.413   3.100   5.810  1.3383  0.8705 -0.1466
   45DOPE  C318 5802   4.511   2.913   5.835 -0.5461 -0.6429 -0.0912
   45DOPE  H18X 5803   4.560   2.836   5.772  0.3449 -0.7843  0.7375
   45DOPE  H18Y 5804   4.584   2.938   5.915 -0.4558 -0.2500 -0.2958
   45DOPE  H18Z 5805   4.424   2.875   5.893 -1.4386  2.1712  0.6052
   46DOPE     N 5806   3.960   0.366   4.086  0.1293  0.7471 -0.6014
   46DOPE   HN1 5807   3.989   0.295   4.016 -0.1800 -1.6590  1.5511
   46DOPE   HN2 5808   3.864   0.398   4.065 -0.1296 -0.3736 -1.2436
   46DOPE   HN3 5809   4.024   0.447   4.081 -0.6253  1.3574 -0.4764
   46DOPE   C12 5810   3.977   0.313   4.223 -0.4168  0.3798  0.0597
   46DOPE  H12A 5811   3.879   0.263   4.242 -0.8318  1.1448 -0.0394
   46DOPE  H12B 5812   3.989   0.390   4.302  1.8168  0.7337 -0.5662
   46DOPE   C11 5813   4.089   0.207   4.240 -0.4179  0.1493  0.3651
   46DOPE  H11A 5814   4.086   0.163   4.342 -0.6204 -1.9037 -0.4757
   46DOPE  H11B 5815   4.186   0.257   4.222 -0.2562 -0.2444  0.1239
   46DOPE     P 5816   4.054  -0.044   4.186 -0.0293 -0.1526  0.1166
   46DOPE   O13 5817   4.081  -0.126   4.060  0.0843 -0.8763  0.0737
   46DOPE   O14 5818   3.924  -0.065   4.254  0.3799 -0.0350 -0.3058
   46DOPE   O11 5819   4.170  -0.071   4.297 -0.7033 -0.1134  0.0867
   46DOPE   O12 5820   4.072   0.106   4.149  0.2398  0.1914 -0.5653
   46DOPE    C1 5821   4.300  -0.037   4.262 -0.4063 -0.4238 -0.0932
   46DOPE    HA 5822   4.307   0.067   4.223 -0.2823  0.9774  3.2860
   46DOPE    HB 5823   4.330  -0.108   4.182 -0.5690 -1.3598  0.6563
   46DOPE    C2 5824   4.400  -0.073   4.377 -0.4858 -0.3599  0.4292
   46DOPE    HS 5825   4.377  -0.177   4.408 -1.1250 -0.2297  0.4105
   46DOPE   O21 5826   4.365   0.027   4.472 -0.6126  0.2426 -0.2777
   46DOPE   C21 5827   4.391  -0.004   4.598 -0.1623  0.5454 -0.3944
   46DOPE   O22 5828   4.467  -0.089   4.637  0.5262  0.1827 -0.2965
   46DOPE   C22 5829   4.317   0.100   4.691 -0.2578  0.4813  0.2577
   46DOPE   H2R 5830   4.224   0.135   4.641 -1.3005 -0.7438  1.2603
   46DOPE   H2S 5831   4.382   0.190   4.696 -2.1626  2.0343 -1.1312
   46DOPE    C3 5832   4.546  -0.050   4.333  0.2378 -0.5038 -0.1234
   46DOPE    HX 5833   4.612  -0.055   4.422  0.2185  1.8347  0.0673
   46DOPE    HY 5834   4.552   0.055   4.299  0.8371 -0.2340  0.7893
   46DOPE   O31 5835   4.582  -0.144   4.228  0.1417  0.8763  0.0910
   46DOPE   C31 5836   4.694  -0.114   4.171 -0.8045  0.4890  0.1328
   46DOPE   O32 5837   4.768  -0.017   4.201  0.2199 -0.0967 -0.3800
   46DOPE   C32 5838   4.728  -0.222   4.071  0.3029  0.2688 -0.8885
   46DOPE   H2X 5839   4.638  -0.281   4.046  0.9371 -1.1702  0.1462
   46DOPE   H2Y 5840   4.775  -0.175   3.981 -0.0161  1.6437 -0.3560
   46DOPE   C23 5841   4.305   0.051   4.841  0.6711 -0.0298 -0.7865
   46DOPE   H3R 5842   4.259  -0.049   4.855  0.7856 -0.1079 -0.9656
   46DOPE   H3S 5843   4.238   0.119   4.899  0.7524 -0.7089  0.1318
   46DOPE   C24 5844   4.432   0.069   4.930  0.8180  0.3835  0.0946
   46DOPE   H4R 5845   4.497   0.146   4.884 -1.2602  1.3132 -1.4092
   46DOPE   H4S 5846   4.493  -0.024   4.929  3.5562  2.0645 -1.3158
   46DOPE   C25 5847   4.423   0.099   5.080 -0.0741  0.2575  0.2971
   46DOPE   H5R 5848   4.391   0.021   5.152  0.1271  1.3063  1.5721
   46DOPE   H5S 5849   4.356   0.188   5.081 -2.0394 -1.1622  0.4201
   46DOPE   C26 5850   4.567   0.157   5.117  0.0881 -0.1941 -0.0875
   46DOPE   H6R 5851   4.589   0.252   5.065 -0.7876  1.0067  1.6355
   46DOPE   H6S 5852   4.637   0.073   5.100  1.1442  0.7028 -0.2299
   46DOPE   C27 5853   4.573   0.191   5.274 -0.3229  0.3610 -0.4547
   46DOPE   H7R 5854   4.484   0.250   5.306 -0.0284  0.3409  0.4356
   46DOPE   H7S 5855   4.656   0.262   5.289  0.5816 -0.7076 -0.2691
   46DOPE   C28 5856   4.567   0.062   5.357 -0.7727 -0.7557  0.2565
   46DOPE   H8R 5857   4.587  -0.023   5.287  0.4755 -0.1621 -0.1422
   46DOPE   H8S 5858   4.464   0.051   5.397 -1.3987  1.1325 -0.7426
   46DOPE   C29 5859   4.677   0.064   5.462  0.2717 -0.4116  0.4653
   46DOPE   H9R 5860   4.780   0.047   5.426 -0.4334 -0.6963 -1.5403
   46DOPE  C210 5861   4.655   0.083   5.595  0.7127  0.6248 -0.4647
   46DOPE  H10R 5862   4.736   0.092   5.669  1.4298 -1.4501 -0.9489
   46DOPE  C211 5863   4.519   0.088   5.663  0.1617 -0.3011 -0.5141
   46DOPE  H11R 5864   4.431   0.086   5.595 -0.4196 -2.4630  0.1968
   46DOPE  H11S 5865   4.511   0.174   5.733 -1.5987  0.0223 -1.0580
   46DOPE  C212 5866   4.505  -0.033   5.755  0.1228  0.2483  0.0710
   46DOPE  H12R 5867   4.601  -0.051   5.808  0.9218 -0.0691 -1.4337
   46DOPE  H12S 5868   4.478  -0.124   5.697 -2.4069  0.7810  0.2748
   46DOPE  C213 5869   4.392  -0.014   5.860 -0.5574  0.9060 -0.3256
   46DOPE  H13R 5870   4.289  -0.022   5.818  0.0193  1.0071 -1.8108
   46DOPE  H13S 5871   4.395   0.089   5.903 -1.4504  0.6536  0.3835
   46DOPE  C214 5872   4.406  -0.122   5.973  0.2365  0.1982  0.6966
   46DOPE  H14R 5873   4.506  -0.124   6.021 -0.0977 -1.5226  1.4012
   46DOPE  H14S 5874   4.392  -0.221   5.924 -0.8796  0.1972  0.9919
   46DOPE  C215 5875   4.299  -0.124   6.086  0.0302  0.1755  0.4173
   46DOPE  H15R 5876   4.317  -0.226   6.127  1.2115 -0.4399 -1.5022
   46DOPE  H15S 5877   4.192  -0.123   6.056  0.5386  1.4609 -1.5277
   46DOPE  C216 5878   4.320  -0.023   6.201 -0.0069  0.4431 -0.1790
   46DOPE  H16R 5879   4.318   0.087   6.183 -0.5680  0.5594  0.5596
   46DOPE  H16S 5880   4.415  -0.053   6.250 -0.4502  0.3266  0.6289
   46DOPE  C217 5881   4.219  -0.045   6.316  0.4823  0.3909 -0.1037
   46DOPE  H17R 5882   4.264  -0.032   6.417 -1.3396  1.3390  0.6338
   46DOPE  H17S 5883   4.208  -0.156   6.321  0.4677  0.1283 -3.6536
   46DOPE  C218 5884   4.086   0.034   6.316  0.0898  0.0958  0.1765
   46DOPE  H18R 5885   4.110   0.143   6.319  0.2195  0.1874 -2.2175
   46DOPE  H18S 5886   4.022   0.003   6.402  1.0524 -2.3013  0.0805
   46DOPE  H18T 5887   4.027   0.018   6.223 -1.8671  0.5235  1.2853
   46DOPE   C33 5888   4.826  -0.303   4.152 -0.6312 -0.6986  1.0691
   46DOPE   H3X 5889   4.928  -0.259   4.154 -0.2168 -1.3562 -1.4316
   46DOPE   H3Y 5890   4.843  -0.390   4.085 -1.8756 -0.6784  0.7024
   46DOPE   C34 5891   4.789  -0.350   4.286  0.2929 -0.2685 -0.1258
   46DOPE   H4X 5892   4.764  -0.263   4.350 -0.9604 -0.8649  0.2476
   46DOPE   H4Y 5893   4.693  -0.403   4.268  0.5135  0.0972 -2.7319
   46DOPE   C35 5894   4.882  -0.435   4.365  0.2241  0.5488 -0.0720
   46DOPE   H5X 5895   4.981  -0.389   4.388  1.6712 -2.6050  0.5710
   46DOPE   H5Y 5896   4.898  -0.529   4.308 -0.2416 -0.7221  1.8244
   46DOPE   C36 5897   4.823  -0.484   4.503  0.0414 -0.3372  0.6328
   46DOPE   H6X 5898   4.863  -0.583   4.531 -2.3940 -1.7086 -0.4494
   46DOPE   H6Y 5899   4.716  -0.503   4.478 -0.0155  1.7300 -0.9736
   46DOPE   C37 5900   4.833  -0.374   4.600 -0.4921 -0.0236  0.2784
   46DOPE   H7X 5901   4.930  -0.323   4.585 -1.4236  1.3832 -1.3111
   46DOPE   H7Y 5902   4.757  -0.297   4.577  0.9509  1.2262 -0.4781
   46DOPE   C38 5903   4.816  -0.422   4.740  0.1990  0.4316 -0.0362
   46DOPE   H8X 5904   4.911  -0.478   4.749 -0.0347  0.2067  1.0924
   46DOPE   H8Y 5905   4.724  -0.481   4.761  0.1134  1.3475  2.5137
   46DOPE   C39 5906   4.809  -0.309   4.837  0.4102  0.1123  0.1729
   46DOPE   H9X 5907   4.722  -0.243   4.836  2.5120  3.0749  0.3119
   46DOPE  C310 5908   4.888  -0.285   4.947  0.2593 -0.1516  0.1183
   46DOPE  H10X 5909   4.866  -0.199   5.012  3.1485  0.3659  0.5260
   46DOPE  C311 5910   5.002  -0.371   4.996  0.3786 -0.1891  0.0609
   46DOPE  H11X 5911   5.039  -0.445   4.922 -0.5773  0.3846 -1.0221
   46DOPE  H11Y 5912   5.089  -0.303   5.010 -0.7888  1.0992  1.4789
   46DOPE  C312 5913   4.961  -0.457   5.117  0.4082  0.5668 -0.3051
   46DOPE  H12X 5914   5.047  -0.510   5.164 -0.2857 -1.2634 -1.0266
   46DOPE  H12Y 5915   4.885  -0.530   5.082 -1.2484  2.3292 -0.5513
   46DOPE  C313 5916   4.896  -0.378   5.233 -0.2821  0.1516  0.2290
   46DOPE  H13X 5917   4.794  -0.356   5.194  0.5792  0.8355 -1.7792
   46DOPE  H13Y 5918   4.873  -0.459   5.305  0.4339 -1.9305 -1.7771
   46DOPE  C314 5919   4.990  -0.268   5.288 -0.3514 -1.0208  0.6230
   46DOPE  H14X 5920   4.988  -0.175   5.227  1.0119 -1.7466 -0.5793
   46DOPE  H14Y 5921   5.096  -0.300   5.290  0.1367  0.2613 -1.4619
   46DOPE  C315 5922   4.956  -0.247   5.437  0.2977  0.8448 -0.2455
   46DOPE  H15X 5923   4.954  -0.344   5.490 -0.9206  1.7439  1.4614
   46DOPE  H15Y 5924   4.854  -0.201   5.436  0.8773  2.3529  1.9868
   46DOPE  C316 5925   5.045  -0.161   5.520 -0.1959 -0.1681 -0.0292
   46DOPE  H16X 5926   5.071  -0.060   5.481 -2.8471  2.4448  4.1706
   46DOPE  H16Y 5927   5.145  -0.207   5.530 -0.3021 -0.7441 -1.3396
   46DOPE  C317 5928   4.971  -0.135   5.646 -0.4209 -0.5525 -0.2224
   46DOPE  H17X 5929   4.868  -0.104   5.618  0.5272  0.9670 -2.3244
   46DOPE  H17Y 5930   4.950  -0.222   5.712 -1.4374  1.1867  1.8674
   46DOPE  C318 5931   5.034  -0.017   5.712  0.3052  0.2161  0.3453
   46DOPE  H18X 5932   5.142  -0.040   5.723  0.3494 -0.5655 -1.4132
   46DOPE  H18Y 5933   5.016   0.077   5.655  1.8070  0.1434 -0.2748
   46DOPE  H18Z 5934   4.989   0.002   5.812 -0.5662 -1.0684  0.2272
   47DOPE     N 5935   2.181   1.131   4.081 -0.2437 -0.2986  0.0416
   47DOPE   HN1 5936   2.222   1.157   3.989 -0.1033  1.1109  0.4873
   47DOPE   HN2 5937   2.258   1.084   4.133  1.0553  1.6684  0.0016
   47DOPE   HN3 5938   2.100   1.065   4.087 -1.8310  1.5214 -0.3977
   47DOPE   C12 5939   2.129   1.251   4.154  0.1685 -0.4275  0.1342
   47DOPE  H12A 5940   2.073   1.222   4.246 -2.0591  2.9686  0.0719
   47DOPE  H12B 5941   2.059   1.307   4.088  0.6128  0.4526  0.3871
   47DOPE   C11 5942   2.234   1.352   4.194  0.0676  0.2857  0.4085
   47DOPE  H11A 5943   2.314   1.304   4.254  1.6934  2.5467  0.1560
   47DOPE  H11B 5944   2.189   1.424   4.265 -0.1612  0.7589 -0.2062
   47DOPE     P 5945   2.423   1.393   4.017 -0.1177 -0.2040  0.0605
   47DOPE   O13 5946   2.428   1.458   3.883 -0.0735  0.2234 -0.4954
   47DOPE   O14 5947   2.435   1.246   4.016 -0.1179  0.4067  0.2878
   47DOPE   O11 5948   2.538   1.454   4.107  0.3471  0.0313 -0.0515
   47DOPE   O12 5949   2.277   1.429   4.081 -0.3357 -0.1552 -0.2148
   47DOPE    C1 5950   2.531   1.575   4.175  0.5601  0.0544 -0.0350
   47DOPE    HA 5951   2.427   1.614   4.183  0.0889 -0.8602 -1.2166
   47DOPE    HB 5952   2.600   1.647   4.128 -1.1114  0.2525 -2.3815
   47DOPE    C2 5953   2.576   1.562   4.325  0.4148  0.5157  0.2008
   47DOPE    HS 5954   2.670   1.502   4.327  0.0342 -0.0762  1.3736
   47DOPE   O21 5955   2.461   1.503   4.391  0.3413 -0.1208 -0.2120
   47DOPE   C21 5956   2.480   1.398   4.473  0.0571 -0.5036 -0.2883
   47DOPE   O22 5957   2.582   1.338   4.480 -0.3287  0.0655 -0.2641
   47DOPE   C22 5958   2.349   1.362   4.551 -0.4775  0.3078 -0.6829
   47DOPE   H2R 5959   2.299   1.294   4.478 -1.0878  0.8507 -0.7803
   47DOPE   H2S 5960   2.291   1.454   4.570  1.2688  2.1033 -3.3841
   47DOPE    C3 5961   2.603   1.699   4.392  0.7278 -0.2630 -0.4411
   47DOPE    HX 5962   2.512   1.762   4.377  0.5326 -0.6424 -0.8538
   47DOPE    HY 5963   2.681   1.763   4.345  2.0538 -0.5466  1.2749
   47DOPE   O31 5964   2.638   1.678   4.529 -0.2583 -0.7713 -0.3020
   47DOPE   C31 5965   2.553   1.709   4.631  0.7989  0.1578  0.1005
   47DOPE   O32 5966   2.436   1.732   4.618 -0.0304 -0.2591  0.3938
   47DOPE   C32 5967   2.627   1.690   4.762  0.3147 -0.1267 -0.0023
   47DOPE   H2X 5968   2.681   1.593   4.763 -0.9641 -0.9154  2.7285
   47DOPE   H2Y 5969   2.710   1.762   4.778 -0.5762  0.5166  2.0413
   47DOPE   C23 5970   2.381   1.281   4.680 -0.0456 -0.1038  0.3831
   47DOPE   H3R 5971   2.471   1.219   4.662  0.4568  0.6227  0.3182
   47DOPE   H3S 5972   2.290   1.223   4.704  0.5999 -0.6716  1.5151
   47DOPE   C24 5973   2.397   1.364   4.807  0.9318  0.3334 -0.4188
   47DOPE   H4R 5974   2.309   1.430   4.828 -0.2079 -1.1351 -0.4411
   47DOPE   H4S 5975   2.493   1.418   4.820  0.1741  1.1781  2.3258
   47DOPE   C25 5976   2.384   1.277   4.933 -0.7111  0.0430 -0.1410
   47DOPE   H5R 5977   2.465   1.201   4.935 -0.4840  0.2632  2.5468
   47DOPE   H5S 5978   2.286   1.225   4.929 -0.4914 -0.4312  0.5331
   47DOPE   C26 5979   2.400   1.350   5.075  0.2712 -0.5663 -0.0855
   47DOPE   H6R 5980   2.319   1.425   5.066  1.2409  0.8847  2.2977
   47DOPE   H6S 5981   2.492   1.408   5.099 -0.9936  0.6965  1.9582
   47DOPE   C27 5982   2.384   1.262   5.195 -0.6450  0.5417 -0.0563
   47DOPE   H7R 5983   2.479   1.209   5.217 -0.7727 -0.3802 -1.5892
   47DOPE   H7S 5984   2.303   1.192   5.165 -1.5302  2.5113 -2.5520
   47DOPE   C28 5985   2.338   1.330   5.329 -0.3213  0.0589  0.7937
   47DOPE   H8R 5986   2.234   1.363   5.308 -0.5073 -0.1552  1.3581
   47DOPE   H8S 5987   2.400   1.420   5.346  0.0945  0.5894 -2.7982
   47DOPE   C29 5988   2.342   1.229   5.447 -0.0994 -0.6856  1.0490
   47DOPE   H9R 5989   2.256   1.163   5.433 -0.8306  0.5875 -0.8362
   47DOPE  C210 5990   2.431   1.216   5.549  0.4155  1.0059 -0.0764
   47DOPE  H10R 5991   2.422   1.133   5.621 -2.0183 -0.7046 -2.1359
   47DOPE  C211 5992   2.557   1.287   5.562  0.3780  0.9469  0.3513
   47DOPE  H11R 5993   2.544   1.351   5.652 -0.6086 -0.8208  1.5584
   47DOPE  H11S 5994   2.576   1.348   5.472  2.5402  1.9399  1.4066
   47DOPE  C212 5995   2.680   1.188   5.575  0.6199  0.0632 -0.2384
   47DOPE  H12R 5996   2.693   1.139   5.674 -0.6124 -1.1122 -0.6331
   47DOPE  H12S 5997   2.766   1.253   5.547  0.7316  0.4456  0.9358
   47DOPE  C213 5998   2.686   1.077   5.466 -0.5530  0.6197  0.3488
   47DOPE  H13R 5999   2.631   1.108   5.375  3.9169  0.0899 -2.9084
   47DOPE  H13S 6000   2.640   0.983   5.503 -1.3995  0.4220 -1.1701
   47DOPE  C214 6001   2.836   1.045   5.430 -0.4609  0.7278 -0.4535
   47DOPE  H14R 6002   2.846   0.943   5.387 -2.4858  0.6588 -0.8930
   47DOPE  H14S 6003   2.900   1.039   5.520  2.1426 -2.2642 -2.2833
   47DOPE  C215 6004   2.898   1.138   5.320 -0.3221 -0.0753 -0.3771
   47DOPE  H15R 6005   2.996   1.100   5.283 -0.0360  0.0849  0.2140
   47DOPE  H15S 6006   2.911   1.237   5.367 -1.3537  0.2154 -0.6784
   47DOPE  C216 6007   2.813   1.156   5.194 -0.1537 -0.4905 -0.1768
   47DOPE  H16R 6008   2.866   1.219   5.120  1.5742 -1.8013 -0.1413
   47DOPE  H16S 6009   2.715   1.198   5.222 -0.5928 -1.0146 -0.9088
   47DOPE  C217 6010   2.776   1.023   5.125  0.2201 -0.0319  0.1228
   47DOPE  H17R 6011   2.706   0.966   5.190  1.5580 -2.9767 -0.8282
   47DOPE  H17S 6012   2.858   0.949   5.112  0.7767  0.3041  1.5234
   47DOPE  C218 6013   2.726   1.059   4.987 -0.3450 -0.1189 -0.2775
   47DOPE  H18R 6014   2.805   1.057   4.908  1.1307 -1.8334  1.1689
   47DOPE  H18S 6015   2.688   1.162   4.970 -1.0919 -0.4171 -0.4275
   47DOPE  H18T 6016   2.649   0.985   4.959 -2.3025  1.1771  1.3825
   47DOPE   C33 6017   2.539   1.690   4.886  0.4138 -0.3448 -0.3369
   47DOPE   H3X 6018   2.474   1.601   4.898  0.6597 -0.5101 -0.2246
   47DOPE   H3Y 6019   2.474   1.780   4.891  1.1994  0.2142 -0.1404
   47DOPE   C34 6020   2.622   1.673   5.020  0.1813 -0.5263  0.2950
   47DOPE   H4X 6021   2.678   1.578   5.033 -0.8768 -0.9439  2.1350
   47DOPE   H4Y 6022   2.693   1.758   5.013 -0.7652  0.1689 -1.7248
   47DOPE   C35 6023   2.533   1.712   5.134  0.7030 -0.2505  0.0994
   47DOPE   H5X 6024   2.450   1.638   5.136  0.4203 -0.0371 -1.8715
   47DOPE   H5Y 6025   2.489   1.813   5.121 -1.2430 -0.8368  1.6352
   47DOPE   C36 6026   2.619   1.717   5.263  0.6637  0.0034  0.9290
   47DOPE   H6X 6027   2.714   1.767   5.235  1.3375 -2.3084 -1.4547
   47DOPE   H6Y 6028   2.649   1.614   5.291  2.5997  0.3397  0.2263
   47DOPE   C37 6029   2.542   1.794   5.364 -0.0488 -0.0149  0.1406
   47DOPE   H7X 6030   2.534   1.902   5.337 -0.5133 -0.0735  0.0295
   47DOPE   H7Y 6031   2.441   1.750   5.378  0.0829 -1.1316 -1.9251
   47DOPE   C38 6032   2.614   1.796   5.502  0.2085 -0.3183 -0.2579
   47DOPE   H8X 6033   2.583   1.882   5.565 -0.7618 -1.5175  0.9584
   47DOPE   H8Y 6034   2.720   1.825   5.489  0.3233 -0.7112 -0.2003
   47DOPE   C39 6035   2.623   1.669   5.582  0.7754  0.1278  0.0106
   47DOPE   H9X 6036   2.619   1.576   5.523 -2.3336 -1.0925  1.8731
   47DOPE  C310 6037   2.626   1.657   5.716 -0.1188  0.0871  0.0276
   47DOPE  H10X 6038   2.648   1.558   5.760 -0.7302  0.7857  2.0510
   47DOPE  C311 6039   2.635   1.769   5.818  0.9652  0.0529 -0.0341
   47DOPE  H11X 6040   2.716   1.753   5.893  2.1578 -0.7971 -1.4574
   47DOPE  H11Y 6041   2.656   1.865   5.766 -1.2682  1.2457  1.1107
   47DOPE  C312 6042   2.506   1.798   5.890  0.7543 -0.0067 -0.2552
   47DOPE  H12X 6043   2.424   1.805   5.816  0.1882  1.1992  0.4505
   47DOPE  H12Y 6044   2.505   1.895   5.945 -1.6543  0.5938 -1.2289
   47DOPE  C313 6045   2.466   1.682   5.981 -0.4149 -0.2821 -0.2350
   47DOPE  H13X 6046   2.462   1.589   5.920  2.1557 -0.9512  0.4781
   47DOPE  H13Y 6047   2.562   1.660   6.034 -0.2994 -0.6620 -0.5886
   47DOPE  C314 6048   2.357   1.708   6.089  0.4465 -0.5406 -0.0472
   47DOPE  H14X 6049   2.269   1.715   6.022 -1.4203 -2.7710  2.0173
   47DOPE  H14Y 6050   2.365   1.809   6.135 -1.5102 -0.2992 -0.1517
   47DOPE  C315 6051   2.347   1.610   6.198 -0.0605  0.0115 -0.3054
   47DOPE  H15X 6052   2.284   1.642   6.284  0.6935 -1.5998  0.8939
   47DOPE  H15Y 6053   2.449   1.591   6.237  0.8935 -0.9570 -3.0377
   47DOPE  C316 6054   2.294   1.473   6.147  0.1936 -0.3661 -0.3477
   47DOPE  H16X 6055   2.361   1.433   6.068  0.0468 -0.0221 -0.6515
   47DOPE  H16Y 6056   2.196   1.481   6.095  1.2382  1.7526 -2.1623
   47DOPE  C317 6057   2.299   1.371   6.266 -0.1860  0.1069 -0.2625
   47DOPE  H17X 6058   2.291   1.265   6.233  0.8299 -1.0671  2.9171
   47DOPE  H17Y 6059   2.396   1.391   6.316 -1.5403  0.4059  2.4411
   47DOPE  C318 6060   2.194   1.407   6.370  0.7425  0.5255 -0.4110
   47DOPE  H18X 6061   2.178   1.340   6.457 -0.2090  1.3566  0.0842
   47DOPE  H18Y 6062   2.226   1.499   6.424 -0.0047  0.6434 -0.1583
   47DOPE  H18Z 6063   2.096   1.422   6.320 -0.1316 -1.5431  0.5605
   48DOPE     N 6064   5.112   1.833   3.239 -0.1424 -0.4532 -0.2710
   48DOPE   HN1 6065   5.199   1.776   3.239  0.2003  0.0573  0.3798
   48DOPE   HN2 6066   5.038   1.803   3.305 -1.1629  0.3242 -1.0178
   48DOPE   HN3 6067   5.068   1.829   3.144 -0.2470 -1.5856 -0.1917
   48DOPE   C12 6068   5.152   1.973   3.282 -0.4009 -0.2340  0.5148
   48DOPE  H12A 6069   5.173   2.032   3.191 -0.8517  0.0208  0.5757
   48DOPE  H12B 6070   5.253   1.958   3.326  0.8136  2.6362 -1.0535
   48DOPE   C11 6071   5.033   2.042   3.356  0.1785 -0.5025  0.0162
   48DOPE  H11A 6072   4.992   1.979   3.438  1.2946  0.7279  1.5868
   48DOPE  H11B 6073   4.948   2.052   3.286 -1.6423  1.5720  2.3418
   48DOPE     P 6074   5.127   2.197   3.543  0.3618 -0.2429 -0.3123
   48DOPE   O13 6075   5.198   2.329   3.528  0.1501  0.0603  0.1509
   48DOPE   O14 6076   5.215   2.085   3.575  0.0457 -0.2938 -0.5397
   48DOPE   O11 6077   5.020   2.219   3.653  0.2619  0.1672 -0.0760
   48DOPE   O12 6078   5.066   2.169   3.407  0.0381  0.1235  0.0383
   48DOPE    C1 6079   4.882   2.174   3.652  0.4211 -0.6820 -0.4114
   48DOPE    HA 6080   4.883   2.064   3.641  2.8216 -0.9855  1.8625
   48DOPE    HB 6081   4.813   2.229   3.584 -0.5046  0.1887  1.1681
   48DOPE    C2 6082   4.825   2.180   3.795 -0.4402  0.5337  0.1076
   48DOPE    HS 6083   4.717   2.154   3.798 -0.5148  0.8708  2.8447
   48DOPE   O21 6084   4.835   2.313   3.850 -0.4444 -0.0183  0.1367
   48DOPE   C21 6085   4.748   2.402   3.795  0.0231  0.3798  0.1362
   48DOPE   O22 6086   4.661   2.370   3.717  0.4870 -0.1563 -0.0089
   48DOPE   C22 6087   4.780   2.538   3.842  0.3007  0.0691 -0.3699
   48DOPE   H2R 6088   4.764   2.609   3.757 -2.0363  0.8890  0.6827
   48DOPE   H2S 6089   4.887   2.539   3.873 -0.0656 -0.0741  0.9436
   48DOPE    C3 6090   4.902   2.080   3.891  0.7336 -0.4464  0.6453
   48DOPE    HX 6091   5.007   2.111   3.913 -0.1751  0.4226  4.5588
   48DOPE    HY 6092   4.889   1.988   3.830 -0.6222  0.6392 -0.7805
   48DOPE   O31 6093   4.834   2.061   4.016  0.6558 -0.2352 -0.8407
   48DOPE   C31 6094   4.897   1.976   4.094  0.3708  0.1851 -0.0699
   48DOPE   O32 6095   4.996   1.912   4.067 -0.1498  0.4394 -0.0020
   48DOPE   C32 6096   4.847   1.983   4.232  0.5024  0.4899 -0.1418
   48DOPE   H2X 6097   4.839   2.093   4.242  0.2906  0.5230 -0.6104
   48DOPE   H2Y 6098   4.741   1.950   4.243  0.9396 -1.4404 -1.1740
   48DOPE   C23 6099   4.704   2.584   3.967  0.6540  0.0095  0.0901
   48DOPE   H3R 6100   4.595   2.567   3.957  0.7000 -0.8122  0.8232
   48DOPE   H3S 6101   4.722   2.693   3.974 -1.1756  0.3252  0.2387
   48DOPE   C24 6102   4.761   2.517   4.095  0.3172  0.0877  0.2879
   48DOPE   H4R 6103   4.869   2.542   4.105  0.0894  1.3057 -0.1388
   48DOPE   H4S 6104   4.749   2.407   4.093  1.1608  0.0032 -0.8068
   48DOPE   C25 6105   4.688   2.569   4.218  0.0755 -0.3352 -0.3239
   48DOPE   H5R 6106   4.584   2.535   4.195  0.1931 -1.2848  0.4535
   48DOPE   H5S 6107   4.687   2.679   4.232 -0.6985 -0.1060 -1.9712
   48DOPE   C26 6108   4.739   2.484   4.337  0.1644  0.2087  0.3014
   48DOPE   H6R 6109   4.847   2.513   4.342 -0.0099  1.6069 -2.1821
   48DOPE   H6S 6110   4.730   2.379   4.303 -0.5861  0.1216  0.7671
   48DOPE   C27 6111   4.674   2.505   4.478 -0.0941  1.0899  0.0047
   48DOPE   H7R 6112   4.563   2.506   4.482 -0.0654  1.4370  3.1530
   48DOPE   H7S 6113   4.714   2.598   4.525  2.0191  0.5681 -0.6734
   48DOPE   C28 6114   4.702   2.391   4.580 -0.2966  0.1729 -0.3095
   48DOPE   H8R 6115   4.810   2.392   4.604 -0.3513  4.1869  0.5145
   48DOPE   H8S 6116   4.672   2.300   4.524  0.7536 -0.3575 -0.0324
   48DOPE   C29 6117   4.617   2.384   4.702  0.3061  0.4250 -0.2556
   48DOPE   H9R 6118   4.511   2.356   4.691  0.6388 -0.2694 -2.1375
   48DOPE  C210 6119   4.665   2.366   4.826  0.0807  0.3489 -0.1736
   48DOPE  H10R 6120   4.605   2.375   4.918 -1.4685 -1.5077 -0.9413
   48DOPE  C211 6121   4.812   2.374   4.869  0.1997 -0.3496  0.1864
   48DOPE  H11R 6122   4.862   2.431   4.788  0.6546 -0.0443  0.6727
   48DOPE  H11S 6123   4.866   2.277   4.857  2.6911  1.2643 -3.4391
   48DOPE  C212 6124   4.839   2.434   5.007  0.5862  0.0282 -0.7588
   48DOPE  H12R 6125   4.780   2.528   5.018  3.5126  1.8416  0.6278
   48DOPE  H12S 6126   4.946   2.462   5.018  0.0210  1.1944  3.1486
   48DOPE  C213 6127   4.798   2.352   5.133 -0.0465  0.2615  0.1642
   48DOPE  H13R 6128   4.877   2.274   5.144  0.9661  0.6595 -3.1916
   48DOPE  H13S 6129   4.701   2.299   5.119  0.3047 -0.6631  1.0400
   48DOPE  C214 6130   4.794   2.450   5.254  0.2260  0.0471 -0.1620
   48DOPE  H14R 6131   4.725   2.532   5.225  0.3308  0.2160  0.0645
   48DOPE  H14S 6132   4.899   2.474   5.279  0.1092 -0.8956  1.3358
   48DOPE  C215 6133   4.737   2.390   5.379 -0.1341 -0.3736 -0.2092
   48DOPE  H15R 6134   4.791   2.299   5.415 -0.1334 -1.0019 -1.7291
   48DOPE  H15S 6135   4.635   2.355   5.354 -1.8788  2.0393  2.8310
   48DOPE  C216 6136   4.749   2.485   5.494 -0.1313 -0.0910 -0.4315
   48DOPE  H16R 6137   4.665   2.455   5.561 -0.6777  0.1638 -0.9908
   48DOPE  H16S 6138   4.733   2.585   5.449  2.6166  0.4050 -0.4504
   48DOPE  C217 6139   4.881   2.471   5.583 -0.2817 -0.4580  0.9378
   48DOPE  H17R 6140   4.971   2.510   5.530 -2.5879  1.7721 -1.6410
   48DOPE  H17S 6141   4.904   2.369   5.621  4.0162 -0.4558 -1.0644
   48DOPE  C218 6142   4.860   2.555   5.710  0.4070 -0.7715  0.0451
   48DOPE  H18R 6143   4.955   2.575   5.765 -0.0777 -0.4688  0.7927
   48DOPE  H18S 6144   4.794   2.501   5.782 -1.5431 -0.6556 -1.5886
   48DOPE  H18T 6145   4.804   2.648   5.685 -0.6761 -1.7187 -1.1778
   48DOPE   C33 6146   4.941   1.924   4.335 -0.1056 -0.5656 -0.3591
   48DOPE   H3X 6147   5.042   1.966   4.316 -1.1236  2.2122 -0.1540
   48DOPE   H3Y 6148   4.951   1.814   4.327  0.5482 -0.7971  2.5424
   48DOPE   C34 6149   4.900   1.968   4.468  1.1468 -0.3188 -0.5122
   48DOPE   H4X 6150   4.881   2.078   4.471 -0.3863 -0.5786  0.3168
   48DOPE   H4Y 6151   4.798   1.935   4.499  1.1698  0.4642  0.4246
   48DOPE   C35 6152   4.997   1.931   4.582 -0.6904 -0.5888 -1.0528
   48DOPE   H5X 6153   5.099   1.974   4.568 -0.3527 -0.8351  0.4550
   48DOPE   H5Y 6154   5.011   1.820   4.579  2.2688 -0.4175  1.4360
   48DOPE   C36 6155   4.943   1.967   4.723  0.0954  1.0332  0.3717
   48DOPE   H6X 6156   4.854   1.911   4.759  1.3461  0.0895  2.1215
   48DOPE   H6Y 6157   4.907   2.072   4.712 -1.8046  0.5312  1.2759
   48DOPE   C37 6158   5.046   1.970   4.836 -0.4044  0.5701 -0.1754
   48DOPE   H7X 6159   5.098   1.872   4.835  0.4665  1.0128  0.5845
   48DOPE   H7Y 6160   5.116   2.050   4.804 -2.8453  2.5856 -0.7607
   48DOPE   C38 6161   4.986   2.015   4.971 -0.7009 -0.2732 -0.3991
   48DOPE   H8X 6162   4.898   1.952   4.997 -3.1015  3.8825  2.7832
   48DOPE   H8Y 6163   4.945   2.118   4.959  2.0638  0.7116 -2.3084
   48DOPE   C39 6164   5.090   2.006   5.085  0.2044  0.1506 -0.4443
   48DOPE   H9X 6165   5.180   2.068   5.075  0.9981 -0.8527  0.2854
   48DOPE  C310 6166   5.075   1.946   5.199 -0.4257 -0.4364  0.0065
   48DOPE  H10X 6167   5.161   1.963   5.266  2.0060 -0.6404 -2.8464
   48DOPE  C311 6168   4.950   1.897   5.259  0.5741  0.5425 -0.7709
   48DOPE  H11X 6169   4.855   1.913   5.202 -0.4711  0.7724  0.9819
   48DOPE  H11Y 6170   4.973   1.790   5.274 -0.8984  0.4602  1.3838
   48DOPE  C312 6171   4.930   1.961   5.401 -0.0398  1.1973  0.1067
   48DOPE  H12X 6172   4.840   1.908   5.438 -0.3749  2.0801  0.5958
   48DOPE  H12Y 6173   4.902   2.069   5.402 -4.0755  0.3653 -1.8033
   48DOPE  C313 6174   5.037   1.928   5.504 -0.1513 -0.3817 -0.6461
   48DOPE  H13X 6175   5.077   1.830   5.471  0.9641 -0.1589 -0.0193
   48DOPE  H13Y 6176   5.115   2.005   5.490 -0.7158  1.0102  2.8899
   48DOPE  C314 6177   4.974   1.916   5.642  0.3478  0.4529 -0.3534
   48DOPE  H14X 6178   4.883   1.853   5.642 -0.2530  1.2524 -2.1357
   48DOPE  H14Y 6179   4.954   2.023   5.665 -0.9965 -0.1494  1.4472
   48DOPE  C315 6180   5.075   1.864   5.739 -0.4206 -0.5260  0.3490
   48DOPE  H15X 6181   5.168   1.925   5.730 -1.1666  0.5282 -0.4451
   48DOPE  H15Y 6182   5.110   1.761   5.717  1.1172  0.4432 -2.3188
   48DOPE  C316 6183   5.039   1.879   5.892  0.3198 -0.0815 -0.0155
   48DOPE  H16X 6184   4.962   1.804   5.919  1.0183 -1.8212 -2.5159
   48DOPE  H16Y 6185   4.989   1.977   5.906 -2.1013 -1.3619  0.9407
   48DOPE  C317 6186   5.165   1.866   5.983  0.3701 -0.2766 -0.0026
   48DOPE  H17X 6187   5.210   1.765   5.973 -1.1175 -1.1546  1.5609
   48DOPE  H17Y 6188   5.244   1.940   5.957 -1.3911  1.7332  0.0090
   48DOPE  C318 6189   5.131   1.892   6.132  0.2912 -0.0717  0.1609
   48DOPE  H18X 6190   5.045   1.828   6.163  0.4971 -0.4590 -0.0624
   48DOPE  H18Y 6191   5.217   1.871   6.199 -0.6442  3.8590  2.9537
   48DOPE  H18Z 6192   5.103   1.998   6.153  1.9113  0.4931 -0.3906
   49DOPE     N 6193   3.347   0.158   4.142  0.1892 -0.2214  0.3446
   49DOPE   HN1 6194   3.400   0.246   4.124 -1.2985  1.5696  3.8433
   49DOPE   HN2 6195   3.386   0.079   4.087  1.6423 -0.0538  1.0780
   49DOPE   HN3 6196   3.257   0.174   4.092 -0.0182  1.9817  1.3219
   49DOPE   C12 6197   3.335   0.143   4.290 -0.3428 -0.2318  0.0670
   49DOPE  H12A 6198   3.436   0.135   4.336 -0.2175  3.5760  0.7562
   49DOPE  H12B 6199   3.288   0.043   4.307  2.0789 -1.5670 -0.6623
   49DOPE   C11 6200   3.247   0.253   4.355 -0.2160  0.6495 -0.6883
   49DOPE  H11A 6201   3.289   0.352   4.327  0.8132  0.5021  0.2334
   49DOPE  H11B 6202   3.262   0.240   4.464 -1.6050 -0.9764 -0.6417
   49DOPE     P 6203   3.009   0.352   4.357 -0.4669 -0.0818 -0.3930
   49DOPE   O13 6204   2.877   0.309   4.311  0.1659 -0.1370  0.3826
   49DOPE   O14 6205   3.060   0.479   4.306 -0.4499 -0.5192 -0.2448
   49DOPE   O11 6206   3.012   0.374   4.514 -0.4061  0.0758  0.0924
   49DOPE   O12 6207   3.115   0.233   4.324  0.4775 -0.0774 -0.0144
   49DOPE    C1 6208   2.934   0.276   4.592  0.7394  0.0570  0.0850
   49DOPE    HA 6209   2.976   0.175   4.576 -0.6037 -0.4065 -0.5604
   49DOPE    HB 6210   2.826   0.272   4.568  0.2829  0.4669  1.9176
   49DOPE    C2 6211   2.946   0.322   4.742  0.4102 -0.1238  0.4716
   49DOPE    HS 6212   2.878   0.258   4.803 -0.9202  0.4373 -0.3653
   49DOPE   O21 6213   2.901   0.460   4.755 -0.3897 -0.0268 -0.2748
   49DOPE   C21 6214   2.774   0.482   4.774 -0.2516  0.0665  0.2187
   49DOPE   O22 6215   2.687   0.400   4.768 -0.0469 -0.0127 -0.5565
   49DOPE   C22 6216   2.759   0.627   4.812 -0.0008 -0.0815  0.1092
   49DOPE   H2R 6217   2.715   0.677   4.723  1.8475 -0.3520 -1.0129
   49DOPE   H2S 6218   2.859   0.673   4.827 -1.0670  2.0282  1.3595
   49DOPE    C3 6219   3.092   0.319   4.787  0.1610  0.0204  0.1272
   49DOPE    HX 6220   3.162   0.384   4.732  2.8829 -3.5033 -0.9723
   49DOPE    HY 6221   3.141   0.222   4.765 -1.4330 -0.7547 -0.1837
   49DOPE   O31 6222   3.098   0.352   4.926 -0.3375 -0.1345  0.1332
   49DOPE   C31 6223   3.079   0.250   5.013  0.1865 -0.0024 -0.2189
   49DOPE   O32 6224   3.067   0.135   4.986  0.0001 -0.5709  0.1543
   49DOPE   C32 6225   3.096   0.304   5.156 -0.0597 -0.3821 -0.0283
   49DOPE   H2X 6226   3.199   0.344   5.168 -0.5167  0.7184  0.3650
   49DOPE   H2Y 6227   3.027   0.390   5.167  2.2372  1.2991  2.8202
   49DOPE   C23 6228   2.670   0.655   4.931 -0.8056  0.3072 -0.0928
   49DOPE   H3R 6229   2.586   0.583   4.920 -0.3151 -0.9993  3.2901
   49DOPE   H3S 6230   2.648   0.763   4.921  1.3618  0.6141 -2.6533
   49DOPE   C24 6231   2.752   0.619   5.062  0.2042  0.0359 -0.7067
   49DOPE   H4R 6232   2.851   0.668   5.071 -0.5072  1.1288  2.4590
   49DOPE   H4S 6233   2.764   0.508   5.059 -1.4992 -0.2569  1.0640
   49DOPE   C25 6234   2.668   0.641   5.186 -0.7632 -0.4375 -0.7600
   49DOPE   H5R 6235   2.585   0.569   5.203 -2.8353  2.0747  0.4786
   49DOPE   H5S 6236   2.625   0.744   5.176  1.5182  0.6251 -0.1568
   49DOPE   C26 6237   2.748   0.632   5.317 -0.3736  0.4837  0.6948
   49DOPE   H6R 6238   2.807   0.725   5.327 -0.5009  1.1645 -3.2921
   49DOPE   H6S 6239   2.819   0.547   5.307  0.1107  1.1242 -2.3438
   49DOPE   C27 6240   2.656   0.621   5.441 -0.3495  0.4823  0.3786
   49DOPE   H7R 6241   2.584   0.540   5.419 -0.2767 -0.0231  1.8962
   49DOPE   H7S 6242   2.615   0.724   5.450  0.5532  1.0134 -1.2201
   49DOPE   C28 6243   2.726   0.585   5.578 -0.6153 -0.0225  0.7744
   49DOPE   H8R 6244   2.740   0.476   5.567 -2.5680 -0.2423  0.1520
   49DOPE   H8S 6245   2.657   0.598   5.663 -1.0646  0.1821  0.3859
   49DOPE   C29 6246   2.865   0.646   5.598 -0.2262 -0.9811 -0.3439
   49DOPE   H9R 6247   2.935   0.627   5.515  0.5398  0.1745  0.0135
   49DOPE  C210 6248   2.905   0.727   5.700 -0.6015  0.5393 -0.0315
   49DOPE  H10R 6249   3.013   0.740   5.717 -0.8898  1.8899  0.9379
   49DOPE  C211 6250   2.818   0.768   5.816 -0.0127  0.2014  0.0163
   49DOPE  H11R 6251   2.734   0.695   5.818  0.6174 -0.5149  0.4850
   49DOPE  H11S 6252   2.793   0.875   5.800  1.4471  0.4262 -0.9405
   49DOPE  C212 6253   2.905   0.771   5.943 -0.4262 -0.4798 -0.1806
   49DOPE  H12R 6254   2.872   0.854   6.009  1.9792  2.3082 -2.1772
   49DOPE  H12S 6255   3.013   0.783   5.921 -0.5242  0.3112 -0.2484
   49DOPE  C213 6256   2.888   0.637   6.026  0.6742 -0.1179  0.6971
   49DOPE  H13R 6257   2.864   0.556   5.954 -0.6005  0.4910  0.3970
   49DOPE  H13S 6258   2.796   0.637   6.089 -0.6046 -2.3194 -1.0268
   49DOPE  C214 6259   2.996   0.614   6.128  0.3561  0.6489 -0.4281
   49DOPE  H14R 6260   3.097   0.590   6.087 -1.0103 -2.4057 -2.2790
   49DOPE  H14S 6261   2.974   0.520   6.182  1.1275  1.6191  1.6849
   49DOPE  C215 6262   3.011   0.725   6.230 -0.4689  1.0925  0.7130
   49DOPE  H15R 6263   3.028   0.823   6.180 -1.2342  1.9496  2.0776
   49DOPE  H15S 6264   3.101   0.711   6.294  1.0326  2.7903 -0.8927
   49DOPE  C216 6265   2.891   0.744   6.317 -0.5312  0.0481 -0.3617
   49DOPE  H16R 6266   2.869   0.644   6.361  0.9020 -0.8694 -1.6342
   49DOPE  H16S 6267   2.797   0.775   6.267 -2.2628 -1.8100  1.5512
   49DOPE  C217 6268   2.912   0.850   6.439 -0.3969  0.0112  0.3820
   49DOPE  H17R 6269   2.830   0.859   6.514 -0.2177 -1.0992  0.7434
   49DOPE  H17S 6270   2.916   0.947   6.385 -1.7361  0.6260  1.3270
   49DOPE  C218 6271   3.039   0.838   6.517 -0.1245 -0.0741 -0.6165
   49DOPE  H18R 6272   3.029   0.866   6.624  1.2899 -1.2371 -0.1521
   49DOPE  H18S 6273   3.129   0.874   6.463  2.5289 -1.9023  2.2359
   49DOPE  H18T 6274   3.068   0.732   6.534  0.3867 -0.0186 -1.1520
   49DOPE   C33 6275   3.072   0.206   5.272 -0.4947  0.0558  0.4988
   49DOPE   H3X 6276   3.141   0.121   5.251  2.5179  2.5004 -0.2478
   49DOPE   H3Y 6277   2.969   0.165   5.269  0.1749 -1.6595 -1.3056
   49DOPE   C34 6278   3.115   0.258   5.408  0.2341 -0.0289 -0.2125
   49DOPE   H4X 6279   3.224   0.280   5.416  0.0090  0.5183  1.9310
   49DOPE   H4Y 6280   3.059   0.354   5.414  0.2048 -0.0126 -0.6843
   49DOPE   C35 6281   3.101   0.152   5.517  0.1441  0.5630 -0.7716
   49DOPE   H5X 6282   3.169   0.066   5.501  0.6853  0.9825 -0.7721
   49DOPE   H5Y 6283   3.001   0.105   5.501  0.3576 -0.3803  0.5840
   49DOPE   C36 6284   3.133   0.203   5.662  0.2202 -0.2109 -0.2715
   49DOPE   H6X 6285   3.243   0.219   5.661  0.4196 -0.2777  3.9205
   49DOPE   H6Y 6286   3.105   0.124   5.735 -0.9112  1.1770  0.8508
   49DOPE   C37 6287   3.060   0.336   5.697 -0.7430  0.6683 -0.1559
   49DOPE   H7X 6288   3.103   0.412   5.629  4.0747 -0.7760  0.8570
   49DOPE   H7Y 6289   2.951   0.326   5.676 -0.4900  0.5217 -1.4674
   49DOPE   C38 6290   3.080   0.372   5.848  0.2750 -0.5553 -0.3298
   49DOPE   H8X 6291   3.026   0.296   5.909  0.6879  0.1919  1.0202
   49DOPE   H8Y 6292   3.034   0.473   5.853 -0.2608 -0.7601 -1.0455
   49DOPE   C39 6293   3.230   0.393   5.884  0.0235  0.1482  0.1690
   49DOPE   H9X 6294   3.279   0.463   5.814  1.5848 -1.7893 -0.7621
   49DOPE  C310 6295   3.307   0.328   5.968 -0.0723 -0.4371 -0.2066
   49DOPE  H10X 6296   3.414   0.352   5.984  1.0243 -4.7545  0.3573
   49DOPE  C311 6297   3.277   0.217   6.055  0.1937 -0.2156  0.1371
   49DOPE  H11X 6298   3.167   0.198   6.052 -0.1314  1.5822 -0.9655
   49DOPE  H11Y 6299   3.323   0.124   6.016 -3.3269 -1.0566 -2.5463
   49DOPE  C312 6300   3.334   0.231   6.202  0.0780 -0.2019 -0.0269
   49DOPE  H12X 6301   3.444   0.231   6.187  0.6021  0.8603  3.0825
   49DOPE  H12Y 6302   3.297   0.140   6.253  2.9365 -1.4595 -0.0457
   49DOPE  C313 6303   3.278   0.350   6.283 -0.4884 -0.3938  0.4469
   49DOPE  H13X 6304   3.326   0.437   6.232  1.4352 -1.8236 -0.3399
   49DOPE  H13Y 6305   3.167   0.356   6.288 -0.4281  0.2014  1.2069
   49DOPE  C314 6306   3.323   0.359   6.429  0.0478  0.5999 -0.3389
   49DOPE  H14X 6307   3.295   0.462   6.462  0.9255  0.6210  0.3660
   49DOPE  H14Y 6308   3.434   0.351   6.428 -0.0256 -1.5601  1.1550
   49DOPE  C315 6309   3.266   0.259   6.532  0.0173  0.0365 -0.3857
   49DOPE  H15X 6310   3.282   0.153   6.501  0.1409  0.2708 -1.1546
   49DOPE  H15Y 6311   3.155   0.266   6.535  0.1201  1.4585  0.6927
   49DOPE  C316 6312   3.316   0.277   6.673 -0.1907  0.0541  0.5474
   49DOPE  H16X 6313   3.278   0.200   6.744  2.0703 -0.7430  0.9741
   49DOPE  H16Y 6314   3.277   0.375   6.706  1.5469  0.1363  2.5788
   49DOPE  C317 6315   3.471   0.287   6.688 -0.4091 -0.1691  0.6367
   49DOPE  H17X 6316   3.525   0.207   6.634 -2.6969 -0.6967 -1.0319
   49DOPE  H17Y 6317   3.507   0.376   6.631  1.5094 -1.7180 -0.6888
   49DOPE  C318 6318   3.530   0.301   6.830 -0.3804 -0.6712  0.4374
   49DOPE  H18X 6319   3.556   0.204   6.878 -0.0483 -0.8482 -0.0818
   49DOPE  H18Y 6320   3.634   0.339   6.820 -0.5253 -0.6568 -1.3111
   49DOPE  H18Z 6321   3.465   0.368   6.890 -0.9688 -0.0011 -0.8859
   50DOPE     N 6322   6.456   6.541   3.847  0.5193 -0.4376  0.2216
   50DOPE   HN1 6323   6.547   6.573   3.809  0.1450  2.2295  1.3135
   50DOPE   HN2 6324   6.416   6.467   3.786  0.8213  1.8091 -2.9670
   50DOPE   HN3 6325   6.375   6.607   3.846 -0.0490 -1.0876  1.5255
   50DOPE   C12 6326   6.472   6.485   3.990 -0.1993  0.0181  0.2516
   50DOPE  H12A 6327   6.367   6.466   4.022 -0.5292 -0.0690 -0.8173
   50DOPE  H12B 6328   6.527   6.558   4.052 -0.1913  2.4784 -2.4172
   50DOPE   C11 6329   6.551   6.351   3.987  0.2341  0.7164 -0.0208
   50DOPE  H11A 6330   6.573   6.307   4.086  2.5688 -1.0375 -1.2059
   50DOPE  H11B 6331   6.652   6.377   3.948 -0.3511 -0.7424 -2.7182
   50DOPE     P 6332   6.583   6.136   3.850 -0.1008  0.3907  0.0682
   50DOPE   O13 6333   6.698   6.185   3.772 -0.4547 -0.5906 -0.1682
   50DOPE   O14 6334   6.504   6.035   3.776  0.4427 -0.2549  0.1427
   50DOPE   O11 6335   6.643   6.059   3.979  0.5730 -0.1128  0.3662
   50DOPE   O12 6336   6.491   6.251   3.903 -0.1563  0.0264  0.4734
   50DOPE    C1 6337   6.563   5.973   4.064 -0.4429 -0.3559  0.6561
   50DOPE    HA 6338   6.561   5.867   4.032 -0.9622 -0.5825  1.4033
   50DOPE    HB 6339   6.460   6.014   4.066  0.0290  0.8922  0.7281
   50DOPE    C2 6340   6.611   5.976   4.208 -0.6035 -0.0244  0.6250
   50DOPE    HS 6341   6.603   5.875   4.254 -1.8933 -0.2006  0.0493
   50DOPE   O21 6342   6.543   6.069   4.285 -0.4158  0.6086 -0.4193
   50DOPE   C21 6343   6.430   6.027   4.338 -0.3981 -0.2303 -0.0100
   50DOPE   O22 6344   6.386   5.910   4.339  0.1062 -0.6892  0.0909
   50DOPE   C22 6345   6.356   6.137   4.420 -0.2925  0.3915  0.9916
   50DOPE   H2R 6346   6.289   6.185   4.345 -0.9672 -1.7195  0.1896
   50DOPE   H2S 6347   6.431   6.206   4.465  0.2139  0.2571  0.3704
   50DOPE    C3 6348   6.766   6.006   4.210 -0.5286  0.0122  0.0298
   50DOPE    HX 6349   6.788   6.102   4.159 -0.4746  0.2214  0.4393
   50DOPE    HY 6350   6.798   5.932   4.134 -0.2086 -0.2706  0.4325
   50DOPE   O31 6351   6.823   5.991   4.345 -0.2608  0.3082 -0.6750
   50DOPE   C31 6352   6.848   6.099   4.410 -0.3984 -0.5513 -0.1029
   50DOPE   O32 6353   6.823   6.217   4.383 -0.5830  0.0759  0.2573
   50DOPE   C32 6354   6.908   6.059   4.542  0.2750 -0.0768 -0.9120
   50DOPE   H2X 6355   6.886   5.954   4.570  0.2788  0.5204  1.5923
   50DOPE   H2Y 6356   7.018   6.068   4.529  0.4698 -0.5094  0.3008
   50DOPE   C23 6357   6.278   6.071   4.532  0.3081 -0.1018 -0.8290
   50DOPE   H3R 6358   6.323   5.974   4.564  0.2312 -0.0693 -0.6213
   50DOPE   H3S 6359   6.173   6.044   4.507  0.2355  0.8726 -1.6176
   50DOPE   C24 6360   6.275   6.159   4.655  0.2995  0.3274 -0.1532
   50DOPE   H4R 6361   6.227   6.255   4.623  1.9471  0.8581 -1.1806
   50DOPE   H4S 6362   6.378   6.181   4.689  0.2009 -0.0551  0.3967
   50DOPE   C25 6363   6.200   6.102   4.773  0.4749  0.4397  0.1312
   50DOPE   H5R 6364   6.265   6.030   4.827  1.9741  2.3810  1.0365
   50DOPE   H5S 6365   6.103   6.054   4.748  0.2122  0.4644  1.0561
   50DOPE   C26 6366   6.164   6.213   4.881  0.3564 -0.0043  0.1728
   50DOPE   H6R 6367   6.110   6.289   4.820 -0.4722  0.3190  1.2700
   50DOPE   H6S 6368   6.255   6.249   4.933 -0.5542 -0.2846  2.0176
   50DOPE   C27 6369   6.055   6.159   4.984  0.0547  0.1580  0.2893
   50DOPE   H7R 6370   6.095   6.064   5.025  0.1102 -1.0498 -2.3586
   50DOPE   H7S 6371   5.962   6.141   4.926  0.8582 -0.5561 -0.8119
   50DOPE   C28 6372   6.026   6.263   5.095 -1.0733  0.1989  0.2897
   50DOPE   H8R 6373   5.962   6.213   5.171  1.1551  0.4705  2.4386
   50DOPE   H8S 6374   5.962   6.331   5.034 -0.5938  1.6010  1.3180
   50DOPE   C29 6375   6.136   6.344   5.160  0.1224 -0.0479  1.3612
   50DOPE   H9R 6376   6.202   6.390   5.085 -0.5976 -1.4434 -0.2096
   50DOPE  C210 6377   6.156   6.365   5.296  0.0491  0.2117  0.0216
   50DOPE  H10R 6378   6.227   6.441   5.331 -1.5242  0.9822  1.6822
   50DOPE  C211 6379   6.053   6.318   5.391  0.1233  0.1920  0.5497
   50DOPE  H11R 6380   6.073   6.211   5.414 -1.8377 -0.4424 -0.4669
   50DOPE  H11S 6381   5.945   6.313   5.364  0.5609 -1.2552 -1.1415
   50DOPE  C212 6382   6.048   6.394   5.525  0.5187  0.2273  0.2391
   50DOPE  H12R 6383   6.032   6.503   5.515 -1.7476 -0.1549 -0.9795
   50DOPE  H12S 6384   6.149   6.379   5.570 -0.5024  0.2066  2.6740
   50DOPE  C213 6385   5.945   6.331   5.621  0.9829  0.4664 -0.2173
   50DOPE  H13R 6386   5.949   6.220   5.627  0.6931  0.3798 -1.3641
   50DOPE  H13S 6387   5.848   6.340   5.567  0.1412 -0.3257  1.0950
   50DOPE  C214 6388   5.930   6.399   5.757 -0.1889  0.1622 -0.5565
   50DOPE  H14R 6389   5.907   6.505   5.734 -0.5183 -0.0008 -0.9916
   50DOPE  H14S 6390   6.023   6.404   5.819 -1.1045  0.6105  0.8243
   50DOPE  C215 6391   5.826   6.329   5.842  0.2088  0.1735  0.4689
   50DOPE  H15R 6392   5.856   6.224   5.862 -0.3457  0.2012  1.5192
   50DOPE  H15S 6393   5.731   6.326   5.785 -0.1015  0.0826  0.9887
   50DOPE  C216 6394   5.795   6.396   5.974  0.3339 -0.4052 -0.0541
   50DOPE  H16R 6395   5.891   6.403   6.031  0.9155 -0.6342 -0.9829
   50DOPE  H16S 6396   5.721   6.329   6.023  1.0658 -1.2117 -0.0139
   50DOPE  C217 6397   5.723   6.533   5.948 -0.3087  0.2117  0.2437
   50DOPE  H17R 6398   5.647   6.513   5.869  0.2320  2.5852 -0.9547
   50DOPE  H17S 6399   5.794   6.601   5.897  0.1460 -0.1221  0.4181
   50DOPE  C218 6400   5.662   6.621   6.059 -0.1111 -0.5928  0.0775
   50DOPE  H18R 6401   5.636   6.552   6.143  0.1300 -0.3189  0.3813
   50DOPE  H18S 6402   5.580   6.687   6.022 -0.1931 -0.3728  0.6367
   50DOPE  H18T 6403   5.743   6.688   6.095 -0.8182  0.0313  0.5417
   50DOPE   C33 6404   6.863   6.156   4.659  0.3169 -0.5758 -0.2784
   50DOPE   H3X 6405   6.840   6.258   4.622  0.1334 -0.6450 -0.3539
   50DOPE   H3Y 6406   6.947   6.178   4.728 -0.5951 -3.1276  1.8014
   50DOPE   C34 6407   6.747   6.108   4.732 -0.7642 -0.7120 -0.4986
   50DOPE   H4X 6408   6.655   6.073   4.680 -1.1579 -1.1388  0.4462
   50DOPE   H4Y 6409   6.774   6.016   4.789 -1.4202  0.3118  1.6046
   50DOPE   C35 6410   6.706   6.205   4.843  0.8526  0.0309 -0.2367
   50DOPE   H5X 6411   6.653   6.293   4.801  2.4671  0.5835 -1.1974
   50DOPE   H5Y 6412   6.795   6.241   4.900  1.0794  0.2226 -0.7078
   50DOPE   C36 6413   6.610   6.142   4.949 -0.3681  0.0859  1.0621
   50DOPE   H6X 6414   6.670   6.065   5.002  0.3157 -0.7840 -0.8869
   50DOPE   H6Y 6415   6.527   6.100   4.888 -1.0429  0.3795  1.7566
   50DOPE   C37 6416   6.538   6.244   5.034  0.0392  0.3057  0.4876
   50DOPE   H7X 6417   6.500   6.322   4.964  0.9095  1.0320  0.7949
   50DOPE   H7Y 6418   6.460   6.187   5.089  1.2642 -1.4942  0.4328
   50DOPE   C38 6419   6.629   6.325   5.129  0.4410 -0.1880  0.5623
   50DOPE   H8X 6420   6.571   6.409   5.172  2.1528  2.1956 -1.5068
   50DOPE   H8Y 6421   6.708   6.370   5.065 -0.9335  1.7127  0.1333
   50DOPE   C39 6422   6.681   6.235   5.240 -0.5917 -0.3514 -0.2481
   50DOPE   H9X 6423   6.732   6.140   5.220  0.3633  0.2593 -0.7582
   50DOPE  C310 6424   6.669   6.264   5.371  0.7683  0.0422  0.1562
   50DOPE  H10X 6425   6.708   6.189   5.442 -2.2584 -1.7447  0.1382
   50DOPE  C311 6426   6.633   6.401   5.433 -0.6953 -0.1641  0.7603
   50DOPE  H11X 6427   6.724   6.465   5.428 -0.0631 -1.1073 -0.6150
   50DOPE  H11Y 6428   6.560   6.452   5.367 -0.1232  1.6957  1.5012
   50DOPE  C312 6429   6.573   6.399   5.576 -0.3946 -0.2819  0.4945
   50DOPE  H12X 6430   6.481   6.340   5.594  0.4694 -1.7394  0.2822
   50DOPE  H12Y 6431   6.542   6.505   5.590 -0.4113 -0.1367 -0.5482
   50DOPE  C313 6432   6.678   6.366   5.686 -0.5234 -0.5843 -0.0285
   50DOPE  H13X 6433   6.712   6.263   5.664 -1.0293 -0.7785  0.1024
   50DOPE  H13Y 6434   6.765   6.435   5.676 -0.9516  0.2043  1.4401
   50DOPE  C314 6435   6.631   6.390   5.827  0.1185 -0.2998  0.1460
   50DOPE  H14X 6436   6.532   6.344   5.851  0.2949 -0.6372  0.2315
   50DOPE  H14Y 6437   6.617   6.500   5.838  1.2296  0.0001 -1.1586
   50DOPE  C315 6438   6.729   6.331   5.928  0.3685 -0.0052  0.2160
   50DOPE  H15X 6439   6.813   6.405   5.924 -1.2479  1.9207  0.3817
   50DOPE  H15Y 6440   6.762   6.243   5.868  0.3158  0.2721 -0.2250
   50DOPE  C316 6441   6.676   6.304   6.067 -0.1510 -0.2547 -0.4001
   50DOPE  H16X 6442   6.751   6.261   6.137  0.0885  0.8768  0.0661
   50DOPE  H16Y 6443   6.582   6.246   6.069 -0.2516 -0.2726 -2.8452
   50DOPE  C317 6444   6.640   6.439   6.144 -0.1549  0.2434 -0.1148
   50DOPE  H17X 6445   6.540   6.475   6.110  0.5060  1.5734 -0.7069
   50DOPE  H17Y 6446   6.640   6.407   6.251  2.4269 -0.1436 -0.1843
   50DOPE  C318 6447   6.732   6.561   6.139 -0.1911 -0.5608  0.4703
   50DOPE  H18X 6448   6.727   6.617   6.043 -1.1332 -2.0369 -0.3661
   50DOPE  H18Y 6449   6.707   6.647   6.205 -1.3024 -0.0207 -0.6032
   50DOPE  H18Z 6450   6.834   6.519   6.149  0.2468 -0.1157 -1.5783
   51DOPE     N 6451   2.034   2.684   3.793 -0.2774  0.4015  0.1759
   51DOPE   HN1 6452   2.090   2.769   3.815  0.6934 -0.2574  0.2889
   51DOPE   HN2 6453   1.934   2.696   3.820 -1.0333 -0.7042 -1.9146
   51DOPE   HN3 6454   2.083   2.606   3.840  0.0541  1.5409  1.7986
   51DOPE   C12 6455   2.038   2.652   3.644  0.1650 -0.1547 -0.1164
   51DOPE  H12A 6456   2.145   2.635   3.620 -0.2762  0.0818 -2.4767
   51DOPE  H12B 6457   2.011   2.745   3.590  0.8472  0.1419  0.0429
   51DOPE   C11 6458   1.944   2.539   3.612 -0.2399  0.1691  0.4755
   51DOPE  H11A 6459   1.955   2.513   3.504  1.8483 -0.7087  0.8655
   51DOPE  H11B 6460   1.839   2.567   3.635 -0.6557  0.2796 -1.3725
   51DOPE     P 6461   1.915   2.303   3.726 -0.3228  0.4511  0.2531
   51DOPE   O13 6462   1.996   2.196   3.665 -0.3973  0.2793  0.1637
   51DOPE   O14 6463   1.773   2.316   3.688  0.5382 -0.2697  0.1653
   51DOPE   O11 6464   1.940   2.284   3.885 -0.5453  0.4440  0.1957
   51DOPE   O12 6465   1.990   2.437   3.700  0.0506 -0.0445 -0.2810
   51DOPE    C1 6466   1.960   2.386   3.975 -0.2869 -0.2445  0.4739
   51DOPE    HA 6467   1.890   2.472   3.960 -0.1433  0.0361  1.3716
   51DOPE    HB 6468   2.062   2.429   3.962 -0.6560  0.0067 -2.3654
   51DOPE    C2 6469   1.941   2.337   4.118 -0.3369  0.0645  0.1381
   51DOPE    HS 6470   2.014   2.254   4.128 -0.6451 -0.0408  1.6558
   51DOPE   O21 6471   1.808   2.279   4.130 -0.4988 -0.2338 -0.4039
   51DOPE   C21 6472   1.796   2.158   4.193  0.0370  0.4083 -0.1188
   51DOPE   O22 6473   1.895   2.087   4.216  0.2523  0.2444 -0.6597
   51DOPE   C22 6474   1.652   2.131   4.231 -0.1879  0.2457 -0.1049
   51DOPE   H2R 6475   1.642   2.022   4.251 -0.4009 -0.1766 -2.2711
   51DOPE   H2S 6476   1.593   2.179   4.150  4.0956  0.6283 -3.3739
   51DOPE    C3 6477   1.967   2.447   4.227  0.0577  0.4526  0.0944
   51DOPE    HX 6478   1.894   2.530   4.219 -0.3353  0.0546 -0.5820
   51DOPE    HY 6479   2.067   2.492   4.208 -0.1857  0.8917 -0.1525
   51DOPE   O31 6480   1.952   2.378   4.355  0.1926 -0.0061  0.0992
   51DOPE   C31 6481   2.055   2.313   4.402  0.0186  0.1654  0.3765
   51DOPE   O32 6482   2.166   2.317   4.352 -0.1362  0.3336  0.0188
   51DOPE   C32 6483   2.021   2.236   4.531  0.0965 -0.8047  0.6717
   51DOPE   H2X 6484   1.949   2.301   4.585 -0.9573 -1.9819  0.7360
   51DOPE   H2Y 6485   1.970   2.143   4.498  0.1440 -1.2171  1.7163
   51DOPE   C23 6486   1.605   2.200   4.360 -0.0789  0.4427 -0.0020
   51DOPE   H3R 6487   1.494   2.207   4.362 -0.4426 -2.3474 -2.3322
   51DOPE   H3S 6488   1.648   2.302   4.359  0.3603  0.2683 -0.9030
   51DOPE   C24 6489   1.645   2.132   4.487  0.6912 -0.4431 -0.6068
   51DOPE   H4R 6490   1.742   2.080   4.475 -0.5816 -2.7835 -1.5767
   51DOPE   H4S 6491   1.576   2.049   4.516  2.2153 -0.7833  2.3905
   51DOPE   C25 6492   1.634   2.221   4.609 -0.5446 -0.0328  0.5002
   51DOPE   H5R 6493   1.530   2.255   4.630 -0.0235  0.9814  1.5216
   51DOPE   H5S 6494   1.693   2.314   4.595 -2.5087  1.0749 -0.9270
   51DOPE   C26 6495   1.673   2.160   4.738  0.5592  0.5482 -0.2753
   51DOPE   H6R 6496   1.759   2.092   4.721  0.8687  1.3961 -2.3617
   51DOPE   H6S 6497   1.586   2.102   4.774  1.8846 -1.6126 -0.4030
   51DOPE   C27 6498   1.704   2.271   4.844  0.6938  0.5614 -0.2182
   51DOPE   H7R 6499   1.609   2.327   4.850  0.6018  0.4330 -0.4562
   51DOPE   H7S 6500   1.776   2.346   4.806 -0.2056  0.8993 -1.3257
   51DOPE   C28 6501   1.744   2.215   4.980 -0.2750 -0.0860 -0.0594
   51DOPE   H8R 6502   1.777   2.298   5.047 -1.7380  0.0201  0.5730
   51DOPE   H8S 6503   1.828   2.149   4.951  0.5832  0.3643  1.3278
   51DOPE   C29 6504   1.646   2.128   5.050  0.2352  0.0775 -0.1844
   51DOPE   H9R 6505   1.546   2.129   5.003  0.1644 -0.1034 -0.0416
   51DOPE  C210 6506   1.667   2.064   5.167 -0.6058 -0.4345  0.0612
   51DOPE  H10R 6507   1.581   2.007   5.206 -0.8583  0.7637  1.3633
   51DOPE  C211 6508   1.797   2.069   5.245 -1.0736 -0.2126  0.1157
   51DOPE  H11R 6509   1.857   2.160   5.223 -1.2827 -0.4486 -1.5402
   51DOPE  H11S 6510   1.856   1.983   5.208  0.7867  2.0836 -2.7101
   51DOPE  C212 6511   1.764   2.069   5.396 -0.1028  0.5665  0.1754
   51DOPE  H12R 6512   1.694   1.986   5.421 -0.0484  0.7795  1.0837
   51DOPE  H12S 6513   1.718   2.169   5.418  2.2143  2.1023 -1.5489
   51DOPE  C213 6514   1.887   2.061   5.486 -0.5986  0.3959  0.6325
   51DOPE  H13R 6515   1.962   2.142   5.472  1.2341 -0.8336  2.6802
   51DOPE  H13S 6516   1.941   1.964   5.477  0.3833  0.8379  1.5196
   51DOPE  C214 6517   1.848   2.066   5.638  0.9418 -0.1568  0.9120
   51DOPE  H14R 6518   1.917   2.008   5.702  0.5252 -1.5709  0.1294
   51DOPE  H14S 6519   1.755   2.005   5.630  1.4701 -0.7637 -3.6690
   51DOPE  C215 6520   1.829   2.210   5.696 -0.3994  0.2613  0.4402
   51DOPE  H15R 6521   1.745   2.254   5.639  2.3289  1.3449 -3.1096
   51DOPE  H15S 6522   1.921   2.269   5.673 -0.2781 -0.4990 -1.1379
   51DOPE  C216 6523   1.822   2.202   5.848 -0.4754 -0.1170 -0.0212
   51DOPE  H16R 6524   1.915   2.165   5.895 -1.5863 -1.7472  1.0117
   51DOPE  H16S 6525   1.748   2.126   5.882 -0.4189 -0.1479  0.0333
   51DOPE  C217 6526   1.789   2.337   5.920 -0.3796  0.8918  0.3421
   51DOPE  H17R 6527   1.735   2.303   6.011  2.8786 -2.1413  1.3537
   51DOPE  H17S 6528   1.725   2.402   5.856  1.0803  1.1773 -0.8714
   51DOPE  C218 6529   1.919   2.413   5.961  0.1281  0.5383  0.2933
   51DOPE  H18R 6530   1.974   2.336   6.021  2.2950 -0.0718 -2.2896
   51DOPE  H18S 6531   1.902   2.510   6.013  2.0713  0.9683  0.1884
   51DOPE  H18T 6532   1.981   2.433   5.871  0.0046  1.9016  0.4933
   51DOPE   C33 6533   2.139   2.214   4.629  0.0258 -0.4919  0.0042
   51DOPE   H3X 6534   2.216   2.294   4.621 -2.2544  1.9391  0.6330
   51DOPE   H3Y 6535   2.198   2.124   4.602  0.2548 -0.0960 -0.8515
   51DOPE   C34 6536   2.088   2.201   4.770  0.2049  0.4387 -0.7984
   51DOPE   H4X 6537   2.054   2.295   4.818  1.4639 -0.9857  3.2863
   51DOPE   H4Y 6538   2.006   2.126   4.778  1.2084 -0.4729  1.5671
   51DOPE   C35 6539   2.198   2.145   4.864 -0.3876  0.2211  1.2774
   51DOPE   H5X 6540   2.268   2.230   4.873  0.4430 -0.6286  3.8775
   51DOPE   H5Y 6541   2.257   2.068   4.809  1.9136  1.6150  1.6641
   51DOPE   C36 6542   2.146   2.120   5.003 -0.0604 -0.5639 -0.4800
   51DOPE   H6X 6543   2.076   2.036   5.020  0.0863 -0.6104 -0.1042
   51DOPE   H6Y 6544   2.092   2.214   5.031  1.3455  0.5498 -1.3524
   51DOPE   C37 6545   2.261   2.099   5.102  0.2429  0.0854  0.3827
   51DOPE   H7X 6546   2.317   2.005   5.084  1.9707  0.6165  2.5974
   51DOPE   H7Y 6547   2.334   2.179   5.074 -1.4336  0.5685 -3.3009
   51DOPE   C38 6548   2.214   2.100   5.250 -0.3865 -0.1301  0.0576
   51DOPE   H8X 6549   2.294   2.044   5.303 -0.2009  1.2902  1.3411
   51DOPE   H8Y 6550   2.128   2.030   5.252  0.9760 -1.8637  0.8883
   51DOPE   C39 6551   2.177   2.232   5.325  0.8471 -0.5832  0.9164
   51DOPE   H9X 6552   2.078   2.262   5.289  1.5831  0.6495 -0.1713
   51DOPE  C310 6553   2.243   2.295   5.418 -0.2270 -0.6836 -0.2422
   51DOPE  H10X 6554   2.216   2.394   5.458  2.9333  1.4555 -2.9640
   51DOPE  C311 6555   2.375   2.241   5.477 -0.1309  0.3500  0.5443
   51DOPE  H11X 6556   2.432   2.180   5.404 -0.0695  2.5104 -1.3066
   51DOPE  H11Y 6557   2.447   2.319   5.512  0.0356  0.4893 -0.1046
   51DOPE  C312 6558   2.347   2.150   5.600  0.1806 -0.3461  0.4559
   51DOPE  H12X 6559   2.438   2.087   5.611  0.9348  0.8367  1.2481
   51DOPE  H12Y 6560   2.270   2.075   5.572  2.3584 -2.7118  0.4618
   51DOPE  C313 6561   2.309   2.221   5.728 -0.1094  0.0991 -0.3358
   51DOPE  H13X 6562   2.385   2.294   5.761  0.9997 -2.1100  2.4873
   51DOPE  H13Y 6563   2.212   2.273   5.710 -1.5772 -2.3273 -0.0187
   51DOPE  C314 6564   2.288   2.127   5.849  0.2203 -0.2584 -0.2075
   51DOPE  H14X 6565   2.381   2.073   5.878 -0.7494 -2.5048 -1.0971
   51DOPE  H14Y 6566   2.213   2.049   5.825  0.2038 -0.5652  0.7970
   51DOPE  C315 6567   2.231   2.210   5.974 -0.6100 -0.2102  0.2594
   51DOPE  H15X 6568   2.133   2.247   5.937 -0.7205 -1.3878 -0.6574
   51DOPE  H15Y 6569   2.299   2.298   5.979  0.2444 -0.8359 -0.1282
   51DOPE  C316 6570   2.214   2.132   6.106 -0.0667  0.4186 -0.5963
   51DOPE  H16X 6571   2.177   2.034   6.071  0.7115 -0.3089  0.5560
   51DOPE  H16Y 6572   2.144   2.180   6.178  0.1032 -0.4717  0.1883
   51DOPE  C317 6573   2.351   2.114   6.167 -0.0655  0.1630 -0.0220
   51DOPE  H17X 6574   2.332   2.058   6.261 -0.7209  0.1466 -0.1557
   51DOPE  H17Y 6575   2.421   2.051   6.108  1.0411  0.6688  0.7137
   51DOPE  C318 6576   2.420   2.241   6.209 -0.0703 -0.3616  0.0566
   51DOPE  H18X 6577   2.356   2.311   6.267 -0.2460 -0.7970  0.3899
   51DOPE  H18Y 6578   2.505   2.217   6.277  0.7124  0.6105 -0.5439
   51DOPE  H18Z 6579   2.456   2.302   6.123  2.0306  1.4883  2.0843
   52DOPE     N 6580   0.117   3.921   3.640 -0.5507  0.7605  0.6111
   52DOPE   HN1 6581   0.030   3.974   3.619 -2.8101 -2.6679  0.3821
   52DOPE   HN2 6582   0.182   3.919   3.559  0.7269  0.3810  1.6317
   52DOPE   HN3 6583   0.073   3.827   3.647 -0.6576  0.6064 -1.5187
   52DOPE   C12 6584   0.195   3.960   3.765  0.1906 -0.0588  0.4742
   52DOPE  H12A 6585   0.262   4.040   3.726 -1.5559  0.2320 -2.2272
   52DOPE  H12B 6586   0.245   3.869   3.805  1.8725 -0.2456 -1.7963
   52DOPE   C11 6587   0.107   4.020   3.869 -0.0481 -0.0737 -0.2884
   52DOPE  H11A 6588   0.181   4.038   3.950  2.1411  0.8277 -2.3783
   52DOPE  H11B 6589   0.033   3.940   3.890  0.6503 -0.7234 -0.2120
   52DOPE     P 6590   0.083   4.276   3.864  0.0707 -0.0579 -0.1650
   52DOPE   O13 6591   0.016   4.372   3.769  0.1007 -0.0182  0.2223
   52DOPE   O14 6592   0.228   4.290   3.895  0.5150 -0.4563 -1.0104
   52DOPE   O11 6593   0.009   4.282   4.002  0.5691 -0.1896  0.2909
   52DOPE   O12 6594   0.048   4.137   3.810 -0.9968 -0.3535 -0.1086
   52DOPE    C1 6595  -0.135   4.272   4.003  0.4991 -0.2700  0.1755
   52DOPE    HA 6596  -0.155   4.164   3.984  0.5547 -0.3132  0.3629
   52DOPE    HB 6597  -0.191   4.335   3.931 -1.5883  0.2543  2.1226
   52DOPE    C2 6598  -0.183   4.315   4.149 -0.2239 -0.3652 -0.4311
   52DOPE    HS 6599  -0.286   4.274   4.156 -1.1188  1.6548 -1.0996
   52DOPE   O21 6600  -0.177   4.458   4.157  0.5209 -0.0278 -0.2910
   52DOPE   C21 6601  -0.270   4.531   4.100  0.5014  0.4318  0.1955
   52DOPE   O22 6602  -0.374   4.484   4.057 -0.5155  0.0878 -0.1166
   52DOPE   C22 6603  -0.230   4.683   4.110 -0.1837  0.1530  1.2036
   52DOPE   H2R 6604  -0.200   4.711   4.007 -2.8862 -3.0810 -0.6961
   52DOPE   H2S 6605  -0.145   4.693   4.181  0.1269  0.0359  0.8511
   52DOPE    C3 6606  -0.096   4.238   4.256 -0.3502 -0.2294  0.4767
   52DOPE    HX 6607   0.014   4.253   4.243 -0.6156  1.9384  0.3680
   52DOPE    HY 6608  -0.106   4.130   4.232 -1.8707  0.2343 -1.1946
   52DOPE   O31 6609  -0.148   4.254   4.387 -0.0267  0.0865  0.4742
   52DOPE   C31 6610  -0.075   4.322   4.477  1.1090 -0.2070 -0.3010
   52DOPE   O32 6611   0.027   4.372   4.454  0.5744  0.3706  0.2792
   52DOPE   C32 6612  -0.146   4.317   4.613  0.3844 -0.1110 -0.2552
   52DOPE   H2X 6613  -0.231   4.388   4.604  0.4627 -0.0173 -0.2605
   52DOPE   H2Y 6614  -0.192   4.218   4.630  0.5868  0.1605  2.3089
   52DOPE   C23 6615  -0.339   4.783   4.153 -0.3841 -0.1796  0.6360
   52DOPE   H3R 6616  -0.427   4.755   4.091 -0.2266 -2.1916  1.2377
   52DOPE   H3S 6617  -0.306   4.888   4.138  1.5953 -0.9180 -0.6608
   52DOPE   C24 6618  -0.367   4.770   4.307  0.0430  0.4264  0.7536
   52DOPE   H4R 6619  -0.281   4.809   4.366 -2.0460  0.9401  3.6571
   52DOPE   H4S 6620  -0.386   4.669   4.349 -0.1019  1.0540  2.2505
   52DOPE   C25 6621  -0.484   4.868   4.342 -0.1310 -0.0875 -0.1294
   52DOPE   H5R 6622  -0.577   4.825   4.298  0.3591 -2.1448  0.6996
   52DOPE   H5S 6623  -0.474   4.970   4.300 -0.1567 -0.8767 -2.1705
   52DOPE   C26 6624  -0.519   4.875   4.491 -0.8589 -0.5560 -0.4011
   52DOPE   H6R 6625  -0.426   4.907   4.542  0.2837  0.3935 -2.9359
   52DOPE   H6S 6626  -0.546   4.774   4.527  2.8202 -0.6625  2.6548
   52DOPE   C27 6627  -0.624   4.984   4.527  0.1528  0.0930 -0.8319
   52DOPE   H7R 6628  -0.717   4.941   4.484 -1.3626  2.7406 -0.4697
   52DOPE   H7S 6629  -0.616   5.080   4.471  0.4280  0.7553  0.2991
   52DOPE   C28 6630  -0.637   5.001   4.685 -0.4876  0.4742 -0.4078
   52DOPE   H8R 6631  -0.683   4.909   4.728  0.8673 -0.6644 -1.3085
   52DOPE   H8S 6632  -0.722   5.072   4.694 -1.8751 -1.1240 -0.4446
   52DOPE   C29 6633  -0.513   5.050   4.752  0.1388  0.3466 -0.1589
   52DOPE   H9R 6634  -0.417   5.072   4.703 -0.4060  0.8082 -1.0513
   52DOPE  C210 6635  -0.503   5.053   4.886 -0.5101 -0.0584 -0.1387
   52DOPE  H10R 6636  -0.403   5.072   4.927 -0.8291  1.5674 -0.0732
   52DOPE  C211 6637  -0.602   5.026   4.998 -0.5477  0.3959 -0.2779
   52DOPE  H11R 6638  -0.627   4.917   4.997 -2.1880  0.7451 -0.4147
   52DOPE  H11S 6639  -0.703   5.070   4.982  0.0185  1.5140 -0.8436
   52DOPE  C212 6640  -0.567   5.068   5.147  0.0231  0.0278  0.4288
   52DOPE  H12R 6641  -0.541   5.176   5.139  1.5941 -0.4303 -1.2005
   52DOPE  H12S 6642  -0.476   5.012   5.177  0.7183  0.3290 -1.0206
   52DOPE  C213 6643  -0.677   5.037   5.248  0.2498  0.3597 -0.1325
   52DOPE  H13R 6644  -0.700   4.930   5.229  0.2511 -0.1912  2.5866
   52DOPE  H13S 6645  -0.766   5.102   5.230  0.3644  1.1072  1.7334
   52DOPE  C214 6646  -0.634   5.060   5.393 -0.7563 -0.2525  0.0263
   52DOPE  H14R 6647  -0.621   5.170   5.402 -0.9517 -0.2725  0.6557
   52DOPE  H14S 6648  -0.544   4.999   5.414 -2.2253 -2.6351 -0.2707
   52DOPE  C215 6649  -0.742   5.022   5.492  0.0351  0.0332  0.0646
   52DOPE  H15R 6650  -0.780   4.922   5.463 -1.3540  0.4791  0.2698
   52DOPE  H15S 6651  -0.828   5.089   5.470  1.1064  1.0819 -1.1517
   52DOPE  C216 6652  -0.701   5.031   5.639 -0.6161  0.4168 -0.3909
   52DOPE  H16R 6653  -0.666   5.134   5.662  0.0078  0.1728 -0.2244
   52DOPE  H16S 6654  -0.630   4.949   5.666  0.1559  1.4616  0.9012
   52DOPE  C217 6655  -0.832   5.009   5.725  0.2551 -0.1246 -0.2206
   52DOPE  H17R 6656  -0.894   4.929   5.679  1.5313 -1.4389  0.2341
   52DOPE  H17S 6657  -0.888   5.104   5.720  0.5590  0.1729  1.3187
   52DOPE  C218 6658  -0.801   4.979   5.867  0.6508 -0.0956  0.4117
   52DOPE  H18R 6659  -0.722   5.048   5.905 -0.5256  0.0209  2.8340
   52DOPE  H18S 6660  -0.885   4.996   5.938 -0.0322  1.3317 -0.6900
   52DOPE  H18T 6661  -0.747   4.882   5.873  0.7927 -0.0890 -0.5904
   52DOPE   C33 6662  -0.048   4.355   4.726  0.0641  0.0962  0.3320
   52DOPE   H3X 6663   0.020   4.441   4.707 -0.0455  0.3111  0.9047
   52DOPE   H3Y 6664   0.016   4.266   4.745 -0.1372  0.2550  1.8990
   52DOPE   C34 6665  -0.124   4.367   4.862 -0.2297  0.3851  0.2549
   52DOPE   H4X 6666  -0.203   4.445   4.858 -1.1682 -0.3543  2.6081
   52DOPE   H4Y 6667  -0.184   4.276   4.883 -1.2732  0.0357 -3.4675
   52DOPE   C35 6668  -0.029   4.384   4.982 -0.3295 -0.4739 -0.4312
   52DOPE   H5X 6669   0.033   4.475   4.963  1.1214 -0.3886  3.6817
   52DOPE   H5Y 6670   0.043   4.300   4.988  0.1529  0.0509  2.3672
   52DOPE   C36 6671  -0.095   4.391   5.111 -0.3535 -0.2564 -0.9253
   52DOPE   H6X 6672  -0.138   4.294   5.144  0.4354 -0.7014 -1.1641
   52DOPE   H6Y 6673  -0.177   4.465   5.098  0.9023  1.2531 -0.6550
   52DOPE   C37 6674  -0.006   4.449   5.225  0.0658  0.5948 -0.0580
   52DOPE   H7X 6675   0.070   4.373   5.253  1.6253  1.2217 -2.3184
   52DOPE   H7Y 6676   0.047   4.536   5.181 -0.2539  0.4897 -0.6679
   52DOPE   C38 6677  -0.078   4.492   5.354 -0.2108  0.6175  0.8386
   52DOPE   H8X 6678  -0.158   4.562   5.323  0.0626 -0.0961 -1.7013
   52DOPE   H8Y 6679  -0.004   4.542   5.420  4.2354 -2.2337 -1.4851
   52DOPE   C39 6680  -0.140   4.370   5.418  0.3048  0.3672  0.1297
   52DOPE   H9X 6681  -0.186   4.294   5.354  2.2479 -0.5071 -0.3048
   52DOPE  C310 6682  -0.165   4.370   5.552 -0.2666  0.1953  0.3338
   52DOPE  H10X 6683  -0.191   4.277   5.604  0.1617 -1.5408 -2.3606
   52DOPE  C311 6684  -0.143   4.491   5.648 -0.4878 -0.1435  0.8521
   52DOPE  H11X 6685  -0.139   4.585   5.590 -2.4809 -1.0855 -0.9248
   52DOPE  H11Y 6686  -0.239   4.492   5.704 -0.5465 -1.3823  0.8044
   52DOPE  C312 6687  -0.031   4.469   5.749  0.3577 -0.9474 -1.0499
   52DOPE  H12X 6688   0.072   4.483   5.709  0.3960  0.2023 -0.5904
   52DOPE  H12Y 6689  -0.036   4.365   5.787 -0.1937 -0.3552  0.5778
   52DOPE  C313 6690  -0.048   4.578   5.864 -0.2062 -0.6265  0.2286
   52DOPE  H13X 6691   0.001   4.675   5.840  1.3717 -1.0408  1.5803
   52DOPE  H13Y 6692  -0.154   4.597   5.891  0.0272 -0.3007  0.9437
   52DOPE  C314 6693   0.017   4.529   5.994 -0.1138 -0.4724 -0.2292
   52DOPE  H14X 6694   0.038   4.612   6.065 -1.0998  1.0917 -1.6783
   52DOPE  H14Y 6695   0.112   4.479   5.965  0.4898  1.5929 -2.1113
   52DOPE  C315 6696  -0.074   4.426   6.066 -0.3994 -0.3891 -0.5537
   52DOPE  H15X 6697  -0.100   4.343   5.997  1.1045 -0.7374 -0.7354
   52DOPE  H15Y 6698  -0.174   4.471   6.084 -1.5530 -1.7495 -3.0538
   52DOPE  C316 6699  -0.014   4.376   6.198  0.2217 -0.4562 -0.1738
   52DOPE  H16X 6700   0.002   4.463   6.265  0.7741  0.3094 -1.2712
   52DOPE  H16Y 6701   0.082   4.328   6.171 -0.2351 -0.3811 -2.0365
   52DOPE  C317 6702  -0.099   4.279   6.271  0.6304  0.1881 -0.0724
   52DOPE  H17X 6703  -0.060   4.266   6.374 -0.1487  1.4883  0.4237
   52DOPE  H17Y 6704  -0.199   4.327   6.278  0.1228 -0.9651  0.8194
   52DOPE  C318 6705  -0.117   4.141   6.204 -0.6433  0.4013  0.2156
   52DOPE  H18X 6706  -0.195   4.084   6.258 -0.5348 -0.8324 -0.8724
   52DOPE  H18Y 6707  -0.153   4.155   6.099  1.1198  0.6160 -0.3982
   52DOPE  H18Z 6708  -0.024   4.080   6.199 -0.7822  0.2243 -0.3061
   53DOPE     N 6709   5.007   5.271   3.600  0.0099 -0.2865  0.1246
   53DOPE   HN1 6710   5.103   5.277   3.639 -0.1987  0.5110  0.5417
   53DOPE   HN2 6711   4.946   5.261   3.683 -1.3420 -1.3939 -0.9417
   53DOPE   HN3 6712   4.999   5.178   3.554 -0.5107  0.3400 -1.1034
   53DOPE   C12 6713   4.971   5.391   3.521  0.0682 -0.4818  0.5141
   53DOPE  H12A 6714   4.860   5.389   3.516  0.0592  0.2434  0.3243
   53DOPE  H12B 6715   5.029   5.390   3.426  1.0757 -1.4441  1.1120
   53DOPE   C11 6716   5.007   5.521   3.596  0.7319 -0.4999 -0.1943
   53DOPE  H11A 6717   4.937   5.526   3.682 -1.4739 -0.0150 -1.9387
   53DOPE  H11B 6718   4.992   5.607   3.527  0.8156 -2.2289 -2.4951
   53DOPE     P 6719   5.207   5.649   3.703 -0.0932 -0.1207 -0.2573
   53DOPE   O13 6720   5.185   5.767   3.615  0.5767  0.1646 -0.1007
   53DOPE   O14 6721   5.350   5.619   3.751  0.0871 -0.0866 -0.6732
   53DOPE   O11 6722   5.118   5.673   3.836  0.4247  0.4518  0.3716
   53DOPE   O12 6723   5.145   5.526   3.633  0.3644 -0.2571 -0.4690
   53DOPE    C1 6724   5.123   5.565   3.930  0.1113 -0.1785 -0.5790
   53DOPE    HA 6725   5.219   5.531   3.975  1.0029 -1.0196 -2.9709
   53DOPE    HB 6726   5.089   5.472   3.879 -1.6296 -0.9207  1.7620
   53DOPE    C2 6727   5.022   5.591   4.048  0.2452  0.0364  0.2574
   53DOPE    HS 6728   4.922   5.596   4.001  0.2737 -1.0972  0.0380
   53DOPE   O21 6729   5.069   5.709   4.113  0.0317  0.2724 -0.5011
   53DOPE   C21 6730   4.974   5.791   4.151 -0.3572  0.2595  1.0951
   53DOPE   O22 6731   4.856   5.776   4.125  0.1563 -0.2259 -0.6280
   53DOPE   C22 6732   5.028   5.902   4.224  0.8955 -0.0419 -0.4734
   53DOPE   H2R 6733   4.974   5.985   4.174  0.0183 -0.1027  0.3481
   53DOPE   H2S 6734   5.137   5.923   4.220  1.1307 -0.8300  0.8627
   53DOPE    C3 6735   5.026   5.473   4.145  0.4526  0.4284 -0.0287
   53DOPE    HX 6736   5.130   5.465   4.183 -0.3181  0.1803  2.1418
   53DOPE    HY 6737   5.003   5.381   4.088  0.2560  0.8972 -0.7209
   53DOPE   O31 6738   4.941   5.497   4.263 -0.3538 -0.2229  0.4440
   53DOPE   C31 6739   4.883   5.384   4.315 -1.0438 -0.5690 -0.3470
   53DOPE   O32 6740   4.906   5.276   4.272 -0.1791 -0.1571 -0.4552
   53DOPE   C32 6741   4.805   5.411   4.442  0.4802  0.1193 -0.3626
   53DOPE   H2X 6742   4.848   5.499   4.494  0.4613 -0.8341  1.3441
   53DOPE   H2Y 6743   4.705   5.441   4.405  0.7548  2.0872  0.3703
   53DOPE   C23 6744   4.975   5.913   4.369  0.2571 -0.6366 -0.2043
   53DOPE   H3R 6745   4.865   5.931   4.365  0.2337 -0.9652 -1.1686
   53DOPE   H3S 6746   5.010   6.003   4.424 -2.1862  1.9565 -2.5590
   53DOPE   C24 6747   5.007   5.789   4.444 -0.3516  0.3769 -0.3134
   53DOPE   H4R 6748   5.111   5.766   4.412 -0.9009  0.4287 -2.2331
   53DOPE   H4S 6749   4.951   5.702   4.405  1.2594 -0.2728 -1.2994
   53DOPE   C25 6750   5.003   5.801   4.594  0.1266  0.0021 -0.1483
   53DOPE   H5R 6751   4.988   5.709   4.655 -2.0566  2.0327  2.6776
   53DOPE   H5S 6752   4.926   5.872   4.629  0.8827  1.1759 -0.7952
   53DOPE   C26 6753   5.138   5.861   4.647  0.2892  0.1393 -1.0482
   53DOPE   H6R 6754   5.169   5.940   4.575 -0.9307  0.0951 -1.6486
   53DOPE   H6S 6755   5.216   5.782   4.656 -0.3170 -0.3087  0.6782
   53DOPE   C27 6756   5.115   5.927   4.778  0.1848  0.3847  0.6999
   53DOPE   H7R 6757   5.072   5.852   4.847 -0.9502  0.8562  0.5399
   53DOPE   H7S 6758   5.032   6.000   4.766 -0.2612 -0.2434 -0.1510
   53DOPE   C28 6759   5.227   6.003   4.835 -0.7527  0.2500 -0.1575
   53DOPE   H8R 6760   5.170   6.076   4.897 -0.4500 -0.9320  1.5658
   53DOPE   H8S 6761   5.282   6.066   4.761  0.6066 -1.0657 -0.3029
   53DOPE   C29 6762   5.323   5.913   4.915 -0.6962  0.0872 -0.6634
   53DOPE   H9R 6763   5.399   5.865   4.852  1.6377  1.3705  1.0245
   53DOPE  C210 6764   5.316   5.889   5.049 -0.3363  0.6833 -0.0545
   53DOPE  H10R 6765   5.378   5.805   5.083 -1.3629 -0.4940 -1.0071
   53DOPE  C211 6766   5.207   5.931   5.145  0.5065 -0.8276 -0.4829
   53DOPE  H11R 6767   5.131   5.851   5.157 -0.0106 -0.4978 -1.4761
   53DOPE  H11S 6768   5.159   6.023   5.104 -0.1355 -1.4397 -1.1301
   53DOPE  C212 6769   5.255   5.956   5.290 -0.2481  0.9638 -0.4379
   53DOPE  H12R 6770   5.337   6.030   5.287  0.2680  0.4060 -0.1871
   53DOPE  H12S 6771   5.264   5.851   5.324 -0.0651  1.0625 -0.1811
   53DOPE  C213 6772   5.156   6.026   5.383  0.3426 -0.5783 -0.0032
   53DOPE  H13R 6773   5.054   5.986   5.368 -0.8597  1.8817  1.0552
   53DOPE  H13S 6774   5.146   6.132   5.351  2.1612 -0.0120  1.1355
   53DOPE  C214 6775   5.215   6.012   5.527  0.3061 -0.2660 -0.3822
   53DOPE  H14R 6776   5.305   6.076   5.534  0.5708 -0.6507 -0.2374
   53DOPE  H14S 6777   5.253   5.909   5.541 -0.7009 -0.8494 -1.7138
   53DOPE  C215 6778   5.111   6.054   5.628  0.3361 -0.7895 -0.0728
   53DOPE  H15R 6779   5.023   5.986   5.625 -1.6629  1.6064  1.0505
   53DOPE  H15S 6780   5.066   6.152   5.600 -1.5321 -1.8575 -1.0234
   53DOPE  C216 6781   5.172   6.051   5.768 -0.3667 -0.1156  0.4878
   53DOPE  H16R 6782   5.273   6.095   5.776 -0.8672  1.2081 -0.1757
   53DOPE  H16S 6783   5.191   5.943   5.785  1.4644  0.4611  2.5653
   53DOPE  C217 6784   5.091   6.120   5.875 -0.2122  0.4088 -0.0581
   53DOPE  H17R 6785   4.988   6.080   5.886 -0.7372  1.0645 -2.0861
   53DOPE  H17S 6786   5.084   6.220   5.827 -1.1650  0.5179  0.2800
   53DOPE  C218 6787   5.150   6.144   6.018  0.1308  0.3474  0.7444
   53DOPE  H18R 6788   5.254   6.182   6.009 -0.2641  1.1130 -0.9014
   53DOPE  H18S 6789   5.152   6.051   6.078  2.0150  0.4793  0.9286
   53DOPE  H18T 6790   5.097   6.224   6.074 -0.2790 -0.1030  1.0090
   53DOPE   C33 6791   4.795   5.288   4.530 -0.2054 -0.4251 -0.1399
   53DOPE   H3X 6792   4.760   5.201   4.470  0.9156  0.0320 -1.5132
   53DOPE   H3Y 6793   4.722   5.316   4.609 -0.5328  0.1768 -0.6451
   53DOPE   C34 6794   4.926   5.253   4.605 -0.4351 -0.3448  0.0048
   53DOPE   H4X 6795   5.000   5.207   4.537  0.0450  0.6803 -0.1841
   53DOPE   H4Y 6796   4.974   5.338   4.658 -2.0136 -0.2542  1.3789
   53DOPE   C35 6797   4.893   5.140   4.705 -0.3216 -0.0691 -0.8360
   53DOPE   H5X 6798   4.956   5.057   4.666  2.1412  2.1632 -1.8688
   53DOPE   H5Y 6799   4.787   5.106   4.694  0.0696 -2.1931  1.1019
   53DOPE   C36 6800   4.929   5.163   4.855  0.2848 -0.5481 -0.2845
   53DOPE   H6X 6801   5.036   5.193   4.867  0.6203 -2.3709  1.8514
   53DOPE   H6Y 6802   4.932   5.065   4.907 -1.7572  0.4733  1.9613
   53DOPE   C37 6803   4.837   5.266   4.936 -0.5482  0.0573  0.1676
   53DOPE   H7X 6804   4.891   5.361   4.916  1.1880 -0.7499  0.8596
   53DOPE   H7Y 6805   4.737   5.268   4.888 -0.8115 -0.5852  0.6592
   53DOPE   C38 6806   4.839   5.239   5.083  0.6731 -0.1687 -0.3841
   53DOPE   H8X 6807   4.806   5.135   5.104  0.1725 -0.3112 -1.7772
   53DOPE   H8Y 6808   4.773   5.313   5.132 -1.0029 -0.9740 -1.3322
   53DOPE   C39 6809   4.976   5.239   5.149  0.0302  0.1101 -0.1142
   53DOPE   H9X 6810   5.052   5.280   5.082  1.1490 -2.1304 -0.3302
   53DOPE  C310 6811   4.999   5.206   5.278  0.5416  0.3384 -0.5308
   53DOPE  H10X 6812   5.100   5.219   5.318  0.0879 -0.9711  1.1731
   53DOPE  C311 6813   4.896   5.169   5.382 -0.5161 -0.4492 -0.8152
   53DOPE  H11X 6814   4.794   5.177   5.338 -0.7515 -0.3291 -0.2472
   53DOPE  H11Y 6815   4.898   5.066   5.424 -2.4646  0.3788  1.5715
   53DOPE  C312 6816   4.911   5.267   5.498 -0.8361  0.2891  0.3425
   53DOPE  H12X 6817   4.899   5.374   5.469 -0.3973  1.0069  2.6316
   53DOPE  H12Y 6818   5.015   5.254   5.535 -0.5288 -1.4377 -1.0045
   53DOPE  C313 6819   4.813   5.232   5.614  0.3554  0.5976  0.5036
   53DOPE  H13X 6820   4.710   5.243   5.573  0.7541  0.4378 -0.5662
   53DOPE  H13Y 6821   4.814   5.121   5.628  0.1643  0.1322 -2.5304
   53DOPE  C314 6822   4.833   5.304   5.746 -0.9039  0.4386 -0.1029
   53DOPE  H14X 6823   4.843   5.413   5.726 -0.4023  0.6786  1.3508
   53DOPE  H14Y 6824   4.932   5.277   5.788 -0.7598  1.8354  0.5229
   53DOPE  C315 6825   4.717   5.277   5.839  0.0968  0.2083 -0.0569
   53DOPE  H15X 6826   4.711   5.166   5.845  2.1599  0.0611  0.2679
   53DOPE  H15Y 6827   4.623   5.321   5.800  0.1925 -0.1163 -0.6690
   53DOPE  C316 6828   4.752   5.328   5.977  0.7700 -0.3303 -0.0724
   53DOPE  H16X 6829   4.663   5.311   6.041 -0.3299 -0.6784 -1.6274
   53DOPE  H16Y 6830   4.784   5.434   5.967  0.7666 -0.5229 -3.0824
   53DOPE  C317 6831   4.852   5.250   6.058 -0.0093  0.5530 -0.3308
   53DOPE  H17X 6832   4.831   5.144   6.033 -3.8727  0.8171  1.0810
   53DOPE  H17Y 6833   4.955   5.276   6.025  0.0228 -0.4652 -1.0707
   53DOPE  C318 6834   4.843   5.284   6.212 -0.4506 -0.8674 -0.0163
   53DOPE  H18X 6835   4.942   5.260   6.257 -0.2712 -1.8542 -0.9074
   53DOPE  H18Y 6836   4.831   5.393   6.229 -0.3460 -0.9792  0.7765
   53DOPE  H18Z 6837   4.769   5.218   6.261 -0.5426  0.4902  1.7775
   54DOPE     N 6838   1.357   5.434   3.913  0.0241 -0.0465  0.4936
   54DOPE   HN1 6839   1.254   5.426   3.901  0.0512 -1.1674  0.8427
   54DOPE   HN2 6840   1.372   5.465   4.011  0.4715 -2.0290  1.0932
   54DOPE   HN3 6841   1.389   5.510   3.850 -1.9131  0.8603  0.5403
   54DOPE   C12 6842   1.408   5.297   3.885  0.1324  0.2671  0.3239
   54DOPE  H12A 6843   1.517   5.315   3.888 -0.2222  2.7434  0.4059
   54DOPE  H12B 6844   1.377   5.259   3.785  2.2563 -1.0878  0.1199
   54DOPE   C11 6845   1.356   5.201   3.993  0.4351 -0.5960  0.4937
   54DOPE  H11A 6846   1.364   5.257   4.089  1.5108 -0.0914  0.1275
   54DOPE  H11B 6847   1.432   5.119   3.994 -0.6497 -1.7044 -1.3547
   54DOPE     P 6848   1.196   5.015   3.961 -0.0654 -0.2040 -0.2872
   54DOPE   O13 6849   1.268   4.966   3.841  0.1163  0.1028  0.4031
   54DOPE   O14 6850   1.046   4.993   3.957 -1.1052  0.1394 -0.1593
   54DOPE   O11 6851   1.264   4.953   4.095  0.5881  0.3143 -0.1577
   54DOPE   O12 6852   1.222   5.168   3.980  0.7381 -0.4467 -0.2754
   54DOPE    C1 6853   1.216   4.825   4.144 -0.3930 -0.2637 -0.0437
   54DOPE    HA 6854   1.301   4.753   4.153 -0.4372 -0.3452 -0.2604
   54DOPE    HB 6855   1.134   4.775   4.088 -2.6087  0.7871  2.1076
   54DOPE    C2 6856   1.165   4.839   4.290  1.3262  0.1831  0.2393
   54DOPE    HS 6857   1.093   4.923   4.287  0.0789 -0.8929 -1.0795
   54DOPE   O21 6858   1.272   4.865   4.379  0.0690 -0.7301 -0.2404
   54DOPE   C21 6859   1.250   4.950   4.484  0.4650  0.3316 -0.6465
   54DOPE   O22 6860   1.161   5.032   4.482 -0.7369 -0.3872 -0.2730
   54DOPE   C22 6861   1.367   4.936   4.575 -0.7674 -0.2373  0.4878
   54DOPE   H2R 6862   1.415   5.035   4.587 -1.2542  0.0703 -0.1208
   54DOPE   H2S 6863   1.452   4.879   4.531  0.3410  2.9511 -1.8115
   54DOPE    C3 6864   1.095   4.711   4.334  0.2038  0.0438  0.1016
   54DOPE    HX 6865   1.156   4.618   4.333 -2.3465 -1.7673 -2.6039
   54DOPE    HY 6866   1.018   4.679   4.260  0.0319  0.9438 -0.1180
   54DOPE   O31 6867   1.038   4.719   4.468 -0.2505  0.5184  0.1305
   54DOPE   C31 6868   0.924   4.785   4.479  0.6757  0.3667 -0.0049
   54DOPE   O32 6869   0.866   4.853   4.397 -0.7420 -0.1994 -0.6567
   54DOPE   C32 6870   0.876   4.767   4.621  0.2497  0.3555  0.5324
   54DOPE   H2X 6871   0.827   4.668   4.625 -0.9134  0.9349  1.5321
   54DOPE   H2Y 6872   0.962   4.774   4.692  0.5107 -3.3612  0.7446
   54DOPE   C23 6873   1.335   4.882   4.712  0.1224 -0.0137 -0.7507
   54DOPE   H3R 6874   1.427   4.846   4.762 -0.4849 -0.9968 -0.3155
   54DOPE   H3S 6875   1.276   4.789   4.699  1.2783 -0.7462 -0.8740
   54DOPE   C24 6876   1.262   4.986   4.798  0.3018  0.6900  0.1913
   54DOPE   H4R 6877   1.166   5.020   4.753  0.1515  0.6066  0.4468
   54DOPE   H4S 6878   1.330   5.071   4.824 -1.3871  1.7778  1.2796
   54DOPE   C25 6879   1.225   4.930   4.940  0.3416  0.4790 -0.1234
   54DOPE   H5R 6880   1.269   4.987   5.025  0.9181  0.9922 -0.7451
   54DOPE   H5S 6881   1.267   4.832   4.970  3.5976  1.8969  0.4231
   54DOPE   C26 6882   1.069   4.923   4.969 -0.2769 -0.0158 -0.2150
   54DOPE   H6R 6883   1.021   4.846   4.906 -1.0704  1.2410 -1.1862
   54DOPE   H6S 6884   1.012   5.015   4.947  0.3905  0.0917 -1.6101
   54DOPE   C27 6885   1.044   4.896   5.113  0.3929  0.3021 -0.4133
   54DOPE   H7R 6886   1.082   4.987   5.164  1.6081 -0.2865 -0.2438
   54DOPE   H7S 6887   1.091   4.806   5.157 -1.1686  0.7462  2.3884
   54DOPE   C28 6888   0.893   4.897   5.149 -0.2984 -0.2495 -0.1985
   54DOPE   H8R 6889   0.841   4.806   5.110 -0.3262  0.3487 -1.5736
   54DOPE   H8S 6890   0.861   4.990   5.098 -1.0427  0.1325  0.9152
   54DOPE   C29 6891   0.863   4.917   5.294  1.1460 -0.3124  0.8191
   54DOPE   H9R 6892   0.874   5.021   5.327  1.9755  0.0434 -0.5321
   54DOPE  C210 6893   0.808   4.824   5.373  0.2070 -0.0761 -0.6576
   54DOPE  H10R 6894   0.781   4.840   5.478  0.5756 -1.6248 -0.2949
   54DOPE  C211 6895   0.789   4.677   5.340 -0.3283 -0.3664 -0.2299
   54DOPE  H11R 6896   0.788   4.651   5.232  3.1226 -3.0486  0.1687
   54DOPE  H11S 6897   0.697   4.631   5.382 -1.6202 -0.8231 -3.3347
   54DOPE  C212 6898   0.907   4.583   5.378 -0.5341 -0.3877  0.0350
   54DOPE  H12R 6899   0.995   4.623   5.323 -0.8905 -0.1174 -0.3430
   54DOPE  H12S 6900   0.879   4.484   5.336 -2.1639  0.6271 -1.3943
   54DOPE  C213 6901   0.949   4.581   5.530  1.4871 -0.4322  0.3136
   54DOPE  H13R 6902   0.854   4.564   5.585 -0.4492  3.6566 -1.3444
   54DOPE  H13S 6903   0.996   4.676   5.564 -0.0750 -0.2948  2.2894
   54DOPE  C214 6904   1.047   4.468   5.569 -0.4471  0.5409  0.2109
   54DOPE  H14R 6905   1.097   4.478   5.667 -0.5394 -1.3226  0.4963
   54DOPE  H14S 6906   1.129   4.470   5.494 -0.8552  1.2570 -0.2319
   54DOPE  C215 6907   0.971   4.333   5.579  0.2340  0.8163  0.4490
   54DOPE  H15R 6908   0.898   4.312   5.499  0.4623 -1.8089  0.8233
   54DOPE  H15S 6909   0.916   4.348   5.675  1.1957 -0.6271  1.2754
   54DOPE  C216 6910   1.051   4.200   5.595 -0.2832  0.0623  0.3613
   54DOPE  H16R 6911   0.980   4.116   5.614 -1.9402  1.0221 -1.3346
   54DOPE  H16S 6912   1.120   4.211   5.682  0.3526 -0.1568 -0.1087
   54DOPE  C217 6913   1.139   4.173   5.472  0.3159 -0.1752 -0.3057
   54DOPE  H17R 6914   1.189   4.074   5.478  2.9890  1.1249  0.8059
   54DOPE  H17S 6915   1.227   4.242   5.467 -0.9442  1.8104  2.3449
   54DOPE  C218 6916   1.062   4.171   5.334 -0.6215 -0.4156  0.3167
   54DOPE  H18R 6917   1.009   4.267   5.317 -2.2053 -1.4940 -1.2209
   54DOPE  H18S 6918   0.987   4.089   5.341  1.6207 -2.7263 -0.9111
   54DOPE  H18T 6919   1.134   4.149   5.253 -0.3664 -0.6651  0.6130
   54DOPE   C33 6920   0.771   4.870   4.664  0.0390  0.4467  0.4105
   54DOPE   H3X 6921   0.681   4.870   4.599  1.4512  0.8308 -1.6404
   54DOPE   H3Y 6922   0.815   4.973   4.665 -0.0942  0.5049  1.2493
   54DOPE   C34 6923   0.724   4.842   4.811  0.3302 -0.3430 -0.1841
   54DOPE   H4X 6924   0.802   4.787   4.867 -0.9559 -1.4375  0.5948
   54DOPE   H4Y 6925   0.703   4.937   4.865 -0.4548 -0.6705  0.1027
   54DOPE   C35 6926   0.587   4.767   4.803 -0.1866  0.4880 -0.1180
   54DOPE   H5X 6927   0.618   4.674   4.752 -1.8109  0.6307 -1.4831
   54DOPE   H5Y 6928   0.512   4.821   4.740 -1.2098 -0.8118 -0.0437
   54DOPE   C36 6929   0.533   4.741   4.942  0.0602 -0.0853 -0.6075
   54DOPE   H6X 6930   0.504   4.838   4.987  2.2334  0.3692 -0.0393
   54DOPE   H6Y 6931   0.614   4.705   5.009  0.3483  1.1962 -0.2487
   54DOPE   C37 6932   0.416   4.635   4.935  0.3381 -0.4646  0.1083
   54DOPE   H7X 6933   0.323   4.675   4.889 -1.3340 -2.9902  1.0941
   54DOPE   H7Y 6934   0.447   4.554   4.866 -0.5632  0.4357 -1.4054
   54DOPE   C38 6935   0.383   4.580   5.080  0.5423 -0.2631 -0.0471
   54DOPE   H8X 6936   0.465   4.568   5.154  0.0189 -0.8676  0.4352
   54DOPE   H8Y 6937   0.345   4.478   5.060  0.0481 -0.2215  0.6385
   54DOPE   C39 6938   0.271   4.662   5.143 -0.0743 -0.0328 -0.5138
   54DOPE   H9X 6939   0.182   4.671   5.078 -0.5607 -0.0219  0.1378
   54DOPE  C310 6940   0.271   4.737   5.260  0.4926  0.2326 -0.1936
   54DOPE  H10X 6941   0.187   4.806   5.275  0.0472 -0.4212  0.3634
   54DOPE  C311 6942   0.393   4.754   5.354  0.2967  0.3301  0.2651
   54DOPE  H11X 6943   0.486   4.710   5.313  0.5472 -1.8649  2.9118
   54DOPE  H11Y 6944   0.425   4.860   5.346 -0.3643  0.4885 -0.4090
   54DOPE  C312 6945   0.377   4.722   5.500 -0.1422  0.1602 -0.4656
   54DOPE  H12X 6946   0.474   4.739   5.551 -0.8686 -0.5950  1.2461
   54DOPE  H12Y 6947   0.349   4.614   5.504 -0.3542  0.2389  0.2429
   54DOPE  C313 6948   0.269   4.799   5.576 -1.0277  0.1207  0.2438
   54DOPE  H13X 6949   0.279   4.901   5.536 -1.7248  0.2464  0.3618
   54DOPE  H13Y 6950   0.169   4.762   5.544 -0.4421  0.3087 -1.9349
   54DOPE  C314 6951   0.306   4.792   5.723 -0.0203  0.0714  0.3978
   54DOPE  H14X 6952   0.416   4.787   5.741  0.1236 -3.5138 -0.6213
   54DOPE  H14Y 6953   0.278   4.690   5.758  0.0648  0.2694  1.0453
   54DOPE  C315 6954   0.226   4.888   5.811 -0.5860  0.3829  0.0821
   54DOPE  H15X 6955   0.123   4.879   5.771 -0.4906 -0.0246 -0.0774
   54DOPE  H15Y 6956   0.267   4.990   5.798  1.5661 -0.4405 -0.0335
   54DOPE  C316 6957   0.236   4.850   5.959 -0.0471 -0.2712  0.1650
   54DOPE  H16X 6958   0.343   4.864   5.986  0.2216  0.3659 -1.1372
   54DOPE  H16Y 6959   0.222   4.740   5.969  0.9910 -0.7160 -2.5093
   54DOPE  C317 6960   0.150   4.932   6.048 -0.0493  0.2711 -0.0296
   54DOPE  H17X 6961   0.157   5.040   6.022 -0.3960  0.1405 -0.6623
   54DOPE  H17Y 6962   0.046   4.905   6.020  0.1269 -2.9443  1.8576
   54DOPE  C318 6963   0.167   4.902   6.196 -0.0656 -0.0126  0.4833
   54DOPE  H18X 6964   0.095   4.954   6.262  2.3507 -0.1095  3.4340
   54DOPE  H18Y 6965   0.143   4.795   6.214 -3.3083  0.4290 -0.7169
   54DOPE  H18Z 6966   0.271   4.931   6.224  0.3310  1.2345 -2.0024
   55DOPE     N 6967   2.985   6.062   4.458 -0.4379  0.4197 -0.0274
   55DOPE   HN1 6968   2.961   6.014   4.547 -0.0558  2.8141  1.4378
   55DOPE   HN2 6969   2.903   6.097   4.405 -0.0711  2.9847  0.9682
   55DOPE   HN3 6970   3.042   6.006   4.391 -1.7176  1.4457 -2.0645
   55DOPE   C12 6971   3.065   6.189   4.499  0.8229  0.0504 -0.5131
   55DOPE  H12A 6972   3.088   6.244   4.406 -2.5928 -0.1106 -1.5790
   55DOPE  H12B 6973   3.158   6.150   4.546  0.9440 -0.3898 -1.0966
   55DOPE   C11 6974   2.991   6.279   4.602  0.8853 -0.6673  0.3125
   55DOPE  H11A 6975   3.059   6.359   4.638  0.0903  0.3901 -0.4512
   55DOPE  H11B 6976   2.952   6.219   4.686 -0.4954 -0.4072 -0.1119
   55DOPE     P 6977   2.732   6.337   4.601  0.2086  0.2463  0.1201
   55DOPE   O13 6978   2.654   6.215   4.569  0.2273  0.7142 -0.1874
   55DOPE   O14 6979   2.663   6.463   4.555 -0.3711  0.7951  0.6433
   55DOPE   O11 6980   2.759   6.340   4.755  0.2897  0.3005 -0.3291
   55DOPE   O12 6981   2.880   6.333   4.540  0.7287 -0.3767  0.2379
   55DOPE    C1 6982   2.647   6.319   4.840 -0.1600  0.4401  0.2545
   55DOPE    HA 6983   2.685   6.268   4.931 -1.1126  0.4217  0.6536
   55DOPE    HB 6984   2.575   6.249   4.792  0.6934  1.2006 -2.2747
   55DOPE    C2 6985   2.576   6.452   4.884 -0.4100 -0.0390  0.5688
   55DOPE    HS 6986   2.515   6.481   4.796 -1.6147 -0.7748  1.1466
   55DOPE   O21 6987   2.679   6.550   4.888 -0.4699 -0.1395  0.1515
   55DOPE   C21 6988   2.642   6.671   4.911 -0.3918  0.2745 -0.3538
   55DOPE   O22 6989   2.530   6.711   4.905  0.4166 -0.3519 -0.9255
   55DOPE   C22 6990   2.761   6.753   4.955  0.6311  1.6156 -0.4853
   55DOPE   H2R 6991   2.815   6.794   4.867  2.3193  0.3107 -0.1108
   55DOPE   H2S 6992   2.824   6.689   5.021 -1.0338 -0.1282 -0.5187
   55DOPE    C3 6993   2.488   6.436   5.011  0.2561  0.0692  0.5343
   55DOPE    HX 6994   2.396   6.374   5.004  1.2639 -1.6082  1.6259
   55DOPE    HY 6995   2.445   6.537   5.030 -1.4342 -0.6912  0.8918
   55DOPE   O31 6996   2.589   6.401   5.110 -0.6806 -0.6199  0.1155
   55DOPE   C31 6997   2.579   6.453   5.227 -0.3198  0.5079  0.0242
   55DOPE   O32 6998   2.513   6.555   5.251 -0.6458  0.5675  0.4384
   55DOPE   C32 6999   2.673   6.384   5.337  0.0817  0.2057 -0.8550
   55DOPE   H2X 7000   2.663   6.274   5.325  1.0744 -0.3727  2.5116
   55DOPE   H2Y 7001   2.778   6.414   5.322  0.0714  2.5321  2.4992
   55DOPE   C23 7002   2.717   6.876   5.037  0.3364 -0.5803  0.1926
   55DOPE   H3R 7003   2.634   6.927   4.983  0.6703 -0.9690 -0.7153
   55DOPE   H3S 7004   2.806   6.941   5.052  0.6714  0.0154 -3.3638
   55DOPE   C24 7005   2.658   6.841   5.174 -0.0970  0.0129  0.3264
   55DOPE   H4R 7006   2.741   6.784   5.222  0.5679  0.6009 -0.0910
   55DOPE   H4S 7007   2.566   6.780   5.158 -0.1028  0.7826 -3.8667
   55DOPE   C25 7008   2.629   6.966   5.251  0.4254  0.2129 -0.1040
   55DOPE   H5R 7009   2.546   7.017   5.197 -1.2280 -2.1774  0.0304
   55DOPE   H5S 7010   2.721   7.028   5.253 -0.3746  1.5134  3.3906
   55DOPE   C26 7011   2.595   6.941   5.397 -1.0851  0.7754  0.8958
   55DOPE   H6R 7012   2.503   6.880   5.408 -1.2148  0.7600 -0.1890
   55DOPE   H6S 7013   2.593   7.038   5.451  1.7306  1.0729  0.6419
   55DOPE   C27 7014   2.695   6.854   5.472  0.4081  0.3057 -0.2015
   55DOPE   H7R 7015   2.791   6.909   5.468 -0.5236  2.2168  1.5146
   55DOPE   H7S 7016   2.709   6.756   5.421 -0.5432  1.2814 -2.4815
   55DOPE   C28 7017   2.656   6.823   5.624 -0.1494  0.1830 -0.3468
   55DOPE   H8R 7018   2.732   6.748   5.653 -0.4465 -0.3189 -0.8399
   55DOPE   H8S 7019   2.559   6.769   5.631  0.4528 -0.6812  2.6298
   55DOPE   C29 7020   2.665   6.950   5.700  0.1118 -0.0977 -0.1103
   55DOPE   H9R 7021   2.766   6.992   5.717 -0.3664  0.5939  1.2087
   55DOPE  C210 7022   2.569   7.012   5.776  0.1653  0.8900  0.4178
   55DOPE  H10R 7023   2.594   7.111   5.816  1.1660  1.0710 -0.5849
   55DOPE  C211 7024   2.421   6.964   5.776  0.5135  0.1507 -0.5352
   55DOPE  H11R 7025   2.413   6.912   5.679  1.0823 -0.7602 -0.1070
   55DOPE  H11S 7026   2.348   7.048   5.777  0.8008  0.4233 -1.3062
   55DOPE  C212 7027   2.396   6.877   5.912 -0.8715 -0.2325  0.6681
   55DOPE  H12R 7028   2.472   6.796   5.908 -0.7779 -0.2591  2.1457
   55DOPE  H12S 7029   2.297   6.827   5.915 -0.3157 -1.3356  1.4949
   55DOPE  C213 7030   2.410   6.948   6.045 -0.7127 -0.0781  0.2251
   55DOPE  H13R 7031   2.336   7.032   6.050  1.4651  2.0806 -1.4316
   55DOPE  H13S 7032   2.508   7.001   6.050 -0.0017 -1.3854  0.5421
   55DOPE  C214 7033   2.372   6.864   6.162 -0.1774 -0.3869 -0.1667
   55DOPE  H14R 7034   2.444   6.779   6.168  0.9149  0.6027  2.2138
   55DOPE  H14S 7035   2.274   6.822   6.133  0.0184 -0.6901 -0.3979
   55DOPE  C215 7036   2.353   6.939   6.293 -0.1228 -0.4134 -0.1732
   55DOPE  H15R 7037   2.264   7.005   6.294  0.4309  0.4006 -1.4214
   55DOPE  H15S 7038   2.435   7.013   6.306 -0.1325 -0.1059 -1.6869
   55DOPE  C216 7039   2.354   6.852   6.415  0.5566 -0.1317  0.2255
   55DOPE  H16R 7040   2.444   6.788   6.407 -0.1568 -1.3032  1.1254
   55DOPE  H16S 7041   2.269   6.780   6.409 -1.6345  2.2894  0.3171
   55DOPE  C217 7042   2.377   6.929   6.546 -0.2073  0.8953 -0.3400
   55DOPE  H17R 7043   2.296   7.004   6.563 -0.1701  0.8879 -0.1291
   55DOPE  H17S 7044   2.478   6.973   6.532  0.3494 -0.2737 -0.1433
   55DOPE  C218 7045   2.394   6.839   6.670  1.0088  0.0729  0.6869
   55DOPE  H18R 7046   2.292   6.799   6.688 -0.2788  2.5913 -0.4688
   55DOPE  H18S 7047   2.415   6.906   6.756  1.0705 -0.1993  0.8862
   55DOPE  H18T 7048   2.468   6.757   6.658  0.0820 -1.0174  2.0662
   55DOPE   C33 7049   2.630   6.419   5.482 -0.1866 -0.0355 -0.5571
   55DOPE   H3X 7050   2.522   6.393   5.485  0.0991 -1.1638  1.8037
   55DOPE   H3Y 7051   2.637   6.530   5.487  1.0822 -0.0998 -0.3591
   55DOPE   C34 7052   2.703   6.349   5.597  0.4325  0.4878  0.9110
   55DOPE   H4X 7053   2.709   6.246   5.555 -1.1912  1.2561 -1.3991
   55DOPE   H4Y 7054   2.811   6.370   5.610  1.4149 -2.8862 -0.6385
   55DOPE   C35 7055   2.636   6.349   5.734  0.0214 -0.3885 -0.6494
   55DOPE   H5X 7056   2.527   6.330   5.739 -0.5755  2.5089 -0.8210
   55DOPE   H5Y 7057   2.645   6.454   5.772 -1.5132 -0.9831  1.5794
   55DOPE   C36 7058   2.695   6.244   5.831  0.2644  0.4307 -0.4456
   55DOPE   H6X 7059   2.804   6.242   5.815 -0.0629  0.4994 -3.1452
   55DOPE   H6Y 7060   2.655   6.146   5.798 -1.1266  0.3139  1.4068
   55DOPE   C37 7061   2.649   6.246   5.978 -0.1275  0.0716 -0.0446
   55DOPE   H7X 7062   2.541   6.222   5.989 -0.1463  0.3955  0.4963
   55DOPE   H7Y 7063   2.709   6.172   6.035 -0.1407  0.7131  0.8220
   55DOPE   C38 7064   2.646   6.381   6.046  0.0940 -0.0854  0.1493
   55DOPE   H8X 7065   2.603   6.384   6.149  4.6315  0.6656  2.2615
   55DOPE   H8Y 7066   2.591   6.453   5.981 -0.7485  1.0196  1.9983
   55DOPE   C39 7067   2.790   6.423   6.069  0.9925 -0.3177 -0.5372
   55DOPE   H9X 7068   2.864   6.341   6.071  1.9685  0.3380 -3.8853
   55DOPE  C310 7069   2.832   6.554   6.062  1.1689 -0.3013  0.3762
   55DOPE  H10X 7070   2.938   6.574   6.039  0.4772  1.0131 -1.9609
   55DOPE  C311 7071   2.733   6.668   6.058  0.5156 -0.3210  0.4602
   55DOPE  H11X 7072   2.708   6.686   5.951  1.6782 -0.7471  0.0986
   55DOPE  H11Y 7073   2.633   6.647   6.101 -0.4434  2.6790 -0.0724
   55DOPE  C312 7074   2.779   6.801   6.125 -0.0847 -0.8947  0.1782
   55DOPE  H12X 7075   2.695   6.870   6.102 -1.3419 -1.7728  1.8662
   55DOPE  H12Y 7076   2.874   6.845   6.090  0.2145 -0.4677  1.4640
   55DOPE  C313 7077   2.798   6.800   6.270  0.8436  0.6871  0.1542
   55DOPE  H13X 7078   2.702   6.765   6.315  0.2719  0.8391 -0.9296
   55DOPE  H13Y 7079   2.868   6.721   6.306 -0.0339 -0.2856 -0.2260
   55DOPE  C314 7080   2.838   6.932   6.345  0.4661  0.5245  0.8092
   55DOPE  H14X 7081   2.765   7.010   6.315 -0.4801 -0.7917 -0.4838
   55DOPE  H14Y 7082   2.941   6.958   6.313  1.3332 -2.4584  0.9207
   55DOPE  C315 7083   2.824   6.918   6.498 -0.8659 -0.1352 -0.0014
   55DOPE  H15X 7084   2.897   6.845   6.539 -0.1906  0.5725  0.0827
   55DOPE  H15Y 7085   2.727   6.875   6.529 -0.7652 -1.0421 -0.8709
   55DOPE  C316 7086   2.862   7.046   6.573 -0.6213 -0.4186  0.5730
   55DOPE  H16X 7087   2.790   7.122   6.536 -0.0373 -1.0262 -2.0350
   55DOPE  H16Y 7088   2.960   7.084   6.536  0.5415 -2.7177  1.1233
   55DOPE  C317 7089   2.862   7.036   6.727  0.4895 -0.8960 -0.1073
   55DOPE  H17X 7090   2.913   7.127   6.764  1.0690 -1.5094  0.6173
   55DOPE  H17Y 7091   2.753   7.032   6.749  0.4769 -1.6805 -0.2766
   55DOPE  C318 7092   2.914   6.907   6.786  0.1160 -0.3897 -0.2371
   55DOPE  H18X 7093   2.909   6.912   6.897 -0.7593  0.3632 -0.2961
   55DOPE  H18Y 7094   2.849   6.826   6.746  0.6245 -0.1159 -1.6824
   55DOPE  H18Z 7095   3.019   6.889   6.756  0.2480 -1.7214  0.9392
   56DOPE     N 7096   5.612   2.024   3.349  0.2907  0.4613  0.8138
   56DOPE   HN1 7097   5.654   1.944   3.298  0.3630  1.6154 -1.0289
   56DOPE   HN2 7098   5.549   2.080   3.288  0.9890  1.7009  1.1853
   56DOPE   HN3 7099   5.697   2.080   3.373  0.0772  1.3562 -0.4405
   56DOPE   C12 7100   5.531   1.983   3.467 -0.8284  0.0845  0.5238
   56DOPE  H12A 7101   5.452   1.916   3.428  0.7277 -1.5472  0.0448
   56DOPE  H12B 7102   5.511   2.078   3.521  2.2656  0.4053  1.3055
   56DOPE   C11 7103   5.609   1.904   3.570  0.1517 -0.7942  0.2646
   56DOPE  H11A 7104   5.556   1.913   3.667 -1.4662  0.9544 -0.7131
   56DOPE  H11B 7105   5.704   1.957   3.595 -0.2185 -0.5829  1.2747
   56DOPE     P 7106   5.544   1.648   3.528  0.1112 -0.7106 -0.0207
   56DOPE   O13 7107   5.547   1.591   3.394  0.2847  1.2026  0.0381
   56DOPE   O14 7108   5.407   1.685   3.581 -0.7925 -0.3763  0.5713
   56DOPE   O11 7109   5.605   1.550   3.637 -0.4826  0.1866  0.6171
   56DOPE   O12 7110   5.642   1.773   3.536 -0.6758 -0.0598  0.6918
   56DOPE    C1 7111   5.741   1.533   3.665 -0.2851  0.1086 -0.7354
   56DOPE    HA 7112   5.805   1.612   3.620 -0.4629  1.0645  0.6280
   56DOPE    HB 7113   5.770   1.437   3.617 -1.9746 -0.6878 -0.2565
   56DOPE    C2 7114   5.764   1.528   3.819 -0.5034  0.2995  0.2315
   56DOPE    HS 7115   5.874   1.523   3.831 -0.6868 -2.0259  1.3552
   56DOPE   O21 7116   5.691   1.412   3.853  0.1152  0.0224 -0.5907
   56DOPE   C21 7117   5.725   1.365   3.972 -0.4380 -0.8478  0.3631
   56DOPE   O22 7118   5.833   1.377   4.027 -0.2274 -0.7255  0.4341
   56DOPE   C22 7119   5.611   1.295   4.031  0.3308 -0.3755 -0.0990
   56DOPE   H2R 7120   5.657   1.227   4.105  0.5475  1.0711  1.1342
   56DOPE   H2S 7121   5.555   1.237   3.954 -1.2524  0.2195  0.5722
   56DOPE    C3 7122   5.707   1.653   3.885  0.7743  0.0959  0.0383
   56DOPE    HX 7123   5.596   1.648   3.888  0.2610  3.3339 -3.9559
   56DOPE    HY 7124   5.735   1.739   3.819  0.2294 -0.7030 -1.2703
   56DOPE   O31 7125   5.761   1.668   4.019 -0.2513 -0.1397 -0.3216
   56DOPE   C31 7126   5.878   1.734   4.026  0.2591  0.6461 -0.7613
   56DOPE   O32 7127   5.947   1.773   3.934 -0.1688  0.1440 -0.3701
   56DOPE   C32 7128   5.914   1.735   4.178  0.1779  0.0016  0.2639
   56DOPE   H2X 7129   5.858   1.819   4.225  1.0307  1.1778 -0.7842
   56DOPE   H2Y 7130   5.883   1.638   4.224 -1.4619  0.2538 -0.2229
   56DOPE   C23 7131   5.509   1.380   4.116 -0.5224 -0.9261 -0.2160
   56DOPE   H3R 7132   5.409   1.331   4.110 -1.1557  0.0203  1.7272
   56DOPE   H3S 7133   5.490   1.477   4.065 -0.1996 -1.9717 -2.4320
   56DOPE   C24 7134   5.554   1.387   4.260  0.5805 -0.2051 -1.4496
   56DOPE   H4R 7135   5.665   1.392   4.255  0.9970 -4.8507 -1.1457
   56DOPE   H4S 7136   5.536   1.290   4.310 -0.4706  0.5309 -0.3594
   56DOPE   C25 7137   5.490   1.496   4.351 -0.8071 -0.1281 -0.0191
   56DOPE   H5R 7138   5.393   1.465   4.395 -1.8403  1.9893 -0.6961
   56DOPE   H5S 7139   5.469   1.583   4.286  0.0782 -0.1251 -0.3158
   56DOPE   C26 7140   5.583   1.552   4.459 -0.4396 -0.5282 -1.4603
   56DOPE   H6R 7141   5.516   1.617   4.520 -0.6033 -0.5927 -1.5702
   56DOPE   H6S 7142   5.660   1.610   4.403 -0.4927  2.8660  1.6106
   56DOPE   C27 7143   5.634   1.448   4.558 -0.1882  0.0863  0.1601
   56DOPE   H7R 7144   5.671   1.363   4.497 -1.4369 -0.0727 -0.3953
   56DOPE   H7S 7145   5.548   1.400   4.608 -1.2937  2.0372  0.2261
   56DOPE   C28 7146   5.727   1.494   4.674  0.4529 -0.3210 -0.1813
   56DOPE   H8R 7147   5.814   1.539   4.620 -0.8296  2.1097 -0.3305
   56DOPE   H8S 7148   5.766   1.400   4.720 -1.7587 -1.3176 -0.1999
   56DOPE   C29 7149   5.661   1.590   4.773 -0.3266  0.6420  0.7627
   56DOPE   H9R 7150   5.594   1.668   4.735  0.7592  1.4920  0.5232
   56DOPE  C210 7151   5.668   1.578   4.904  0.5763 -0.3622  0.6583
   56DOPE  H10R 7152   5.619   1.657   4.963 -0.8084 -1.4573  1.0079
   56DOPE  C211 7153   5.739   1.474   4.990  0.5315 -0.0009  0.2107
   56DOPE  H11R 7154   5.752   1.386   4.924  1.0279 -1.5655  2.3052
   56DOPE  H11S 7155   5.677   1.447   5.078 -1.5134  2.4109 -0.3557
   56DOPE  C212 7156   5.879   1.519   5.032  0.1297 -0.3005  0.1418
   56DOPE  H12R 7157   5.940   1.547   4.944  0.3248  1.6115  0.8435
   56DOPE  H12S 7158   5.936   1.427   5.058  0.5534 -0.3944 -1.0550
   56DOPE  C213 7159   5.873   1.631   5.140  0.6155 -0.8740 -0.3855
   56DOPE  H13R 7160   5.817   1.712   5.089 -0.3369 -2.4898 -2.0390
   56DOPE  H13S 7161   5.973   1.674   5.159  0.4615 -1.6602  2.9485
   56DOPE  C214 7162   5.816   1.594   5.272  0.2071  0.0374  0.3189
   56DOPE  H14R 7163   5.849   1.489   5.287  0.8747  0.4514  1.9054
   56DOPE  H14S 7164   5.706   1.584   5.256  0.2956  0.6941 -0.8952
   56DOPE  C215 7165   5.848   1.686   5.384  0.1248  0.6992 -0.0007
   56DOPE  H15R 7166   5.839   1.792   5.353  0.5831  0.5985 -0.5072
   56DOPE  H15S 7167   5.951   1.665   5.421  0.9269  0.9096 -1.9941
   56DOPE  C216 7168   5.755   1.661   5.505  0.3420  0.8126 -0.3870
   56DOPE  H16R 7169   5.719   1.558   5.530  0.7043  0.8779  0.4287
   56DOPE  H16S 7170   5.666   1.724   5.483  2.0907  2.3900 -3.6617
   56DOPE  C217 7171   5.822   1.711   5.637  0.6243 -0.9688  0.1956
   56DOPE  H17R 7172   5.849   1.819   5.637 -2.3121 -0.0667  3.1936
   56DOPE  H17S 7173   5.913   1.648   5.650  1.1997 -0.5363 -1.5271
   56DOPE  C218 7174   5.728   1.688   5.760  0.1741 -0.5829  0.1447
   56DOPE  H18R 7175   5.694   1.583   5.754  1.3936 -1.0626  1.2632
   56DOPE  H18S 7176   5.641   1.757   5.768  2.0115  1.8778  0.2441
   56DOPE  H18T 7177   5.792   1.701   5.849 -0.3129  0.5121  0.3629
   56DOPE   C33 7178   6.064   1.755   4.228  0.4872 -0.4890  1.0170
   56DOPE   H3X 7179   6.116   1.837   4.174 -1.0608  0.9283  1.5790
   56DOPE   H3Y 7180   6.126   1.663   4.223  2.2782  0.7112  0.0435
   56DOPE   C34 7181   6.073   1.801   4.376  0.4096  0.0259  0.0417
   56DOPE   H4X 7182   6.176   1.819   4.414 -0.3833  1.5704  1.6253
   56DOPE   H4Y 7183   6.013   1.894   4.387  0.9888  0.3617  0.3564
   56DOPE   C35 7184   6.002   1.703   4.478 -1.0645 -0.7093 -0.3087
   56DOPE   H5X 7185   6.039   1.602   4.449 -2.6214 -0.7903 -2.1809
   56DOPE   H5Y 7186   5.891   1.700   4.473 -1.2266  2.6198 -0.6996
   56DOPE   C36 7187   6.057   1.734   4.619 -0.1864 -0.7532 -0.3840
   56DOPE   H6X 7188   6.168   1.744   4.617 -0.1603 -1.0818 -1.5518
   56DOPE   H6Y 7189   6.030   1.646   4.681 -1.5427  0.8535  1.4543
   56DOPE   C37 7190   5.982   1.854   4.684 -0.1548 -0.2125  0.1592
   56DOPE   H7X 7191   6.007   1.952   4.637  2.1164 -0.8378 -0.0355
   56DOPE   H7Y 7192   5.872   1.835   4.680  0.2064 -2.7364  0.8507
   56DOPE   C38 7193   6.021   1.864   4.833  0.4964  0.3803  0.3810
   56DOPE   H8X 7194   6.129   1.888   4.843  0.5676 -0.0849  0.8438
   56DOPE   H8Y 7195   6.019   1.763   4.881  0.5526 -0.0854 -0.5805
   56DOPE   C39 7196   5.959   1.974   4.907  0.2987 -0.3312 -0.8575
   56DOPE   H9X 7197   5.876   2.032   4.862  0.3781  0.0278 -0.5432
   56DOPE  C310 7198   6.014   2.021   5.019 -0.1016 -0.9961 -0.1194
   56DOPE  H10X 7199   5.962   2.105   5.068  1.3596 -0.8442  1.2781
   56DOPE  C311 7200   6.115   1.951   5.108  0.1803 -0.1529  0.3752
   56DOPE  H11X 7201   6.144   1.851   5.071 -0.3518  0.5940 -2.2268
   56DOPE  H11Y 7202   6.212   2.004   5.096  0.4321 -0.5894  0.4717
   56DOPE  C312 7203   6.092   1.959   5.262  0.0750  0.6030  0.3898
   56DOPE  H12X 7204   5.999   1.912   5.298  0.5609 -0.9099 -0.2629
   56DOPE  H12Y 7205   6.087   2.067   5.290  2.5805  1.1817 -0.9944
   56DOPE  C313 7206   6.218   1.909   5.337  0.1284 -0.0210  0.3317
   56DOPE  H13X 7207   6.226   1.799   5.321 -2.1672  0.0461 -1.8624
   56DOPE  H13Y 7208   6.314   1.937   5.289  0.8012 -1.0789  0.9880
   56DOPE  C314 7209   6.203   1.924   5.486 -0.1420 -0.5151 -0.3277
   56DOPE  H14X 7210   6.116   1.872   5.531 -1.7896  1.4963 -1.0312
   56DOPE  H14Y 7211   6.217   2.033   5.507  1.4328 -0.5226 -1.1475
   56DOPE  C315 7212   6.325   1.852   5.558  0.2135 -0.5916 -0.8944
   56DOPE  H15X 7213   6.411   1.915   5.528 -1.7659  2.3717 -0.7445
   56DOPE  H15Y 7214   6.338   1.749   5.517 -2.7870 -0.4822 -2.3501
   56DOPE  C316 7215   6.305   1.850   5.710  0.0434  0.1604 -0.1484
   56DOPE  H16X 7216   6.239   1.761   5.721  1.4474 -0.8064  0.7827
   56DOPE  H16Y 7217   6.265   1.943   5.756  1.5963  1.4290 -1.2659
   56DOPE  C317 7218   6.436   1.817   5.780 -0.0658 -0.0742 -0.5447
   56DOPE  H17X 7219   6.499   1.738   5.733  0.8969  0.9701 -1.0532
   56DOPE  H17Y 7220   6.513   1.896   5.770  1.1275 -0.7668  2.2816
   56DOPE  C318 7221   6.426   1.775   5.926  0.0131  0.5770 -0.1453
   56DOPE  H18X 7222   6.448   1.862   5.991  1.0343  0.2292  0.0034
   56DOPE  H18Y 7223   6.326   1.732   5.945  0.4515 -0.8443 -0.9008
   56DOPE  H18Z 7224   6.504   1.699   5.949 -0.0588  0.6130  0.2246
   57DOPE     N 7225   6.660   2.147   3.101 -1.1193  1.3648 -0.2286
   57DOPE   HN1 7226   6.590   2.071   3.116  0.3416  0.1224  0.5502
   57DOPE   HN2 7227   6.706   2.131   3.010 -1.5932  0.6308 -0.3451
   57DOPE   HN3 7228   6.724   2.129   3.181 -1.2447  0.0275 -0.4070
   57DOPE   C12 7229   6.599   2.287   3.102  0.1716 -0.6502  0.5016
   57DOPE  H12A 7230   6.557   2.297   3.000  1.1197  1.1759  0.2561
   57DOPE  H12B 7231   6.684   2.358   3.107  0.8717 -1.3418 -0.9015
   57DOPE   C11 7232   6.513   2.308   3.223  0.0136  0.6844 -0.4509
   57DOPE  H11A 7233   6.411   2.267   3.206 -0.0603  0.3002  0.8434
   57DOPE  H11B 7234   6.509   2.416   3.246 -1.2896  0.1835  1.9563
   57DOPE     P 7235   6.566   2.295   3.479 -0.3323  0.0205  0.0498
   57DOPE   O13 7236   6.437   2.255   3.540 -0.1558 -0.3125  0.4238
   57DOPE   O14 7237   6.592   2.441   3.466 -0.5388  0.4659  0.7142
   57DOPE   O11 7238   6.687   2.221   3.546  0.3093 -0.4509  0.1439
   57DOPE   O12 7239   6.561   2.232   3.339  0.0444  0.2081  0.2969
   57DOPE    C1 7240   6.655   2.151   3.666 -0.7141 -0.2262  0.1526
   57DOPE    HA 7241   6.737   2.075   3.671  1.3229  1.5580 -2.6707
   57DOPE    HB 7242   6.557   2.100   3.666 -0.5246 -0.7131 -1.8447
   57DOPE    C2 7243   6.656   2.241   3.789  0.1532  0.5393  0.3274
   57DOPE    HS 7244   6.557   2.291   3.792 -0.8833 -1.3726 -0.1718
   57DOPE   O21 7245   6.763   2.334   3.775 -0.0697  0.4059 -0.3378
   57DOPE   C21 7246   6.730   2.456   3.827  0.3876  0.2794  0.6194
   57DOPE   O22 7247   6.618   2.503   3.844  0.3844  0.4803 -0.0900
   57DOPE   C22 7248   6.864   2.521   3.868  0.0783  0.1029  0.5794
   57DOPE   H2R 7249   6.923   2.508   3.775 -2.1958  0.4568 -1.0042
   57DOPE   H2S 7250   6.909   2.473   3.958 -1.6604 -1.3798  0.7080
   57DOPE    C3 7251   6.673   2.165   3.922  0.1044  0.2117 -0.2703
   57DOPE    HX 7252   6.738   2.076   3.904 -0.3121 -0.3241  0.8023
   57DOPE    HY 7253   6.577   2.118   3.950  0.3972 -0.7962 -0.9006
   57DOPE   O31 7254   6.736   2.251   4.026  0.1726 -0.3489  0.0732
   57DOPE   C31 7255   6.659   2.304   4.121  0.2443 -0.0780 -0.1046
   57DOPE   O32 7256   6.538   2.290   4.131 -0.2332  0.8464  0.0974
   57DOPE   C32 7257   6.739   2.378   4.227  0.3403  0.2175 -0.2228
   57DOPE   H2X 7258   6.800   2.303   4.281  2.9677  3.2132  1.3306
   57DOPE   H2Y 7259   6.813   2.444   4.177  3.7536 -2.3448  1.0412
   57DOPE   C23 7260   6.849   2.676   3.895 -0.8606  0.2248 -0.1122
   57DOPE   H3R 7261   6.785   2.722   3.816  0.4761  2.4488  0.0169
   57DOPE   H3S 7262   6.952   2.713   3.873 -0.5048 -1.0864 -0.7657
   57DOPE   C24 7263   6.794   2.716   4.026  0.6765 -0.8981  0.5357
   57DOPE   H4R 7264   6.867   2.673   4.098  0.3978 -1.2646  0.6040
   57DOPE   H4S 7265   6.691   2.678   4.045  0.2539  1.1568  2.8461
   57DOPE   C25 7266   6.776   2.869   4.055 -0.3602 -0.3715  0.1101
   57DOPE   H5R 7267   6.721   2.915   3.970  2.0409  0.0213 -1.3260
   57DOPE   H5S 7268   6.877   2.913   4.046 -0.6150  0.0373 -0.8680
   57DOPE   C26 7269   6.707   2.892   4.189  0.2404 -0.7170 -0.4390
   57DOPE   H6R 7270   6.605   2.850   4.180 -1.2132  2.2719  0.5014
   57DOPE   H6S 7271   6.697   3.003   4.197  3.8368 -0.1466 -1.9428
   57DOPE   C27 7272   6.787   2.859   4.308  0.1829 -0.3423  0.0794
   57DOPE   H7R 7273   6.885   2.912   4.311  1.4339 -2.5166  0.1048
   57DOPE   H7S 7274   6.819   2.753   4.296 -0.6472 -0.7481  1.2542
   57DOPE   C28 7275   6.717   2.884   4.443  0.2275 -0.4691 -0.1806
   57DOPE   H8R 7276   6.778   2.838   4.524  0.8934  1.4363  0.4625
   57DOPE   H8S 7277   6.617   2.837   4.433  0.3563 -0.8641  0.3467
   57DOPE   C29 7278   6.697   3.030   4.477 -0.6094  0.6780  0.3344
   57DOPE   H9R 7279   6.608   3.076   4.432 -0.8819 -1.5775 -1.6935
   57DOPE  C210 7280   6.774   3.104   4.560  0.1056  0.0122  0.2413
   57DOPE  H10R 7281   6.737   3.205   4.585  0.5876  1.0916 -2.9163
   57DOPE  C211 7282   6.901   3.058   4.621  0.3588 -0.1507 -0.7189
   57DOPE  H11R 7283   6.957   3.149   4.650  2.0839 -1.1398 -0.8324
   57DOPE  H11S 7284   6.962   2.998   4.550  1.3627 -1.7685  1.3987
   57DOPE  C212 7285   6.888   2.979   4.752  0.6518 -0.7061 -0.4552
   57DOPE  H12R 7286   6.980   2.920   4.775  0.2277 -1.1416  0.1487
   57DOPE  H12S 7287   6.810   2.901   4.740  0.2970 -0.4629  0.2262
   57DOPE  C213 7288   6.853   3.069   4.870  0.1063 -0.0462  0.4765
   57DOPE  H13R 7289   6.756   3.115   4.842 -1.2791 -0.9642  3.4331
   57DOPE  H13S 7290   6.934   3.145   4.874 -0.3674  0.4251  1.4488
   57DOPE  C214 7291   6.830   2.997   5.000 -0.1514  0.1426  0.7489
   57DOPE  H14R 7292   6.912   2.925   5.019  1.2464  1.1024 -1.2747
   57DOPE  H14S 7293   6.736   2.938   4.995 -0.8021  1.1849  0.0926
   57DOPE  C215 7294   6.828   3.083   5.123 -0.8896  0.2664 -0.0337
   57DOPE  H15R 7295   6.726   3.122   5.141 -0.6339  2.0777 -2.1837
   57DOPE  H15S 7296   6.886   3.177   5.113  2.8455 -1.4996  2.4167
   57DOPE  C216 7297   6.877   3.020   5.256 -0.8381  0.4899  0.3968
   57DOPE  H16R 7298   6.974   2.966   5.245 -1.0907  0.1061  0.0517
   57DOPE  H16S 7299   6.815   2.936   5.294  1.4545 -1.7195 -0.4026
   57DOPE  C217 7300   6.891   3.127   5.373  0.0682  0.1355 -0.1186
   57DOPE  H17R 7301   6.787   3.154   5.402  0.4560 -0.9007  2.4750
   57DOPE  H17S 7302   6.944   3.211   5.322  0.1835  0.5791  0.7124
   57DOPE  C218 7303   6.959   3.083   5.503  0.6769  0.0700 -0.9358
   57DOPE  H18R 7304   7.064   3.050   5.485  0.1408 -2.2488 -0.2360
   57DOPE  H18S 7305   6.899   3.000   5.547 -0.7969  1.4523 -0.2588
   57DOPE  H18T 7306   6.968   3.168   5.573  1.6440 -1.0653  0.3939
   57DOPE   C33 7307   6.656   2.436   4.341  0.2227 -0.4209 -0.3831
   57DOPE   H3X 7308   6.577   2.376   4.392  0.6136 -0.8490 -0.2821
   57DOPE   H3Y 7309   6.603   2.528   4.307  1.9803  1.3591  1.4456
   57DOPE   C34 7310   6.740   2.474   4.460  0.1310 -0.1931 -0.5827
   57DOPE   H4X 7311   6.803   2.393   4.501  1.5087  1.9158  1.7562
   57DOPE   H4Y 7312   6.822   2.543   4.431  0.8152 -0.2269  1.1312
   57DOPE   C35 7313   6.661   2.534   4.572  0.1599 -0.4213 -0.3975
   57DOPE   H5X 7314   6.590   2.460   4.615 -1.5024 -0.2315 -2.6275
   57DOPE   H5Y 7315   6.605   2.623   4.535  0.5925 -0.2553 -0.6507
   57DOPE   C36 7316   6.753   2.583   4.694 -0.0825 -0.2231 -0.7280
   57DOPE   H6X 7317   6.819   2.668   4.668 -0.2002 -0.3666 -1.5386
   57DOPE   H6Y 7318   6.823   2.498   4.710  0.5136 -0.1160 -2.5006
   57DOPE   C37 7319   6.660   2.608   4.817  0.4352  0.0337 -0.2706
   57DOPE   H7X 7320   6.598   2.697   4.794 -0.5529 -0.7405 -0.6833
   57DOPE   H7Y 7321   6.593   2.520   4.820  1.3200 -0.7774 -2.1711
   57DOPE   C38 7322   6.730   2.640   4.950 -0.5387 -0.5538 -0.0391
   57DOPE   H8X 7323   6.642   2.680   5.005  1.5858  0.1128  3.0836
   57DOPE   H8Y 7324   6.804   2.722   4.939  1.4576 -2.4213 -1.4525
   57DOPE   C39 7325   6.803   2.518   5.018 -0.1346  0.7422  0.2807
   57DOPE   H9X 7326   6.874   2.463   4.954 -0.6039  1.1910 -0.6507
   57DOPE  C310 7327   6.786   2.473   5.142 -0.1701 -0.5264 -0.2174
   57DOPE  H10X 7328   6.849   2.391   5.179 -1.4531 -0.7568  1.6329
   57DOPE  C311 7329   6.710   2.553   5.249 -0.2354  0.5514 -0.3172
   57DOPE  H11X 7330   6.687   2.660   5.228  1.1258  0.5321 -2.1726
   57DOPE  H11Y 7331   6.614   2.503   5.275  0.2635  0.1526  0.8021
   57DOPE  C312 7332   6.795   2.576   5.378  0.5573 -0.3668 -0.0972
   57DOPE  H12X 7333   6.870   2.654   5.357 -1.8639  1.9256 -0.8201
   57DOPE  H12Y 7334   6.846   2.483   5.409  0.0591 -0.4294  0.5569
   57DOPE  C313 7335   6.708   2.617   5.494  0.2458 -0.2403 -0.2834
   57DOPE  H13X 7336   6.637   2.695   5.460 -2.1948 -2.1950  0.0716
   57DOPE  H13Y 7337   6.648   2.529   5.527 -0.2338  0.1903  0.0031
   57DOPE  C314 7338   6.785   2.682   5.616  0.8721 -0.2580  0.5048
   57DOPE  H14X 7339   6.857   2.760   5.585 -2.3388  2.8080  0.1321
   57DOPE  H14Y 7340   6.838   2.602   5.672  2.6645  0.7030  0.2451
   57DOPE  C315 7341   6.680   2.748   5.707  0.0927  0.4301 -0.0312
   57DOPE  H15X 7342   6.610   2.797   5.636  0.1209  1.0179  0.3447
   57DOPE  H15Y 7343   6.727   2.831   5.764  0.4055  1.1924 -1.3475
   57DOPE  C316 7344   6.607   2.660   5.812  0.5027  0.1711 -0.1928
   57DOPE  H16X 7345   6.556   2.581   5.753  0.6990 -0.2625  0.2187
   57DOPE  H16Y 7346   6.536   2.727   5.866 -2.7929 -2.6538 -0.6199
   57DOPE  C317 7347   6.694   2.585   5.910 -0.8205  0.2391 -0.3514
   57DOPE  H17X 7348   6.647   2.488   5.937  0.4162  0.0374  1.2485
   57DOPE  H17Y 7349   6.796   2.571   5.868 -1.0871 -1.5421 -0.5002
   57DOPE  C318 7350   6.699   2.655   6.046 -0.1571 -0.0971  0.4882
   57DOPE  H18X 7351   6.720   2.764   6.045  0.8749 -0.2904  0.2962
   57DOPE  H18Y 7352   6.605   2.637   6.103 -0.5891  0.7743  0.0771
   57DOPE  H18Z 7353   6.783   2.615   6.106  0.4875  1.9284  1.0267
   58DOPE     N 7354   1.469   6.633   4.431  0.1745 -0.1169  0.2496
   58DOPE   HN1 7355   1.373   6.663   4.402 -0.0620 -0.6612  0.4506
   58DOPE   HN2 7356   1.524   6.639   4.343  0.9534 -1.0472  0.6546
   58DOPE   HN3 7357   1.464   6.537   4.471  3.3311 -0.5776 -0.2192
   58DOPE   C12 7358   1.503   6.749   4.532  0.3159  0.3078  0.5363
   58DOPE  H12A 7359   1.412   6.762   4.594  0.3005  1.5057  0.2858
   58DOPE  H12B 7360   1.522   6.839   4.469 -4.0515 -0.3708 -2.1552
   58DOPE   C11 7361   1.621   6.709   4.634  0.0554 -0.6045 -0.7472
   58DOPE  H11A 7362   1.577   6.643   4.712 -0.7283  2.6705  1.7734
   58DOPE  H11B 7363   1.630   6.808   4.682 -1.7465 -0.6562 -0.2206
   58DOPE     P 7364   1.848   6.774   4.531  0.1402 -0.1901 -0.6733
   58DOPE   O13 7365   1.782   6.869   4.434  0.5194  0.8883 -0.2818
   58DOPE   O14 7366   1.965   6.704   4.483 -0.0034  0.0857 -0.0884
   58DOPE   O11 7367   1.880   6.853   4.657  0.5803  0.4479 -0.6317
   58DOPE   O12 7368   1.741   6.666   4.570  0.0401  0.6641 -0.1748
   58DOPE    C1 7369   1.908   6.809   4.788  0.2743  0.4346 -0.0282
   58DOPE    HA 7370   2.017   6.825   4.799  0.1839  2.4834 -1.4082
   58DOPE    HB 7371   1.879   6.703   4.803 -0.9975  1.0124  2.0306
   58DOPE    C2 7372   1.838   6.894   4.895  0.2004 -1.2310  1.1218
   58DOPE    HS 7373   1.728   6.890   4.884  0.2868  1.9256 -3.7151
   58DOPE   O21 7374   1.878   7.030   4.864  0.3117  0.0833  0.5198
   58DOPE   C21 7375   1.785   7.117   4.875 -0.6470 -0.2292  0.2697
   58DOPE   O22 7376   1.665   7.103   4.903 -0.7829 -0.6877 -0.7453
   58DOPE   C22 7377   1.844   7.256   4.847  0.2794  0.1833  0.0526
   58DOPE   H2R 7378   1.845   7.267   4.737 -1.2547  0.3892  0.0398
   58DOPE   H2S 7379   1.949   7.256   4.884  0.2538 -0.0461  0.1267
   58DOPE    C3 7380   1.890   6.859   5.038 -0.7863  0.1755  0.3044
   58DOPE    HX 7381   1.984   6.917   5.051  0.8086 -1.8530 -1.4145
   58DOPE    HY 7382   1.914   6.751   5.045  1.8275  0.6561 -0.0533
   58DOPE   O31 7383   1.801   6.900   5.143 -0.8833  0.5044 -0.7314
   58DOPE   C31 7384   1.679   6.841   5.153  0.1110  0.8402  0.1589
   58DOPE   O32 7385   1.647   6.731   5.103 -0.5497 -0.2589 -0.3876
   58DOPE   C32 7386   1.588   6.924   5.237 -0.2428 -0.4755 -0.0058
   58DOPE   H2X 7387   1.589   7.027   5.194  1.5009 -0.2652  0.4687
   58DOPE   H2Y 7388   1.483   6.886   5.229 -0.7011  1.1388 -3.0303
   58DOPE   C23 7389   1.775   7.381   4.921 -0.7738 -0.9502 -0.0095
   58DOPE   H3R 7390   1.665   7.386   4.909 -0.8189  0.0364  0.7683
   58DOPE   H3S 7391   1.817   7.466   4.863 -0.6803 -2.4753 -2.3392
   58DOPE   C24 7392   1.828   7.387   5.061 -0.8911  0.1328  0.5584
   58DOPE   H4R 7393   1.934   7.415   5.075 -1.1454  1.0437  0.7665
   58DOPE   H4S 7394   1.826   7.286   5.106  0.0508 -0.6976 -1.1938
   58DOPE   C25 7395   1.748   7.493   5.133  0.5699  0.1394 -0.1205
   58DOPE   H5R 7396   1.644   7.493   5.095  0.1859  0.6390  0.8922
   58DOPE   H5S 7397   1.784   7.592   5.096  0.2545  0.3925  0.2392
   58DOPE   C26 7398   1.758   7.479   5.285 -0.5126  0.2577  0.3108
   58DOPE   H6R 7399   1.864   7.479   5.318 -1.1389  0.2133  2.4886
   58DOPE   H6S 7400   1.723   7.375   5.306  0.5513  0.2478  2.1817
   58DOPE   C27 7401   1.686   7.584   5.367 -0.0444  0.5107  0.2727
   58DOPE   H7R 7402   1.579   7.590   5.340  0.1716  1.4792 -0.4149
   58DOPE   H7S 7403   1.733   7.679   5.334  0.4616  0.2448  0.2118
   58DOPE   C28 7404   1.709   7.557   5.523 -0.7454  0.7874  0.6382
   58DOPE   H8R 7405   1.665   7.646   5.572  1.8368  2.1978  0.5923
   58DOPE   H8S 7406   1.817   7.582   5.534 -0.5403  0.6433 -0.8122
   58DOPE   C29 7407   1.671   7.425   5.580 -0.2600  0.0048 -0.6364
   58DOPE   H9R 7408   1.610   7.359   5.517  1.6474 -1.3995 -1.0906
   58DOPE  C210 7409   1.710   7.371   5.697 -0.2569 -0.3010  0.2269
   58DOPE  H10R 7410   1.691   7.264   5.710 -0.1634 -0.5974 -1.7654
   58DOPE  C211 7411   1.813   7.428   5.791 -0.7650 -0.4424 -0.9191
   58DOPE  H11R 7412   1.824   7.536   5.770 -0.0947 -0.3855 -0.2950
   58DOPE  H11S 7413   1.907   7.373   5.768 -0.6888 -0.4354 -0.6184
   58DOPE  C212 7414   1.786   7.395   5.939 -0.0129  0.0218  0.0597
   58DOPE  H12R 7415   1.791   7.286   5.961 -1.1645 -0.1380 -0.3605
   58DOPE  H12S 7416   1.678   7.420   5.947  0.0467  0.7888 -1.3823
   58DOPE  C213 7417   1.874   7.464   6.037 -0.3414 -0.0062 -0.4163
   58DOPE  H13R 7418   1.912   7.563   6.007 -0.6745  0.4610  0.6554
   58DOPE  H13S 7419   1.968   7.408   6.057  1.4221  2.7220 -0.5752
   58DOPE  C214 7420   1.807   7.472   6.168 -0.2916  0.7275 -0.7902
   58DOPE  H14R 7421   1.781   7.365   6.185 -0.1752  0.7992 -0.1122
   58DOPE  H14S 7422   1.716   7.530   6.145 -0.4216  0.5658 -0.6877
   58DOPE  C215 7423   1.894   7.542   6.277 -0.8068  0.1022  0.2913
   58DOPE  H15R 7424   1.877   7.652   6.277 -0.5342  0.1684 -1.1457
   58DOPE  H15S 7425   2.003   7.538   6.253 -1.1646 -0.7280 -1.3384
   58DOPE  C216 7426   1.862   7.496   6.423  0.1046  0.5680  0.6306
   58DOPE  H16R 7427   1.931   7.539   6.498  1.2779 -1.7113  0.9503
   58DOPE  H16S 7428   1.876   7.386   6.425 -2.3133  0.1985  0.9595
   58DOPE  C217 7429   1.718   7.519   6.462  0.1973  0.4544  0.1041
   58DOPE  H17R 7430   1.654   7.506   6.372  2.9532  1.4269 -2.1305
   58DOPE  H17S 7431   1.713   7.627   6.487 -1.7986  0.5787 -0.5970
   58DOPE  C218 7432   1.683   7.438   6.593  0.0512 -0.4604  0.3895
   58DOPE  H18R 7433   1.674   7.331   6.564 -1.0787  0.0288 -1.1452
   58DOPE  H18S 7434   1.587   7.472   6.637  0.2380  0.4672  0.0948
   58DOPE  H18T 7435   1.763   7.445   6.671  1.4389  0.5973 -1.0612
   58DOPE   C33 7436   1.628   6.928   5.382  0.2940 -0.2383 -0.1722
   58DOPE   H3X 7437   1.558   6.993   5.438  1.5704  0.3580  0.7787
   58DOPE   H3Y 7438   1.729   6.969   5.403 -0.6932  2.3465 -0.0648
   58DOPE   C34 7439   1.610   6.788   5.447 -0.3038 -0.0677 -0.2262
   58DOPE   H4X 7440   1.511   6.746   5.418 -1.1781  0.9541  1.1473
   58DOPE   H4Y 7441   1.689   6.721   5.407  0.2130  0.2277  0.2987
   58DOPE   C35 7442   1.629   6.789   5.604  0.1595  0.0271  0.6344
   58DOPE   H5X 7443   1.726   6.839   5.626  1.1676 -0.0603 -2.9550
   58DOPE   H5Y 7444   1.628   6.685   5.643  2.0271  0.6655  2.6375
   58DOPE   C36 7445   1.517   6.871   5.678  0.9216  0.0146  0.0541
   58DOPE   H6X 7446   1.424   6.831   5.631 -0.3104  0.8087  1.7016
   58DOPE   H6Y 7447   1.526   6.978   5.650  0.9631 -0.4016 -1.6393
   58DOPE   C37 7448   1.505   6.834   5.828 -0.4437 -0.3759 -0.0750
   58DOPE   H7X 7449   1.471   6.730   5.844 -0.7824 -0.3611 -0.6582
   58DOPE   H7Y 7450   1.612   6.841   5.858 -0.6497 -1.1744  0.8768
   58DOPE   C38 7451   1.415   6.930   5.904  0.3020  0.0014 -0.1636
   58DOPE   H8X 7452   1.388   6.891   6.004  0.5834  1.1481  0.3867
   58DOPE   H8Y 7453   1.316   6.936   5.854 -0.2327 -0.1330  0.8548
   58DOPE   C39 7454   1.472   7.069   5.917  0.6133 -0.1279 -0.6821
   58DOPE   H9X 7455   1.519   7.101   5.823  1.2585  1.8273  0.2541
   58DOPE  C310 7456   1.487   7.139   6.032  0.1321 -0.4659  0.1370
   58DOPE  H10X 7457   1.544   7.233   6.039 -1.4051  0.3789  2.1509
   58DOPE  C311 7458   1.442   7.089   6.171  0.4647 -0.2989  0.1701
   58DOPE  H11X 7459   1.382   6.995   6.168 -0.5184  0.3494 -0.8091
   58DOPE  H11Y 7460   1.526   7.063   6.239  1.6439  2.6704  0.0037
   58DOPE  C312 7461   1.366   7.203   6.240 -0.4352  0.1385  0.1671
   58DOPE  H12X 7462   1.339   7.158   6.338 -0.4743  0.3837  0.2683
   58DOPE  H12Y 7463   1.274   7.216   6.178  0.7612  1.6829 -1.3913
   58DOPE  C313 7464   1.443   7.335   6.263 -0.2931  0.1378 -1.2548
   58DOPE  H13X 7465   1.544   7.311   6.301  0.5673  1.5551 -2.5036
   58DOPE  H13Y 7466   1.465   7.389   6.168 -1.6509  3.8859  0.3645
   58DOPE  C314 7467   1.376   7.435   6.353 -0.1130  0.4555 -0.2341
   58DOPE  H14X 7468   1.284   7.467   6.299 -0.6362 -0.0773  0.3279
   58DOPE  H14Y 7469   1.444   7.521   6.365 -1.0398  1.0516  0.9227
   58DOPE  C315 7470   1.334   7.374   6.491 -0.5695  0.1914 -1.3953
   58DOPE  H15X 7471   1.420   7.320   6.536 -2.4434 -1.6228  0.1692
   58DOPE  H15Y 7472   1.249   7.304   6.481 -1.6362  1.6974 -4.4921
   58DOPE  C316 7473   1.293   7.487   6.583 -0.3717 -0.2757 -0.6950
   58DOPE  H16X 7474   1.200   7.526   6.537  0.1122  1.1225 -0.5363
   58DOPE  H16Y 7475   1.362   7.574   6.586  1.5788 -1.7784 -0.5727
   58DOPE  C317 7476   1.256   7.463   6.730 -0.2667  0.4030  0.0523
   58DOPE  H17X 7477   1.210   7.552   6.777  0.6204  0.0145  1.7529
   58DOPE  H17Y 7478   1.178   7.384   6.741  0.2035 -0.1341 -0.3814
   58DOPE  C318 7479   1.386   7.426   6.814  0.3626 -0.2802 -0.1309
   58DOPE  H18X 7480   1.439   7.524   6.820  0.5512 -0.4200  0.6847
   58DOPE  H18Y 7481   1.365   7.408   6.922  0.9288  0.7656  0.1698
   58DOPE  H18Z 7482   1.443   7.341   6.771 -0.9088 -1.1470 -0.1608
   59DOPE     N 7483   5.661   2.545   3.393 -0.5950  0.2254  0.7900
   59DOPE   HN1 7484   5.671   2.619   3.321 -0.6193 -0.9975 -0.5162
   59DOPE   HN2 7485   5.753   2.502   3.413 -0.7575 -0.7749 -0.4700
   59DOPE   HN3 7486   5.603   2.468   3.354  0.4914  0.4394 -1.4088
   59DOPE   C12 7487   5.596   2.604   3.520 -0.3803  0.2755  0.2243
   59DOPE  H12A 7488   5.539   2.525   3.573 -0.9370  1.3343  1.2372
   59DOPE  H12B 7489   5.521   2.678   3.488  0.0430  0.1003 -1.2903
   59DOPE   C11 7490   5.697   2.668   3.614  0.4465 -0.5243  0.0121
   59DOPE  H11A 7491   5.770   2.597   3.657 -1.1402 -0.9281  2.2459
   59DOPE  H11B 7492   5.636   2.708   3.698  0.2147  1.3939 -1.0157
   59DOPE     P 7493   5.716   2.922   3.552 -0.5138  0.0414  0.2777
   59DOPE   O13 7494   5.569   2.930   3.550 -0.2336 -0.1226  0.4169
   59DOPE   O14 7495   5.776   3.000   3.441  0.0885  0.5724  0.9128
   59DOPE   O11 7496   5.773   2.980   3.686  0.4225  0.3269 -0.4676
   59DOPE   O12 7497   5.764   2.772   3.547 -0.6562 -0.1977  0.2464
   59DOPE    C1 7498   5.915   2.945   3.713  0.0579 -0.0509  0.2372
   59DOPE    HA 7499   5.966   3.034   3.756  0.7343 -0.0437 -0.5515
   59DOPE    HB 7500   5.982   2.924   3.627  0.9814  1.4111  0.5556
   59DOPE    C2 7501   5.935   2.835   3.824  0.1094 -0.5779  0.4342
   59DOPE    HS 7502   5.919   2.740   3.770  0.1464 -0.4610  0.2186
   59DOPE   O21 7503   5.843   2.850   3.934  0.1703  0.1547  0.0186
   59DOPE   C21 7504   5.816   2.733   3.993 -0.6362 -0.7739  0.8395
   59DOPE   O22 7505   5.864   2.625   3.959 -0.0884  0.2530 -0.0903
   59DOPE   C22 7506   5.722   2.766   4.106  0.6050 -0.4827  0.0172
   59DOPE   H2R 7507   5.623   2.797   4.066  1.0160  1.7204  0.5760
   59DOPE   H2S 7508   5.769   2.852   4.158 -1.7353  1.3697 -0.7380
   59DOPE    C3 7509   6.082   2.840   3.876 -0.0605 -0.1721 -0.0781
   59DOPE    HX 7510   6.149   2.814   3.791 -1.4806 -0.3962 -1.1636
   59DOPE    HY 7511   6.105   2.755   3.943 -1.3968 -1.3096 -1.0193
   59DOPE   O31 7512   6.120   2.966   3.930  0.7898 -0.0770  0.3852
   59DOPE   C31 7513   6.126   2.976   4.060 -0.2027 -0.0954 -0.2632
   59DOPE   O32 7514   6.103   2.877   4.134 -0.5024 -0.4044  0.1905
   59DOPE   C32 7515   6.182   3.111   4.109  0.3386  0.3860 -0.0165
   59DOPE   H2X 7516   6.289   3.113   4.081 -0.4126 -0.1538 -3.3737
   59DOPE   H2Y 7517   6.126   3.183   4.046  1.0853  0.0206 -1.1300
   59DOPE   C23 7518   5.717   2.659   4.217  0.0810  0.3641  0.5177
   59DOPE   H3R 7519   5.812   2.606   4.192  0.8190  2.0451 -0.3945
   59DOPE   H3S 7520   5.632   2.588   4.208  0.4252  0.0590 -0.6365
   59DOPE   C24 7521   5.728   2.717   4.361 -0.3560 -0.3662  0.5147
   59DOPE   H4R 7522   5.627   2.743   4.399  0.2620 -0.5030  2.3528
   59DOPE   H4S 7523   5.794   2.806   4.357  0.4346 -0.7767  3.0351
   59DOPE   C25 7524   5.802   2.619   4.458  0.3319 -0.3312  0.1930
   59DOPE   H5R 7525   5.904   2.606   4.415  0.3546 -1.4743  0.5509
   59DOPE   H5S 7526   5.757   2.518   4.470 -2.3620  0.5960 -1.4183
   59DOPE   C26 7527   5.805   2.671   4.604 -0.0676  0.2046 -0.0532
   59DOPE   H6R 7528   5.703   2.707   4.628  0.2846  0.3626  1.3189
   59DOPE   H6S 7529   5.872   2.760   4.613  0.6245 -0.3446  0.3803
   59DOPE   C27 7530   5.839   2.567   4.703 -0.0375  0.2937 -0.0577
   59DOPE   H7R 7531   5.931   2.517   4.666  0.5105  0.9295  0.4127
   59DOPE   H7S 7532   5.750   2.501   4.707  1.6066 -2.0525 -0.1542
   59DOPE   C28 7533   5.882   2.602   4.846 -0.0587  0.5922  0.0167
   59DOPE   H8R 7534   5.822   2.679   4.898 -1.1273 -2.5708  3.9295
   59DOPE   H8S 7535   5.984   2.647   4.844 -0.8059  2.4610  1.4291
   59DOPE   C29 7536   5.864   2.478   4.936  0.1318  0.1335  0.7381
   59DOPE   H9R 7537   5.911   2.384   4.903  0.3760 -0.7360  3.3435
   59DOPE  C210 7538   5.780   2.455   5.043 -0.1609  0.1088 -0.8146
   59DOPE  H10R 7539   5.796   2.361   5.097 -1.4657 -0.0416 -0.6675
   59DOPE  C211 7540   5.685   2.551   5.109 -0.3529  0.0350 -0.0362
   59DOPE  H11R 7541   5.588   2.498   5.120 -0.5728  0.6205  0.9395
   59DOPE  H11S 7542   5.684   2.647   5.055  1.0833 -1.2541 -2.5289
   59DOPE  C212 7543   5.735   2.584   5.249 -0.3936 -0.0701 -0.3227
   59DOPE  H12R 7544   5.674   2.670   5.284  0.4979 -0.2501  1.8588
   59DOPE  H12S 7545   5.841   2.614   5.237  0.2415 -0.0549  3.7719
   59DOPE  C213 7546   5.735   2.478   5.363 -0.5296  0.3449 -0.3236
   59DOPE  H13R 7547   5.801   2.390   5.352 -0.9832 -0.2584  1.4815
   59DOPE  H13S 7548   5.631   2.442   5.376 -0.5100  0.0702 -0.8857
   59DOPE  C214 7549   5.781   2.546   5.500  0.4218  0.2592 -0.0670
   59DOPE  H14R 7550   5.733   2.642   5.526 -0.6824 -0.7135  1.6515
   59DOPE  H14S 7551   5.890   2.561   5.511 -0.1352  2.9117  3.6751
   59DOPE  C215 7552   5.753   2.454   5.616 -0.3408  0.0300 -0.3230
   59DOPE  H15R 7553   5.647   2.420   5.617 -0.3913 -0.0054  2.2631
   59DOPE  H15S 7554   5.771   2.516   5.707  2.7882 -0.4624 -0.4884
   59DOPE  C216 7555   5.835   2.326   5.620 -0.8832 -0.6798 -0.0548
   59DOPE  H16R 7556   5.941   2.358   5.634 -0.5599 -0.9723 -1.6143
   59DOPE  H16S 7557   5.820   2.273   5.524  1.4056 -0.7880 -0.4000
   59DOPE  C217 7558   5.794   2.227   5.736 -1.0946 -0.5409  0.6258
   59DOPE  H17R 7559   5.690   2.193   5.717 -0.9721  0.0165 -1.2666
   59DOPE  H17S 7560   5.798   2.290   5.828 -0.2258  0.5300 -0.1248
   59DOPE  C218 7561   5.896   2.109   5.743 -0.7027 -0.4443 -0.3267
   59DOPE  H18R 7562   5.867   2.020   5.803  1.0021 -0.1907  0.9307
   59DOPE  H18S 7563   5.987   2.153   5.789 -1.2656  0.9992 -0.5505
   59DOPE  H18T 7564   5.929   2.074   5.642 -1.4584 -2.3244  0.0265
   59DOPE   C33 7565   6.175   3.124   4.260  0.2093  0.3701 -0.3278
   59DOPE   H3X 7566   6.242   3.051   4.309 -0.9464  0.3778  1.3482
   59DOPE   H3Y 7567   6.073   3.108   4.301  1.2419 -0.7611  1.9776
   59DOPE   C34 7568   6.210   3.271   4.312 -0.2767  0.1312 -0.4285
   59DOPE   H4X 7569   6.320   3.271   4.327 -0.4733 -0.8339  1.2644
   59DOPE   H4Y 7570   6.179   3.351   4.241 -1.2098  0.2377  0.0789
   59DOPE   C35 7571   6.144   3.299   4.445  0.4141  0.3086  0.0249
   59DOPE   H5X 7572   6.165   3.215   4.514 -1.4820 -0.2288  0.0065
   59DOPE   H5Y 7573   6.034   3.305   4.427  0.4696  0.2786 -0.3251
   59DOPE   C36 7574   6.181   3.441   4.508 -0.2627  1.5020 -0.1941
   59DOPE   H6X 7575   6.191   3.511   4.422  1.9669 -0.6085 -1.7940
   59DOPE   H6Y 7576   6.279   3.426   4.557 -0.8863 -0.5534  0.5405
   59DOPE   C37 7577   6.071   3.495   4.607  0.2774  0.1145 -0.4309
   59DOPE   H7X 7578   6.090   3.603   4.619  0.4386  0.1360 -0.8586
   59DOPE   H7Y 7579   5.971   3.488   4.559  0.3035 -0.7110 -0.3888
   59DOPE   C38 7580   6.062   3.415   4.740  0.0035 -0.2974 -0.3043
   59DOPE   H8X 7581   6.076   3.307   4.720  2.8203 -0.2223  0.7687
   59DOPE   H8Y 7582   5.958   3.413   4.776 -0.4796  1.4523 -1.4361
   59DOPE   C39 7583   6.173   3.460   4.834 -0.2733 -0.3372  0.2699
   59DOPE   H9X 7584   6.273   3.452   4.789 -0.5468 -0.9091 -0.2591
   59DOPE  C310 7585   6.161   3.476   4.964  0.0441 -0.4672  0.0470
   59DOPE  H10X 7586   6.246   3.512   5.024 -0.2558 -0.6336  0.5710
   59DOPE  C311 7587   6.040   3.447   5.049  0.0089 -0.1682  0.3755
   59DOPE  H11X 7588   5.958   3.413   4.982  0.3183 -1.2413  0.5247
   59DOPE  H11Y 7589   6.056   3.354   5.107 -0.1728 -0.0528  0.6128
   59DOPE  C312 7590   5.998   3.563   5.136  0.2708 -0.1150 -0.2152
   59DOPE  H12X 7591   5.900   3.534   5.179  1.2673 -2.3597  0.7219
   59DOPE  H12Y 7592   5.988   3.660   5.082  0.8948  0.4752  0.6993
   59DOPE  C313 7593   6.103   3.582   5.247  0.4586  0.3275 -0.4086
   59DOPE  H13X 7594   6.193   3.615   5.192 -0.2891 -0.4808 -2.1769
   59DOPE  H13Y 7595   6.074   3.664   5.316  2.3870 -0.6216  1.6773
   59DOPE  C314 7596   6.116   3.456   5.338 -0.5523 -0.4020  0.4209
   59DOPE  H14X 7597   6.175   3.374   5.294 -0.6616 -0.0130 -0.4897
   59DOPE  H14Y 7598   6.023   3.395   5.338 -1.2734  0.6258 -0.6198
   59DOPE  C315 7599   6.152   3.497   5.477  0.5290  0.0213 -0.1797
   59DOPE  H15X 7600   6.054   3.534   5.515 -0.5632 -1.5300 -1.3541
   59DOPE  H15Y 7601   6.225   3.580   5.478  1.6100 -0.9108  1.0896
   59DOPE  C316 7602   6.204   3.379   5.554 -0.0597 -0.1272 -0.0559
   59DOPE  H16X 7603   6.297   3.347   5.502  0.2643  0.1394  0.3470
   59DOPE  H16Y 7604   6.141   3.288   5.555 -0.9627  0.4370 -1.6757
   59DOPE  C317 7605   6.244   3.424   5.692  0.7097 -0.5234  0.1041
   59DOPE  H17X 7606   6.284   3.336   5.746  0.8954  0.6528  1.9979
   59DOPE  H17Y 7607   6.312   3.512   5.683 -0.7243  0.5827 -0.2532
   59DOPE  C318 7608   6.126   3.480   5.775 -0.2743  0.2900  0.0583
   59DOPE  H18X 7609   6.046   3.403   5.782 -1.0164  1.2173  3.6836
   59DOPE  H18Y 7610   6.171   3.518   5.869  0.2961  0.0511 -0.1194
   59DOPE  H18Z 7611   6.087   3.569   5.720 -1.0194  0.6116  1.0885
   60DOPE     N 7612   6.246   2.071   3.544 -0.0841 -0.1896 -0.2944
   60DOPE   HN1 7613   6.230   1.993   3.610 -2.1704  0.3172 -0.1274
   60DOPE   HN2 7614   6.321   2.136   3.574 -1.2996  1.7804 -1.3102
   60DOPE   HN3 7615   6.153   2.118   3.540 -0.2966 -0.6441 -0.7002
   60DOPE   C12 7616   6.283   2.022   3.408 -0.1562  0.1407  0.3210
   60DOPE  H12A 7617   6.282   2.108   3.339  0.6950  1.5884  2.0231
   60DOPE  H12B 7618   6.206   1.949   3.373  1.5150 -2.1116  1.0746
   60DOPE   C11 7619   6.420   1.949   3.408  0.6804 -0.5799 -0.3272
   60DOPE  H11A 7620   6.497   2.029   3.416  1.0289 -1.0522  1.5083
   60DOPE  H11B 7621   6.433   1.901   3.309 -0.2447 -2.7194  0.5180
   60DOPE     P 7622   6.527   1.737   3.513 -0.1453 -0.2496  0.1063
   60DOPE   O13 7623   6.653   1.793   3.454 -0.5409 -0.4044 -0.1337
   60DOPE   O14 7624   6.468   1.617   3.453  0.0984 -0.7593 -0.5990
   60DOPE   O11 7625   6.561   1.706   3.667 -0.0416  0.5649 -0.0177
   60DOPE   O12 7626   6.416   1.855   3.517 -0.2472 -0.7777  0.6919
   60DOPE    C1 7627   6.516   1.798   3.767 -0.7790 -0.6439  0.5467
   60DOPE    HA 7628   6.408   1.772   3.771 -1.0824  0.0386 -2.0040
   60DOPE    HB 7629   6.537   1.901   3.730 -0.7428 -0.8605 -0.0427
   60DOPE    C2 7630   6.590   1.780   3.903  0.4112 -0.7392 -0.5331
   60DOPE    HS 7631   6.568   1.681   3.947 -0.7859  0.0850  0.7957
   60DOPE   O21 7632   6.546   1.885   3.986  0.0058  0.3381  0.4047
   60DOPE   C21 7633   6.446   1.855   4.064  0.8083  0.1182  0.4012
   60DOPE   O22 7634   6.377   1.752   4.052  0.2391 -0.2809 -0.3658
   60DOPE   C22 7635   6.438   1.960   4.173  0.1697  0.0178  0.0475
   60DOPE   H2R 7636   6.371   1.928   4.256 -0.8057 -0.0064 -0.7345
   60DOPE   H2S 7637   6.404   2.054   4.125 -1.2034 -0.8413 -0.7130
   60DOPE    C3 7638   6.742   1.783   3.884  0.2545  0.2432 -0.2235
   60DOPE    HX 7639   6.783   1.863   3.819  0.1062  0.7698  0.3197
   60DOPE    HY 7640   6.770   1.684   3.842  0.9931 -0.8936  2.6614
   60DOPE   O31 7641   6.810   1.812   4.014  0.1954  0.5553  0.9903
   60DOPE   C31 7642   6.829   1.701   4.084 -0.9833  0.0491 -0.2267
   60DOPE   O32 7643   6.794   1.589   4.052  0.3738 -0.4240  0.3440
   60DOPE   C32 7644   6.878   1.743   4.230  0.1385 -0.0699 -0.4736
   60DOPE   H2X 7645   6.897   1.852   4.227  0.8340 -0.2038 -2.2247
   60DOPE   H2Y 7646   6.788   1.715   4.289 -0.0286 -1.8716 -1.5114
   60DOPE   C23 7647   6.575   1.971   4.236  0.1352 -0.4211 -0.4842
   60DOPE   H3R 7648   6.651   2.014   4.167 -0.0262  0.1815 -0.2912
   60DOPE   H3S 7649   6.624   1.876   4.267 -0.5444 -0.0172  2.0828
   60DOPE   C24 7650   6.571   2.061   4.367  0.5009  0.4180  0.0749
   60DOPE   H4R 7651   6.497   2.143   4.355 -0.4532 -0.4930 -0.4352
   60DOPE   H4S 7652   6.677   2.092   4.377 -0.0226  2.4767 -0.2772
   60DOPE   C25 7653   6.537   1.967   4.479  0.4103 -0.0883 -0.0846
   60DOPE   H5R 7654   6.600   1.876   4.478  0.0957 -0.3373 -2.4975
   60DOPE   H5S 7655   6.434   1.925   4.477 -0.0395  0.7552  2.1292
   60DOPE   C26 7656   6.553   2.044   4.614 -0.0557 -0.1910  0.4330
   60DOPE   H6R 7657   6.482   1.990   4.680  0.6415 -1.2887  0.3313
   60DOPE   H6S 7658   6.512   2.146   4.604 -0.8247 -0.3645  1.7313
   60DOPE   C27 7659   6.697   2.049   4.670  0.3784  0.8079  0.2428
   60DOPE   H7R 7660   6.748   2.137   4.624 -0.2965  0.2090 -1.7565
   60DOPE   H7S 7661   6.763   1.967   4.633 -0.4696  0.2670 -0.0870
   60DOPE   C28 7662   6.705   2.059   4.825 -0.0235  0.0622  0.0842
   60DOPE   H8R 7663   6.810   2.038   4.855 -0.1148 -1.9277 -0.8091
   60DOPE   H8S 7664   6.648   1.978   4.877  2.0919 -0.9375  0.9511
   60DOPE   C29 7665   6.661   2.190   4.879  0.1666  0.2396 -0.4094
   60DOPE   H9R 7666   6.638   2.265   4.802 -2.0758  0.4686  0.4022
   60DOPE  C210 7667   6.626   2.202   5.006 -0.3008  0.3091  0.1634
   60DOPE  H10R 7668   6.594   2.300   5.047  1.5906 -0.8412  5.1753
   60DOPE  C211 7669   6.621   2.103   5.117  0.0323 -0.8597 -0.1655
   60DOPE  H11R 7670   6.687   2.014   5.107  1.7590  0.5584 -2.3269
   60DOPE  H11S 7671   6.518   2.067   5.137 -0.8375  1.5554  0.0292
   60DOPE  C212 7672   6.652   2.167   5.258 -0.2987 -0.1146  0.7887
   60DOPE  H12R 7673   6.577   2.248   5.274 -0.0534  0.4463 -0.7387
   60DOPE  H12S 7674   6.753   2.214   5.262  0.6571 -1.9939  0.0180
   60DOPE  C213 7675   6.631   2.069   5.375 -0.8975 -0.0046  0.0460
   60DOPE  H13R 7676   6.716   1.998   5.381 -1.4628 -0.5840  1.3502
   60DOPE  H13S 7677   6.549   1.999   5.349 -0.1491 -0.5901 -0.8422
   60DOPE  C214 7678   6.627   2.130   5.516  0.1381 -0.4413 -0.4585
   60DOPE  H14R 7679   6.622   2.047   5.590  0.9668  1.3651  1.7870
   60DOPE  H14S 7680   6.528   2.179   5.523  1.0217  1.2101  3.0734
   60DOPE  C215 7681   6.747   2.217   5.556 -0.1672 -0.1729 -0.5581
   60DOPE  H15R 7682   6.762   2.298   5.481  1.1904 -1.0408 -1.2584
   60DOPE  H15S 7683   6.847   2.171   5.538  1.2987  2.0048  1.4840
   60DOPE  C216 7684   6.730   2.291   5.696 -0.3516  0.8937 -0.1260
   60DOPE  H16R 7685   6.624   2.319   5.711 -0.7068  0.4697 -1.6833
   60DOPE  H16S 7686   6.793   2.383   5.697 -0.0755  0.7199  1.8829
   60DOPE  C217 7687   6.764   2.186   5.811 -0.8841  0.2121  0.0000
   60DOPE  H17R 7688   6.868   2.149   5.795 -0.1910  1.8025  0.5599
   60DOPE  H17S 7689   6.701   2.095   5.801 -0.0562 -0.2073 -1.8435
   60DOPE  C218 7690   6.778   2.245   5.952 -0.0554 -0.9660 -0.2334
   60DOPE  H18R 7691   6.841   2.336   5.940  0.2375 -1.4386 -2.8699
   60DOPE  H18S 7692   6.831   2.170   6.015 -1.1517 -1.2255  0.4222
   60DOPE  H18T 7693   6.683   2.283   5.997 -0.5490 -1.6230 -0.6999
   60DOPE   C33 7694   7.006   1.680   4.274 -0.2630  0.4615 -0.2034
   60DOPE   H3X 7695   7.081   1.705   4.195 -0.9417  0.0262 -1.0047
   60DOPE   H3Y 7696   6.984   1.572   4.268  0.2814  0.3473 -0.2509
   60DOPE   C34 7697   7.056   1.725   4.412  0.4497  0.2615 -0.1142
   60DOPE   H4X 7698   7.149   1.668   4.434  0.6284  0.5434 -0.1252
   60DOPE   H4Y 7699   7.086   1.832   4.404  0.6752  0.1328 -1.1022
   60DOPE   C35 7700   6.949   1.695   4.518  0.0403 -0.6240 -0.0446
   60DOPE   H5X 7701   6.921   1.588   4.517 -0.0495 -0.6106  0.5341
   60DOPE   H5Y 7702   6.854   1.752   4.507  0.5268  0.2326  0.1092
   60DOPE   C36 7703   7.006   1.734   4.657 -0.4231  0.0701  0.6157
   60DOPE   H6X 7704   7.045   1.837   4.676 -1.8102  0.9476 -0.9727
   60DOPE   H6Y 7705   7.098   1.674   4.671 -0.1457  0.3821  0.1725
   60DOPE   C37 7706   6.918   1.690   4.772  0.2961 -0.0426 -0.2308
   60DOPE   H7X 7707   6.833   1.761   4.782  0.0507 -0.6027  2.0644
   60DOPE   H7Y 7708   6.880   1.590   4.743 -1.2591  0.2631  0.6756
   60DOPE   C38 7709   6.985   1.665   4.901 -0.7724 -0.7974 -0.5686
   60DOPE   H8X 7710   7.071   1.598   4.876  0.6962  1.1684 -1.0305
   60DOPE   H8Y 7711   6.921   1.608   4.970  0.5287 -2.1402 -0.4133
   60DOPE   C39 7712   7.044   1.795   4.961  0.2935  0.3959  0.5275
   60DOPE   H9X 7713   7.020   1.881   4.897 -1.1447 -1.4135 -1.5143
   60DOPE  C310 7714   7.094   1.798   5.091 -0.4282  0.4920  0.3885
   60DOPE  H10X 7715   7.136   1.893   5.125  0.4737  0.8201 -1.5254
   60DOPE  C311 7716   7.114   1.681   5.180 -0.3202 -0.1054 -0.3932
   60DOPE  H11X 7717   7.030   1.609   5.177  0.3583 -0.9834  0.7510
   60DOPE  H11Y 7718   7.207   1.628   5.148  0.5227  0.1428  1.4955
   60DOPE  C312 7719   7.128   1.730   5.332 -0.0601 -0.8983  0.3164
   60DOPE  H12X 7720   7.213   1.802   5.338 -0.2961 -0.4753 -1.0452
   60DOPE  H12Y 7721   7.158   1.647   5.400  1.1740  0.1461  1.1035
   60DOPE  C313 7722   7.001   1.797   5.381  0.0843 -0.2357 -0.4346
   60DOPE  H13X 7723   7.016   1.905   5.360  1.2979 -0.3839 -0.3826
   60DOPE  H13Y 7724   6.918   1.754   5.320  1.3406  0.0201 -2.4073
   60DOPE  C314 7725   6.964   1.771   5.533  0.4371  0.0819  0.1918
   60DOPE  H14X 7726   6.938   1.664   5.550  1.4173 -0.2843 -0.4890
   60DOPE  H14Y 7727   6.876   1.832   5.562  0.1174 -0.0259 -0.5434
   60DOPE  C315 7728   7.084   1.799   5.634  0.1505  0.4679  0.0469
   60DOPE  H15X 7729   7.114   1.906   5.635  1.4237  0.1357  1.3964
   60DOPE  H15Y 7730   7.178   1.742   5.615 -0.9357 -1.6184  0.6521
   60DOPE  C316 7731   7.031   1.748   5.768 -0.5357  0.4726 -0.0904
   60DOPE  H16X 7732   7.120   1.712   5.824 -1.1475 -0.0271  0.5809
   60DOPE  H16Y 7733   6.962   1.661   5.759 -1.1817  1.0927 -1.4019
   60DOPE  C317 7734   6.988   1.854   5.865  0.0406 -0.6976 -0.6543
   60DOPE  H17X 7735   7.073   1.921   5.889 -0.9730  1.0799 -1.8054
   60DOPE  H17Y 7736   6.910   1.920   5.822  0.9897  0.1598 -1.1165
   60DOPE  C318 7737   6.931   1.776   5.992 -0.5593  0.5471  0.1739
   60DOPE  H18X 7738   7.015   1.710   6.023 -0.9968  0.3957  1.0568
   60DOPE  H18Y 7739   6.918   1.847   6.076  0.0509 -0.1673  0.8919
   60DOPE  H18Z 7740   6.839   1.720   5.966 -0.0292  0.2393 -1.1295
   6123SM     N 7741   2.521   0.227   9.565 -0.0568 -0.1772 -0.7997
   6123SM   C15 7742   2.496   0.372   9.612 -0.3810 -0.1598 -0.3866
   6123SM  H15A 7743   2.590   0.410   9.650 -0.5225  0.4337 -0.6156
   6123SM  H15B 7744   2.427   0.370   9.695 -0.4042  0.7122 -0.3757
   6123SM  H15C 7745   2.460   0.433   9.531 -1.3539 -0.6682 -0.3494
   6123SM   C14 7746   2.605   0.236   9.447 -0.0047  0.0317 -0.6217
   6123SM  H14A 7747   2.691   0.302   9.460 -0.3543  0.9781 -2.6895
   6123SM  H14B 7748   2.561   0.287   9.362  1.6489 -0.3809 -1.7905
   6123SM  H14C 7749   2.632   0.135   9.419 -1.5622 -0.4893 -0.3120
   6123SM   C13 7750   2.582   0.143   9.670 -0.6139 -0.3045  0.5100
   6123SM  H13A 7751   2.689   0.154   9.681 -0.6662 -1.0555  2.1149
   6123SM  H13B 7752   2.575   0.037   9.651 -0.2872 -0.0305 -1.3080
   6123SM  H13C 7753   2.524   0.156   9.760 -2.3576  1.1364 -0.7340
   6123SM   C12 7754   2.387   0.164   9.517  0.5368  0.2740 -0.2807
   6123SM  H12A 7755   2.324   0.172   9.605  0.7564  1.5459 -0.2149
   6123SM  H12B 7756   2.406   0.061   9.491  0.0616 -0.3142  1.4893
   6123SM   C11 7757   2.315   0.213   9.388 -0.0960  0.4961  0.4011
   6123SM  H11A 7758   2.223   0.155   9.370  1.3005 -1.1883 -1.9181
   6123SM  H11B 7759   2.385   0.177   9.309  0.2124  0.8769  0.4934
   6123SM     P 7760   2.354   0.452   9.281  0.3906  0.3100 -0.1220
   6123SM   O13 7761   2.249   0.529   9.205 -0.2484  0.4423  0.3386
   6123SM   O14 7762   2.438   0.541   9.368  0.0637  0.3976  0.5465
   6123SM   O11 7763   2.445   0.373   9.182  0.0560 -0.0598 -0.5172
   6123SM   O12 7764   2.287   0.351   9.381 -0.2047  0.1039  0.6215
   6123SM   C1S 7765   2.406   0.308   9.056  0.1509 -0.1485 -0.6119
   6123SM   H1S 7766   2.309   0.348   9.021 -0.2801 -1.4104 -0.9082
   6123SM   H1T 7767   2.394   0.198   9.061  0.0190 -0.0922  0.6511
   6123SM    NF 7768   2.457   0.302   8.828 -0.4478  0.3368 -0.5191
   6123SM   HNF 7769   2.491   0.217   8.791  1.0301  0.6435  0.0659
   6123SM   C2S 7770   2.512   0.346   8.952  0.4030  0.6224  0.3570
   6123SM   H2S 7771   2.527   0.455   8.939  2.6560  0.0816 -2.5873
   6123SM   C3S 7772   2.645   0.286   8.980 -0.2832 -0.0583 -0.4540
   6123SM   H3S 7773   2.643   0.175   8.984  1.7325 -0.0998  0.4866
   6123SM    O3 7774   2.691   0.294   9.116  0.0889 -0.2923  0.3787
   6123SM   HO3 7775   2.615   0.333   9.160 -0.1931  2.6159 -2.2735
   6123SM   C4S 7776   2.745   0.341   8.882  0.2650  0.1392 -0.3207
   6123SM   H4S 7777   2.739   0.451   8.883  0.9610  0.2076  1.6461
   6123SM   C5S 7778   2.838   0.273   8.818  0.5133 -0.2288 -0.2479
   6123SM   H5S 7779   2.834   0.165   8.838  0.3223 -0.3460 -0.8871
   6123SM   C6S 7780   2.939   0.336   8.724  0.2277  0.8632  0.1896
   6123SM   H6S 7781   3.044   0.332   8.760 -0.2172  0.4798  1.4933
   6123SM   H6T 7782   2.916   0.441   8.698  0.2227  0.8983  0.3382
   6123SM   C7S 7783   2.929   0.250   8.600 -0.0774 -0.2158  0.5481
   6123SM   H7S 7784   2.825   0.261   8.565 -0.0401  0.5420  0.6430
   6123SM   H7T 7785   2.941   0.142   8.621 -2.3505 -0.9740 -1.6884
   6123SM   C8S 7786   3.023   0.293   8.486 -0.1137  0.8208  1.0989
   6123SM   H8S 7787   3.128   0.282   8.519 -0.1219  0.3436  0.9646
   6123SM   H8T 7788   2.996   0.401   8.474  1.4427  1.1972  0.8220
   6123SM   C9S 7789   2.989   0.217   8.356  0.6523  0.4866  0.4289
   6123SM   H9S 7790   2.882   0.229   8.329  0.6297  0.0798  0.3429
   6123SM   H9T 7791   3.010   0.109   8.364  0.9694  0.4543 -0.7442
   6123SM  C10S 7792   3.082   0.257   8.238 -0.5738 -0.1090 -0.1869
   6123SM  H10S 7793   3.186   0.267   8.276 -0.7996  0.2018  0.3778
   6123SM  H10T 7794   3.056   0.359   8.204  0.5375 -0.2515 -1.5666
   6123SM  C11S 7795   3.091   0.175   8.111  0.5562 -0.1272 -0.2222
   6123SM  H11S 7796   3.116   0.074   8.149  0.2305  0.0132  0.3628
   6123SM  H11T 7797   3.181   0.194   8.048  0.6702 -2.1264 -0.7193
   6123SM  C12S 7798   2.958   0.173   8.044  0.6819 -0.1223  0.6373
   6123SM  H12S 7799   2.931   0.281   8.040 -1.5357 -0.6102  1.0558
   6123SM  H12T 7800   2.883   0.128   8.113 -0.4892  0.5649 -0.1388
   6123SM  C13S 7801   2.953   0.102   7.907  0.3122  0.0456 -1.1232
   6123SM  H13S 7802   2.952  -0.006   7.931  0.9715  0.1214 -0.7359
   6123SM  H13T 7803   3.046   0.134   7.856  1.0588 -1.5154 -0.7708
   6123SM  C14S 7804   2.841   0.145   7.818 -0.2938 -0.3404  0.0003
   6123SM  H14S 7805   2.827   0.255   7.809 -1.8329 -0.6626 -2.7694
   6123SM  H14T 7806   2.745   0.105   7.856 -1.2289  0.3701 -1.5424
   6123SM  C15S 7807   2.851   0.089   7.677 -0.4994 -0.0031 -0.1988
   6123SM  H15S 7808   2.751   0.096   7.628 -0.1395  1.8229 -0.7487
   6123SM  H15T 7809   2.872  -0.019   7.666 -2.4576 -0.3143 -1.3945
   6123SM  C16S 7810   2.944   0.175   7.596 -0.8051 -0.7318 -0.7698
   6123SM  H16S 7811   3.043   0.151   7.641 -2.0855 -0.3889  2.5234
   6123SM  H16T 7812   2.919   0.279   7.626  1.6211 -0.9237  2.3900
   6123SM  C17S 7813   2.945   0.155   7.438 -1.1910  0.4001  0.2266
   6123SM  H17S 7814   3.033   0.204   7.391 -1.9806  0.2386 -1.5202
   6123SM  H17T 7815   2.851   0.205   7.404 -2.1555  0.2531  2.4717
   6123SM  C18S 7816   2.956   0.002   7.394  0.7600  0.0123 -0.0352
   6123SM  H18S 7817   3.049  -0.054   7.420  1.7087  0.2303 -2.6746
   6123SM  H18T 7818   2.960   0.003   7.283  2.0707 -1.7922 -0.0518
   6123SM  H18U 7819   2.864  -0.055   7.418  1.0136  0.0803  1.1696
   6123SM   C1F 7820   2.358   0.371   8.764  0.6389  0.5006  0.7080
   6123SM    OF 7821   2.333   0.483   8.800  0.3345  0.0887 -0.0271
   6123SM   C2F 7822   2.296   0.296   8.645 -0.3396  0.3633 -0.2687
   6123SM   H2F 7823   2.328   0.192   8.666 -1.8862 -0.3717 -1.3595
   6123SM   H2G 7824   2.349   0.330   8.553  2.1908 -0.9927  0.5812
   6123SM   C3F 7825   2.144   0.301   8.641 -0.0533  0.2104  0.1398
   6123SM   H3F 7826   2.119   0.408   8.628  1.1507  0.6063  0.9202
   6123SM   H3G 7827   2.096   0.266   8.735  0.2624  1.3532  0.7402
   6123SM   C4F 7828   2.085   0.215   8.531  0.3989  0.1703  0.1654
   6123SM   H4F 7829   2.144   0.235   8.439 -0.8462  2.5567 -0.1915
   6123SM   H4G 7830   1.980   0.245   8.512 -1.0258 -3.8384  0.6606
   6123SM   C5F 7831   2.089   0.064   8.568 -0.0383  0.9489  0.6265
   6123SM   H5F 7832   2.008   0.035   8.638  2.0578 -1.7610  2.1449
   6123SM   H5G 7833   2.182   0.022   8.612  0.8366  1.4422 -0.7002
   6123SM   C6F 7834   2.065  -0.025   8.447 -0.3117  0.8672 -0.0973
   6123SM   H6F 7835   2.162  -0.036   8.394 -0.9448  0.9541 -1.3040
   6123SM   H6G 7836   1.985   0.024   8.387 -0.6434  0.1424 -0.2507
   6123SM   C7F 7837   2.019  -0.168   8.486  0.2536 -0.4095 -0.5391
   6123SM   H7F 7838   1.926  -0.154   8.546  0.6912  3.6514 -0.5584
   6123SM   H7G 7839   2.098  -0.212   8.550  0.6634 -1.8453 -1.9547
   6123SM   C8F 7840   2.001  -0.263   8.362  0.3269 -0.2201 -0.0755
   6123SM   H8F 7841   1.917  -0.240   8.294  2.9515  2.9915 -2.6026
   6123SM   H8G 7842   1.979  -0.363   8.405 -1.4459 -0.4280 -1.3451
   6123SM   C9F 7843   2.125  -0.268   8.261  0.8684 -0.5240 -0.2618
   6123SM   H9F 7844   2.220  -0.268   8.320  2.3142 -0.2672 -2.4945
   6123SM   H9G 7845   2.136  -0.169   8.213 -0.5306  1.1115  2.4955
   6123SM  C10F 7846   2.124  -0.390   8.168 -0.2149 -0.1174 -0.6292
   6123SM  H10F 7847   2.194  -0.375   8.083  1.5605 -0.0951  0.7882
   6123SM  H10G 7848   2.020  -0.421   8.146 -1.1426  0.7336  2.0998
   6123SM  C11F 7849   2.188  -0.497   8.251  0.9994  0.2515 -0.4149
   6123SM  H11F 7850   2.131  -0.515   8.345  1.3643 -0.4738 -0.3323
   6123SM  H11G 7851   2.285  -0.476   8.301  0.1047 -1.2477  2.1723
   6123SM  C12F 7852   2.211  -0.637   8.183  0.4666  0.0633 -0.1563
   6123SM  H12F 7853   2.107  -0.669   8.158 -0.3850  2.8581 -0.6144
   6123SM  H12G 7854   2.256  -0.711   8.252  0.8771  0.7063  0.2812
   6123SM  C13F 7855   2.290  -0.638   8.058  0.0141  0.3553  0.6069
   6123SM  H13F 7856   2.377  -0.569   8.068 -1.8011  2.6492  1.6500
   6123SM  H13G 7857   2.225  -0.601   7.977  0.4458 -1.2023 -0.4933
   6123SM  C14F 7858   2.327  -0.781   8.019  0.9141  0.3929  0.2532
   6123SM  H14F 7859   2.227  -0.829   8.008  0.8776  0.4309  0.4076
   6123SM  H14G 7860   2.393  -0.830   8.094  2.2899  0.3101 -0.9790
   6123SM  C15F 7861   2.396  -0.782   7.878 -0.6506 -0.0497  0.4842
   6123SM  H15F 7862   2.451  -0.877   7.860  1.3068  1.5291 -2.7391
   6123SM  H15G 7863   2.474  -0.703   7.884  0.7934 -1.4131  0.4445
   6123SM  C16F 7864   2.297  -0.763   7.765 -0.8560 -0.4516  0.2879
   6123SM  H16F 7865   2.234  -0.677   7.796 -0.8869 -0.5318  0.4448
   6123SM  H16G 7866   2.242  -0.856   7.739 -1.1947 -0.4263  0.9093
   6123SM  C17F 7867   2.373  -0.709   7.634 -0.6813 -0.2491  0.0754
   6123SM  H17F 7868   2.477  -0.746   7.624 -0.3163  0.5387  0.8813
   6123SM  H17G 7869   2.399  -0.602   7.649 -0.6227 -0.4750  1.8392
   6123SM  C18F 7870   2.304  -0.725   7.500  0.4834  0.1746 -0.1178
   6123SM  H18F 7871   2.199  -0.690   7.511  0.1373 -0.3430 -1.5840
   6123SM  H18G 7872   2.309  -0.832   7.469  1.1171  0.3767 -0.7420
   6123SM  C19F 7873   2.375  -0.645   7.384  0.2653  0.0318 -0.3257
   6123SM  H19F 7874   2.485  -0.660   7.391  0.5178  1.0939 -1.5636
   6123SM  H19G 7875   2.355  -0.537   7.405  1.9376 -0.1227  2.7401
   6123SM  C20F 7876   2.318  -0.688   7.252 -0.9015  1.0029 -0.0883
   6123SM  H20F 7877   2.208  -0.701   7.253 -0.9101  1.0147  1.5816
   6123SM  H20G 7878   2.368  -0.780   7.213  0.6111  2.2902 -1.3482
   6123SM  C21F 7879   2.349  -0.584   7.144  0.4947 -0.8708  0.4257
   6123SM  H21F 7880   2.346  -0.631   7.043 -1.7697 -2.6828  1.2394
   6123SM  H21G 7881   2.453  -0.550   7.163  1.0490 -2.6917  0.7870
   6123SM  C22F 7882   2.264  -0.458   7.142  0.3172 -0.2954 -0.1557
   6123SM  H22F 7883   2.300  -0.394   7.225 -1.0954  1.4730 -0.8482
   6123SM  H22G 7884   2.161  -0.485   7.174  0.4705  1.1547  1.7299
   6123SM  C23F 7885   2.241  -0.377   7.012  0.1061 -0.1716  0.3976
   6123SM  H23F 7886   2.188  -0.438   6.937 -0.6698 -0.5741  1.2496
   6123SM  H23G 7887   2.338  -0.333   6.979 -0.3133  2.1436  1.9872
   6123SM  H23H 7888   2.161  -0.302   7.033  0.3003  0.3160 -0.5665
   6223SM     N 7889   3.505   5.463   9.855 -0.5207 -0.0153 -0.0720
   6223SM   C15 7890   3.433   5.537   9.963  0.3062  0.1798  0.2263
   6223SM  H15A 7891   3.507   5.546  10.040  1.3267  0.0184 -0.7069
   6223SM  H15B 7892   3.347   5.481   9.996 -0.2750  1.3661  0.7802
   6223SM  H15C 7893   3.390   5.625   9.917  0.3894 -0.4347 -1.0816
   6223SM   C14 7894   3.624   5.551   9.813 -0.0802 -1.2840 -0.0465
   6223SM  H14A 7895   3.583   5.639   9.766  0.6143 -0.3422  1.0705
   6223SM  H14B 7896   3.685   5.502   9.739  1.4522  1.4015 -0.7095
   6223SM  H14C 7897   3.680   5.577   9.902  1.4135  0.2371 -1.3675
   6223SM   C13 7898   3.558   5.344   9.928  0.2545  0.3305 -0.3801
   6223SM  H13A 7899   3.610   5.274   9.864 -0.1927 -0.6502  0.3002
   6223SM  H13B 7900   3.478   5.285   9.971  1.8821 -1.3810  0.4568
   6223SM  H13C 7901   3.623   5.366  10.011  1.0382 -0.6946 -0.6981
   6223SM   C12 7902   3.416   5.427   9.742  1.2446 -0.0545 -0.7567
   6223SM  H12A 7903   3.335   5.362   9.773  2.2285 -0.7494  0.4857
   6223SM  H12B 7904   3.470   5.359   9.678 -0.1564 -1.8563 -0.1124
   6223SM   C11 7905   3.355   5.544   9.657 -0.0513 -0.0458 -0.0657
   6223SM  H11A 7906   3.303   5.618   9.722 -1.0134 -1.7298  1.1859
   6223SM  H11B 7907   3.281   5.495   9.590  2.9023 -2.9758 -1.4718
   6223SM     P 7908   3.515   5.541   9.446  0.1232  0.2246 -0.2557
   6223SM   O13 7909   3.599   5.644   9.386 -0.1723  0.1993  0.4621
   6223SM   O14 7910   3.579   5.414   9.490  0.1750 -0.0861  0.7944
   6223SM   O11 7911   3.393   5.505   9.350 -0.1647 -0.2331 -0.7550
   6223SM   O12 7912   3.453   5.612   9.575 -0.2677  0.1925 -0.2837
   6223SM   C1S 7913   3.302   5.606   9.294 -0.5439  0.0209  0.1251
   6223SM   H1S 7914   3.293   5.687   9.369 -0.6013 -2.3722  2.8667
   6223SM   H1T 7915   3.201   5.562   9.281  0.1851 -1.3547 -1.2809
   6223SM    NF 7916   3.250   5.763   9.117  0.0855  0.6762 -0.1079
   6223SM   HNF 7917   3.177   5.753   9.050  0.2553  0.2885 -0.2352
   6223SM   C2S 7918   3.333   5.650   9.143  0.5787 -0.7471  0.6071
   6223SM   H2S 7919   3.440   5.678   9.140  0.5412 -0.4827 -3.2506
   6223SM   C3S 7920   3.300   5.537   9.051 -0.2343 -0.0682 -0.2632
   6223SM   H3S 7921   3.190   5.518   9.049 -0.4764  1.0325  1.0786
   6223SM    O3 7922   3.346   5.410   9.094  0.4662  0.0914  0.1754
   6223SM   HO3 7923   3.365   5.418   9.187 -2.3945 -1.1384  0.9620
   6223SM   C4S 7924   3.344   5.574   8.912  0.1700  0.3240  0.7003
   6223SM   H4S 7925   3.258   5.617   8.859 -0.4406 -0.9367  0.6163
   6223SM   C5S 7926   3.465   5.576   8.846 -0.1859 -0.2599 -0.3525
   6223SM   H5S 7927   3.553   5.524   8.887 -0.6330 -0.3254  0.5405
   6223SM   C6S 7928   3.491   5.626   8.709  0.1473  0.4716  0.3983
   6223SM   H6S 7929   3.584   5.687   8.711  0.6231 -0.2513  1.1632
   6223SM   H6T 7930   3.410   5.692   8.673  0.0352 -0.7285 -1.7038
   6223SM   C7S 7931   3.500   5.508   8.610 -0.2178 -0.2557  0.7427
   6223SM   H7S 7932   3.410   5.443   8.607 -1.0399  0.7658  2.0914
   6223SM   H7T 7933   3.587   5.445   8.639  0.5394  1.1191  1.5282
   6223SM   C8S 7934   3.518   5.550   8.462  0.1519  0.2303 -0.1646
   6223SM   H8S 7935   3.611   5.607   8.444  1.7998 -2.6868 -1.6224
   6223SM   H8T 7936   3.428   5.610   8.438  1.0705  2.3907  1.5136
   6223SM   C9S 7937   3.532   5.434   8.364 -0.3647 -0.1092 -0.0431
   6223SM   H9S 7938   3.440   5.371   8.358  2.3301 -4.4945  0.2298
   6223SM   H9T 7939   3.612   5.363   8.393  1.1972  1.4887 -0.3336
   6223SM  C10S 7940   3.582   5.473   8.223  0.9208  0.3200  0.2001
   6223SM  H10S 7941   3.613   5.379   8.174  1.2880  1.6455 -2.2983
   6223SM  H10T 7942   3.663   5.545   8.249 -0.1892  0.9149  2.1842
   6223SM  C11S 7943   3.470   5.542   8.132 -0.2762  0.1530 -1.1925
   6223SM  H11S 7944   3.439   5.636   8.183  2.8597  0.7776 -0.2727
   6223SM  H11T 7945   3.387   5.469   8.115 -0.8561 -0.1466  2.1994
   6223SM  C12S 7946   3.523   5.591   7.995  0.0265 -0.0625  0.1275
   6223SM  H12S 7947   3.589   5.676   8.021  0.8226  0.3608 -2.9341
   6223SM  H12T 7948   3.444   5.654   7.949 -0.9291  1.5086  3.5998
   6223SM  C13S 7949   3.578   5.484   7.895  0.1131 -0.2827  0.5246
   6223SM  H13S 7950   3.520   5.389   7.899  0.5367 -0.5249  1.3418
   6223SM  H13T 7951   3.686   5.470   7.920  0.1635 -1.2074 -0.1778
   6223SM  C14S 7952   3.565   5.538   7.756 -0.1237  0.0076  0.4661
   6223SM  H14S 7953   3.605   5.641   7.751  1.1530 -0.5149 -1.3147
   6223SM  H14T 7954   3.455   5.548   7.743 -0.5991  0.6679  4.0144
   6223SM  C15S 7955   3.629   5.443   7.645 -0.1694 -0.0376  0.3899
   6223SM  H15S 7956   3.567   5.352   7.658  0.0827 -0.1904  0.5246
   6223SM  H15T 7957   3.731   5.430   7.685  1.3044 -0.2382 -3.0333
   6223SM  C16S 7958   3.640   5.496   7.495  0.7794 -0.2424  0.0212
   6223SM  H16S 7959   3.690   5.414   7.440  1.1280  0.8865 -1.3903
   6223SM  H16T 7960   3.715   5.577   7.491  1.3067 -0.7191  0.1397
   6223SM  C17S 7961   3.501   5.534   7.438 -0.9581 -0.1448  0.3362
   6223SM  H17S 7962   3.515   5.582   7.339 -0.9364 -0.3306  0.2477
   6223SM  H17T 7963   3.472   5.616   7.507 -0.6835  1.2293 -1.1145
   6223SM  C18S 7964   3.403   5.418   7.432  0.3440 -0.2142 -0.0839
   6223SM  H18S 7965   3.442   5.325   7.385 -0.8399 -0.9454  0.3483
   6223SM  H18T 7966   3.317   5.467   7.380  0.7298  1.2531  0.5988
   6223SM  H18U 7967   3.379   5.387   7.536  3.2915  1.0114  1.0464
   6223SM   C1F 7968   3.275   5.883   9.168  0.1936 -0.8801  0.3425
   6223SM    OF 7969   3.355   5.898   9.258 -0.0462 -0.3069  0.8092
   6223SM   C2F 7970   3.208   5.998   9.104 -0.1178 -0.5310 -0.2042
   6223SM   H2F 7971   3.150   6.060   9.175  1.2031 -0.6587  1.0148
   6223SM   H2G 7972   3.130   5.965   9.031 -1.7513 -0.1850  1.3132
   6223SM   C3F 7973   3.297   6.093   9.023  0.9121 -0.5612  0.1321
   6223SM   H3F 7974   3.366   6.146   9.092 -0.3331  0.7926  0.3894
   6223SM   H3G 7975   3.228   6.172   8.987 -0.1300 -0.7032  1.6914
   6223SM   C4F 7976   3.364   6.028   8.901  0.3953  0.9229 -0.5690
   6223SM   H4F 7977   3.286   6.009   8.825  0.4725  0.4565 -0.5328
   6223SM   H4G 7978   3.407   5.928   8.923  3.1017  1.8575 -1.2052
   6223SM   C5F 7979   3.478   6.112   8.838  0.3801 -0.0377 -0.3050
   6223SM   H5F 7980   3.560   6.130   8.911  0.3382 -0.7087 -0.0862
   6223SM   H5G 7981   3.435   6.207   8.799 -2.6384 -1.9567 -2.0099
   6223SM   C6F 7982   3.544   6.038   8.725  0.0993 -0.7468  0.0758
   6223SM   H6F 7983   3.576   5.943   8.771  0.5073 -0.0567  1.2521
   6223SM   H6G 7984   3.634   6.088   8.684 -0.0470 -0.8055 -0.3217
   6223SM   C7F 7985   3.451   6.022   8.601  0.1869 -0.3324 -0.8622
   6223SM   H7F 7986   3.405   6.118   8.568  2.7570  0.9216 -1.0448
   6223SM   H7G 7987   3.368   5.949   8.615 -0.7937  0.9299  0.2267
   6223SM   C8F 7988   3.516   5.955   8.480 -0.5114  1.0799 -0.5448
   6223SM   H8F 7989   3.532   5.847   8.503  0.6009  1.1312 -1.0276
   6223SM   H8G 7990   3.621   5.990   8.472 -0.1743  0.3746  0.4808
   6223SM   C9F 7991   3.444   5.967   8.350  0.1531 -0.9086  0.2004
   6223SM   H9F 7992   3.340   5.928   8.364  0.0616 -0.7444 -0.0082
   6223SM   H9G 7993   3.493   5.911   8.267 -0.1887  0.1290 -0.7345
   6223SM  C10F 7994   3.432   6.112   8.305  0.4200  0.1323 -0.2469
   6223SM  H10F 7995   3.518   6.167   8.349 -0.3760  0.9166  0.3490
   6223SM  H10G 7996   3.343   6.160   8.350  1.2035 -0.3092  1.9283
   6223SM  C11F 7997   3.423   6.132   8.151  0.7668 -0.3641 -0.1390
   6223SM  H11F 7998   3.527   6.109   8.120  1.7076  2.4395  0.6196
   6223SM  H11G 7999   3.401   6.239   8.131  1.9890 -0.4503 -2.2740
   6223SM  C12F 8000   3.317   6.043   8.080  0.5383 -0.1828  0.4121
   6223SM  H12F 8001   3.215   6.065   8.119 -0.1416  0.1721 -1.4442
   6223SM  H12G 8002   3.332   5.937   8.111  0.6363  0.2226  1.8259
   6223SM  C13F 8003   3.310   6.061   7.926 -1.2888  0.1772 -0.0384
   6223SM  H13F 8004   3.411   6.035   7.887 -0.8645 -1.2148  1.8231
   6223SM  H13G 8005   3.293   6.168   7.905  3.2936  0.7722 -1.7388
   6223SM  C14F 8006   3.219   5.969   7.850 -0.1069 -0.1154  0.1514
   6223SM  H14F 8007   3.120   6.006   7.883 -0.6108 -1.7564  0.5717
   6223SM  H14G 8008   3.220   5.862   7.881  0.7452 -1.4422 -3.8592
   6223SM  C15F 8009   3.241   5.980   7.696 -0.6953 -0.3934  0.4382
   6223SM  H15F 8010   3.341   6.015   7.661 -0.2112 -2.7787 -0.8190
   6223SM  H15G 8011   3.165   6.049   7.653  0.6700  0.8409 -0.0841
   6223SM  C16F 8012   3.234   5.855   7.611 -0.1393 -0.5429 -0.5190
   6223SM  H16F 8013   3.167   5.780   7.659 -1.0974  0.2007 -0.6622
   6223SM  H16G 8014   3.329   5.798   7.610 -1.2318 -2.4710  0.0737
   6223SM  C17F 8015   3.184   5.876   7.470 -0.1745  0.8055 -0.8701
   6223SM  H17F 8016   3.253   5.939   7.411 -0.2057  0.4759 -1.2697
   6223SM  H17G 8017   3.079   5.909   7.486 -0.1531  0.2946  0.4847
   6223SM  C18F 8018   3.181   5.740   7.410 -0.1115 -0.0732  0.0622
   6223SM  H18F 8019   3.102   5.681   7.461  2.2578 -1.4625  2.4150
   6223SM  H18G 8020   3.276   5.691   7.441 -0.3150  0.2682  1.2564
   6223SM  C19F 8021   3.156   5.741   7.258  0.1779  0.7703  0.5946
   6223SM  H19F 8022   3.097   5.834   7.244  2.4962  2.6997  2.5523
   6223SM  H19G 8023   3.094   5.655   7.227  1.0398 -0.5576  2.4132
   6223SM  C20F 8024   3.287   5.728   7.173 -0.3602 -0.4152 -0.6970
   6223SM  H20F 8025   3.313   5.623   7.197 -1.8156 -0.8401 -0.8989
   6223SM  H20G 8026   3.366   5.794   7.216 -0.2990 -0.4610 -0.7380
   6223SM  C21F 8027   3.269   5.736   7.017  0.8296  0.3315  0.3053
   6223SM  H21F 8028   3.365   5.699   6.975 -0.0433 -2.2222  0.4342
   6223SM  H21G 8029   3.238   5.838   6.984  0.3925  0.7519  1.9569
   6223SM  C22F 8030   3.174   5.631   6.954  0.5179  0.2505 -0.2892
   6223SM  H22F 8031   3.066   5.651   6.974  0.7452  1.4651 -0.1744
   6223SM  H22G 8032   3.185   5.534   7.007  0.6723  1.5303  2.1815
   6223SM  C23F 8033   3.197   5.617   6.807  0.2828 -0.4916  0.2422
   6223SM  H23F 8034   3.304   5.623   6.777 -0.2813  3.2060 -1.6678
   6223SM  H23G 8035   3.150   5.696   6.744  2.3519 -0.7445 -1.7782
   6223SM  H23H 8036   3.168   5.516   6.770 -1.6272 -0.1890  0.8141
   6323SM     N 8037   4.592   6.379   9.085  0.8732  0.0828 -0.5410
   6323SM   C15 8038   4.467   6.452   9.060 -0.8429  0.6441  0.2372
   6323SM  H15A 8039   4.410   6.446   9.152  3.2466  0.4735  3.0185
   6323SM  H15B 8040   4.407   6.406   8.983  1.0842  0.6031 -1.3010
   6323SM  H15C 8041   4.491   6.549   9.021  0.0350  0.2369 -0.2675
   6323SM   C14 8042   4.667   6.353   8.955  0.1417  0.0032  0.5726
   6323SM  H14A 8043   4.760   6.306   8.982  1.1303  1.7569  0.3798
   6323SM  H14B 8044   4.694   6.445   8.906 -1.7902  0.1522 -0.2867
   6323SM  H14C 8045   4.608   6.296   8.885  0.1827 -0.8524  1.2149
   6323SM   C13 8046   4.685   6.457   9.176 -0.4664 -0.1724 -0.2555
   6323SM  H13A 8047   4.631   6.504   9.256  0.0606  0.8995 -0.5088
   6323SM  H13B 8048   4.727   6.535   9.114  0.0784  2.5146  3.1484
   6323SM  H13C 8049   4.760   6.394   9.221 -1.4551 -0.0370  1.6828
   6323SM   C12 8050   4.551   6.252   9.153 -0.0517  0.1763  0.2767
   6323SM  H12A 8051   4.481   6.200   9.089  0.1601  1.1102 -0.7491
   6323SM  H12B 8052   4.491   6.286   9.237  0.0116  0.9242  0.0291
   6323SM   C11 8053   4.663   6.158   9.203 -0.2659  0.0561 -0.5179
   6323SM  H11A 8054   4.604   6.080   9.255 -0.5288  2.8171  3.8902
   6323SM  H11B 8055   4.712   6.205   9.291 -0.2769  1.2111 -1.1005
   6323SM     P 8056   4.828   5.970   9.116  0.1880  0.1871 -0.4044
   6323SM   O13 8057   4.973   5.969   9.127 -0.2688  0.3269  0.0780
   6323SM   O14 8058   4.769   5.877   9.215 -0.4853  0.1726  0.2467
   6323SM   O11 8059   4.802   5.924   8.969  0.0695 -0.0906  0.0910
   6323SM   O12 8060   4.758   6.115   9.110  0.3967 -0.8106  0.3221
   6323SM   C1S 8061   4.683   5.898   8.900 -0.3597  0.2152  0.5381
   6323SM   H1S 8062   4.623   5.990   8.916  0.2897  0.4052  2.0806
   6323SM   H1T 8063   4.629   5.812   8.945 -0.2035  0.0342  0.3846
   6323SM    NF 8064   4.584   5.903   8.669 -0.3508 -0.1906  0.2980
   6323SM   HNF 8065   4.554   5.835   8.603 -0.4019  0.7088 -0.6151
   6323SM   C2S 8066   4.707   5.879   8.741 -0.7718 -0.2027  0.1697
   6323SM   H2S 8067   4.773   5.961   8.706  0.1753 -0.6432  0.8571
   6323SM   C3S 8068   4.789   5.742   8.709  0.7678  0.0323 -0.5370
   6323SM   H3S 8069   4.721   5.655   8.721  2.1346 -0.7915  1.7485
   6323SM    O3 8070   4.887   5.705   8.805  0.1771 -0.3768  0.2161
   6323SM   HO3 8071   4.874   5.764   8.880 -1.9351 -1.9663  1.2045
   6323SM   C4S 8072   4.843   5.728   8.574 -0.9723  0.4177 -0.1966
   6323SM   H4S 8073   4.777   5.684   8.498 -2.7767  1.6430  0.6076
   6323SM   C5S 8074   4.967   5.783   8.533  0.2053  0.8352 -0.4397
   6323SM   H5S 8075   5.020   5.854   8.598  2.9780  0.0017 -1.6598
   6323SM   C6S 8076   5.020   5.782   8.391  0.1694  0.3389  0.0659
   6323SM   H6S 8077   5.104   5.710   8.391 -0.3056 -0.2206 -0.3379
   6323SM   H6T 8078   5.063   5.881   8.365  1.7727 -0.0678  1.0258
   6323SM   C7S 8079   4.918   5.739   8.276  0.0802 -0.1676  0.1996
   6323SM   H7S 8080   4.823   5.794   8.290 -0.1896 -0.7474  0.7154
   6323SM   H7T 8081   4.900   5.629   8.272 -0.5758 -0.1726  2.1416
   6323SM   C8S 8082   4.962   5.778   8.133  0.0344 -0.6775 -0.5180
   6323SM   H8S 8083   5.055   5.725   8.105 -1.0933 -2.1698 -1.6015
   6323SM   H8T 8084   4.991   5.885   8.138 -0.3699 -0.6242  1.9728
   6323SM   C9S 8085   4.855   5.758   8.023 -0.6262 -0.1181 -0.0954
   6323SM   H9S 8086   4.761   5.812   8.049 -0.5368 -0.0706  0.1360
   6323SM   H9T 8087   4.831   5.650   8.014 -1.4011  0.1822 -2.1733
   6323SM  C10S 8088   4.904   5.799   7.884 -0.2473  0.1504 -0.3107
   6323SM  H10S 8089   4.995   5.739   7.863 -1.1777 -0.8021 -1.7316
   6323SM  H10T 8090   4.943   5.903   7.881 -0.8265  0.3562 -0.7621
   6323SM  C11S 8091   4.807   5.769   7.764  0.0106 -0.2556 -0.2283
   6323SM  H11S 8092   4.724   5.842   7.765  1.1727  1.1171 -0.3985
   6323SM  H11T 8093   4.762   5.669   7.781 -0.9094 -0.4386 -3.1704
   6323SM  C12S 8094   4.885   5.780   7.627 -0.2798  0.0758 -0.9384
   6323SM  H12S 8095   4.961   5.700   7.615  1.8850  1.9597 -0.5311
   6323SM  H12T 8096   4.940   5.877   7.635  0.2586 -0.3104  0.3788
   6323SM  C13S 8097   4.778   5.759   7.520  0.2061 -0.2803  1.0461
   6323SM  H13S 8098   4.714   5.849   7.531  0.9719  0.4337 -0.0010
   6323SM  H13T 8099   4.710   5.677   7.550 -0.5178  0.1874  0.7135
   6323SM  C14S 8100   4.827   5.760   7.377 -0.2859 -0.4260 -0.1453
   6323SM  H14S 8101   4.912   5.688   7.374  1.0949  1.1722 -2.1944
   6323SM  H14T 8102   4.866   5.859   7.345 -0.1920 -0.2903  0.3690
   6323SM  C15S 8103   4.725   5.721   7.269  0.4983 -0.5776 -0.3715
   6323SM  H15S 8104   4.638   5.789   7.268 -0.7443 -2.1175 -0.9462
   6323SM  H15T 8105   4.675   5.623   7.287 -2.2672  1.0584  1.6018
   6323SM  C16S 8106   4.785   5.707   7.133 -0.0331 -0.4750 -0.0850
   6323SM  H16S 8107   4.859   5.624   7.142 -0.8271 -1.2783 -0.8052
   6323SM  H16T 8108   4.839   5.800   7.104  0.4213 -0.4291  0.8707
   6323SM  C17S 8109   4.684   5.676   7.028  0.2725 -0.3457 -0.0180
   6323SM  H17S 8110   4.617   5.764   7.025  2.1142  1.1357  0.5456
   6323SM  H17T 8111   4.626   5.592   7.072  0.4586  1.5295  4.2775
   6323SM  C18S 8112   4.745   5.648   6.891  0.5105 -0.5937 -0.7378
   6323SM  H18S 8113   4.667   5.613   6.820  1.0314  0.4358 -1.8610
   6323SM  H18T 8114   4.840   5.591   6.898  1.4981  1.1040  0.3720
   6323SM  H18U 8115   4.781   5.746   6.855 -2.8704  0.7482 -0.8472
   6323SM   C1F 8116   4.535   6.030   8.674 -0.0912  0.3714  0.4181
   6323SM    OF 8117   4.593   6.120   8.733  0.6176  0.4449  0.2349
   6323SM   C2F 8118   4.409   6.049   8.595 -0.7145 -0.0651 -0.0206
   6323SM   H2F 8119   4.328   5.977   8.620 -1.0476  0.3590  0.1353
   6323SM   H2G 8120   4.433   6.038   8.488 -2.7869  1.0817 -0.6649
   6323SM   C3F 8121   4.364   6.193   8.618  0.3689  0.1238  0.4385
   6323SM   H3F 8122   4.451   6.261   8.606 -1.1288  2.0845  0.3047
   6323SM   H3G 8123   4.328   6.202   8.723  0.4244  2.6913  0.2944
   6323SM   C4F 8124   4.248   6.246   8.534  0.6739 -0.4904  0.3139
   6323SM   H4F 8125   4.226   6.352   8.559 -1.6541 -1.1567  1.3002
   6323SM   H4G 8126   4.153   6.205   8.572 -0.3819  1.2687 -0.3059
   6323SM   C5F 8127   4.268   6.240   8.386  0.1174  0.5090  0.1089
   6323SM   H5F 8128   4.228   6.141   8.357  0.8513  1.1097 -3.2985
   6323SM   H5G 8129   4.373   6.252   8.351 -0.5089  0.0217 -2.0810
   6323SM   C6F 8130   4.185   6.339   8.313  0.4581 -0.2754 -0.4536
   6323SM   H6F 8131   4.222   6.440   8.341  0.5997  0.1804 -2.1717
   6323SM   H6G 8132   4.077   6.340   8.336  0.5420 -0.1093 -0.0518
   6323SM   C7F 8133   4.189   6.322   8.161  0.0984  0.1181 -0.3021
   6323SM   H7F 8134   4.290   6.335   8.118  0.0679  0.1929 -0.3507
   6323SM   H7G 8135   4.138   6.413   8.125  1.2528  1.0496  0.3707
   6323SM   C8F 8136   4.140   6.193   8.103 -0.2193  0.1638  0.2833
   6323SM   H8F 8137   4.031   6.175   8.096 -0.2592  0.7972 -1.0386
   6323SM   H8G 8138   4.168   6.098   8.153  0.1887 -0.5290 -1.1964
   6323SM   C9F 8139   4.195   6.178   7.954  0.1700 -0.3007  0.2520
   6323SM   H9F 8140   4.162   6.076   7.928 -0.1925 -0.2849  0.6483
   6323SM   H9G 8141   4.306   6.189   7.956  0.1199  1.4314 -1.7360
   6323SM  C10F 8142   4.127   6.270   7.851  0.1004 -0.4115 -0.5562
   6323SM  H10F 8143   4.188   6.361   7.864  2.0498 -1.8207  0.8159
   6323SM  H10G 8144   4.020   6.296   7.869  0.7193  0.4316  2.4743
   6323SM  C11F 8145   4.148   6.228   7.704  0.3840 -0.3315 -0.2595
   6323SM  H11F 8146   4.099   6.128   7.694 -2.2794  0.9212 -0.4448
   6323SM  H11G 8147   4.257   6.213   7.686  0.4388  1.5898 -1.8075
   6323SM  C12F 8148   4.101   6.333   7.602  0.1549  0.6806 -0.0508
   6323SM  H12F 8149   4.150   6.429   7.629  0.1956  0.3644  1.0380
   6323SM  H12G 8150   3.991   6.340   7.611  0.1187  0.2657 -0.1432
   6323SM  C13F 8151   4.133   6.300   7.456  0.1532 -0.3595  0.5115
   6323SM  H13F 8152   4.115   6.194   7.427 -0.9460  0.3828 -1.7888
   6323SM  H13G 8153   4.237   6.336   7.440  0.0269 -0.8158 -1.6556
   6323SM  C14F 8154   4.052   6.392   7.362  0.5612  0.1774  0.1546
   6323SM  H14F 8155   4.113   6.416   7.272 -0.0205  0.3427 -0.2048
   6323SM  H14G 8156   4.018   6.480   7.420 -2.1052 -0.2046 -0.6632
   6323SM  C15F 8157   3.923   6.330   7.324 -0.1297  0.0063  0.0909
   6323SM  H15F 8158   3.864   6.300   7.414 -0.1999  0.0159  0.0483
   6323SM  H15G 8159   3.944   6.241   7.261  0.6069  0.5186 -0.3877
   6323SM  C16F 8160   3.826   6.416   7.236 -0.3570 -0.0323 -0.2021
   6323SM  H16F 8161   3.795   6.512   7.282  1.5671  0.5462 -0.0209
   6323SM  H16G 8162   3.744   6.343   7.217  0.2360 -0.8090  0.1356
   6323SM  C17F 8163   3.891   6.464   7.109  1.2634 -0.2600 -0.3851
   6323SM  H17F 8164   3.938   6.373   7.066 -0.6265 -2.0360  1.0921
   6323SM  H17G 8165   3.975   6.532   7.136  0.4741  0.2183  0.9549
   6323SM  C18F 8166   3.789   6.526   7.014  0.8347 -0.6857 -0.0947
   6323SM  H18F 8167   3.731   6.604   7.066 -2.3966 -2.6204 -0.5105
   6323SM  H18G 8168   3.715   6.449   6.982  0.4645 -0.0591 -0.7680
   6323SM  C19F 8169   3.850   6.570   6.881 -0.5668 -0.3814 -0.4913
   6323SM  H19F 8170   3.932   6.642   6.904 -0.0554 -1.2922  0.6533
   6323SM  H19G 8171   3.775   6.618   6.814  1.0982  1.1099 -1.3604
   6323SM  C20F 8172   3.919   6.455   6.799  0.0931 -0.0945 -0.0022
   6323SM  H20F 8173   3.845   6.373   6.807 -1.2068  0.7630 -2.1981
   6323SM  H20G 8174   4.018   6.421   6.833 -0.0128 -1.5637 -1.0840
   6323SM  C21F 8175   3.940   6.480   6.645  0.5220 -0.4252  0.2525
   6323SM  H21F 8176   3.994   6.577   6.641 -1.1067  0.5359  0.5322
   6323SM  H21G 8177   3.840   6.501   6.601  1.1668  1.1633 -0.5169
   6323SM  C22F 8178   3.993   6.359   6.570 -0.6905  0.9492  0.2966
   6323SM  H22F 8179   4.085   6.329   6.625 -0.7625 -0.7096 -0.4320
   6323SM  H22G 8180   4.037   6.392   6.474  0.8009 -0.9600  0.2686
   6323SM  C23F 8181   3.895   6.245   6.552  0.9509  0.6916  0.4375
   6323SM  H23F 8182   3.796   6.268   6.508  1.8878  1.9168 -1.1602
   6323SM  H23G 8183   3.874   6.203   6.653 -4.9469 -1.0119 -1.1063
   6323SM  H23H 8184   3.940   6.156   6.503  0.4138 -0.5033  2.0349
   6423SM     N 8185   5.602   0.147   9.036  0.0845  0.7435  0.4982
   6423SM   C15 8186   5.631   0.209   9.169 -0.5160  0.2498  0.2749
   6423SM  H15A 8187   5.553   0.206   9.244 -0.0217  0.2968  0.7955
   6423SM  H15B 8188   5.646   0.316   9.158 -2.6832  0.5316 -0.5058
   6423SM  H15C 8189   5.721   0.179   9.220 -1.8169  0.0688  2.6210
   6423SM   C14 8190   5.713   0.190   8.945  0.2635 -0.0619 -0.2139
   6423SM  H14A 8191   5.805   0.172   8.999 -0.0172  0.0947  0.3244
   6423SM  H14B 8192   5.722   0.297   8.944 -0.7470  0.0545 -2.5901
   6423SM  H14C 8193   5.702   0.136   8.852 -1.8118  0.6865 -0.4561
   6423SM   C13 8194   5.592  -0.003   9.045  0.5077 -1.0213 -0.5395
   6423SM  H13A 8195   5.689  -0.041   9.071 -0.4375 -1.6621  2.3728
   6423SM  H13B 8196   5.554  -0.046   8.953  0.3949  1.7581 -1.9115
   6423SM  H13C 8197   5.535  -0.030   9.132 -0.5017  0.7103 -0.6128
   6423SM   C12 8198   5.478   0.204   8.968 -0.7089  0.4098  0.1926
   6423SM  H12A 8199   5.480   0.312   8.968 -2.6029  0.4909  1.0091
   6423SM  H12B 8200   5.399   0.193   9.041 -2.2802  0.5596 -1.4201
   6423SM   C11 8201   5.428   0.157   8.831  0.2479 -0.0811 -0.4615
   6423SM  H11A 8202   5.325   0.198   8.823 -0.4016 -1.2194  1.4675
   6423SM  H11B 8203   5.420   0.047   8.825  0.4483 -0.0413 -1.7165
   6423SM     P 8204   5.472   0.353   8.677 -0.0380 -0.1919  0.0022
   6423SM   O13 8205   5.391   0.429   8.783 -0.1256  0.3966 -0.2759
   6423SM   O14 8206   5.604   0.407   8.631 -0.2800  0.1163  0.2257
   6423SM   O11 8207   5.377   0.325   8.554  0.2218 -0.0857  0.7177
   6423SM   O12 8208   5.508   0.204   8.722  0.6460 -0.3256  0.2451
   6423SM   C1S 8209   5.303   0.208   8.521  0.0244  0.5454  0.1114
   6423SM   H1S 8210   5.202   0.206   8.567  0.0373  1.7779  0.2078
   6423SM   H1T 8211   5.358   0.120   8.563  0.7630  0.6729 -0.5703
   6423SM    NF 8212   5.213   0.061   8.335  0.4317  0.6747 -0.2550
   6423SM   HNF 8213   5.265  -0.023   8.325 -0.3476  0.3105 -1.5247
   6423SM   C2S 8214   5.300   0.175   8.368  0.4927 -0.4599  0.3821
   6423SM   H2S 8215   5.254   0.262   8.317 -0.9868 -1.6998 -0.4958
   6423SM   C3S 8216   5.442   0.149   8.311 -0.6209  0.0533  0.3558
   6423SM   H3S 8217   5.486   0.074   8.379 -2.1505 -0.3639  0.9377
   6423SM    O3 8218   5.526   0.263   8.323 -0.5350 -0.4669  0.1005
   6423SM   HO3 8219   5.476   0.301   8.395 -1.2310 -0.4824 -0.3641
   6423SM   C4S 8220   5.443   0.099   8.174  0.0595  0.0064  0.7593
   6423SM   H4S 8221   5.458  -0.010   8.170  1.3184  0.1707  0.5657
   6423SM   C5S 8222   5.442   0.167   8.059  0.4869  0.1197 -0.0997
   6423SM   H5S 8223   5.460   0.275   8.063 -0.3945  0.3484 -1.3805
   6423SM   C6S 8224   5.446   0.107   7.918  0.7642  0.7935  0.3661
   6423SM   H6S 8225   5.513   0.018   7.921 -2.0889 -1.4958  2.0456
   6423SM   H6T 8226   5.495   0.171   7.841  0.4812  0.2880 -0.2446
   6423SM   C7S 8227   5.317   0.051   7.858  0.4445  0.2344 -0.2582
   6423SM   H7S 8228   5.246   0.132   7.831  2.4899  1.2599 -2.9099
   6423SM   H7T 8229   5.270  -0.013   7.936  0.4124  1.6365  0.9305
   6423SM   C8S 8230   5.331  -0.038   7.734  0.2983  0.7645 -0.2746
   6423SM   H8S 8231   5.225  -0.063   7.715  0.1829 -0.2849  1.5298
   6423SM   H8T 8232   5.378  -0.138   7.741 -0.2280  0.3842 -1.8238
   6423SM   C9S 8233   5.388   0.036   7.611  0.0630  0.6197 -0.8070
   6423SM   H9S 8234   5.487   0.071   7.649  0.9153 -2.5075  0.2264
   6423SM   H9T 8235   5.323   0.123   7.589 -1.6763 -0.5572 -0.4914
   6423SM  C10S 8236   5.393  -0.056   7.494 -0.5252  0.0749 -0.3184
   6423SM  H10S 8237   5.291  -0.100   7.489  0.7898 -3.4416  0.7135
   6423SM  H10T 8238   5.471  -0.133   7.507  0.0501  0.4749 -1.2926
   6423SM  C11S 8239   5.428   0.013   7.364 -0.0189  0.0716  0.0671
   6423SM  H11S 8240   5.530   0.054   7.349 -0.1757  0.3223 -0.3347
   6423SM  H11T 8241   5.356   0.097   7.358  0.8379  0.7135 -2.1264
   6423SM  C12S 8242   5.402  -0.088   7.250 -0.0714  0.1231 -0.2563
   6423SM  H12S 8243   5.304  -0.139   7.246  1.1962 -2.4736 -0.1391
   6423SM  H12T 8244   5.481  -0.161   7.277 -0.8162  0.3391  2.8264
   6423SM  C13S 8245   5.435  -0.041   7.105  0.1278 -0.1336  0.2381
   6423SM  H13S 8246   5.540  -0.004   7.098  0.2258 -0.4311  0.1383
   6423SM  H13T 8247   5.353   0.027   7.075 -1.3577 -1.4208  1.2546
   6423SM  C14S 8248   5.412  -0.155   7.007  0.4110  0.0824  0.4070
   6423SM  H14S 8249   5.313  -0.200   7.028 -0.2329  1.8087  1.2455
   6423SM  H14T 8250   5.490  -0.232   7.025 -0.4601 -0.8328  0.3686
   6423SM  C15S 8251   5.423  -0.116   6.864 -0.2439 -0.7529  0.3955
   6423SM  H15S 8252   5.532  -0.122   6.841 -0.3870 -2.0410 -0.0030
   6423SM  H15T 8253   5.398  -0.008   6.855  0.2252 -0.8027 -2.3403
   6423SM  C16S 8254   5.331  -0.188   6.769  0.1328  0.2470  0.3508
   6423SM  H16S 8255   5.231  -0.140   6.779  0.6009  1.2207  0.5236
   6423SM  H16T 8256   5.306  -0.293   6.796 -0.0613  0.8289  2.5877
   6423SM  C17S 8257   5.380  -0.182   6.620 -0.2615  0.1501  0.1924
   6423SM  H17S 8258   5.474  -0.241   6.627 -1.6168 -2.0128  1.1848
   6423SM  H17T 8259   5.404  -0.075   6.605  3.1023 -0.2073  2.1764
   6423SM  C18S 8260   5.278  -0.228   6.514  0.1049  0.1925 -0.1428
   6423SM  H18S 8261   5.239  -0.331   6.526  1.3083 -0.4184 -1.2133
   6423SM  H18T 8262   5.330  -0.237   6.416  0.3107  1.4079 -0.1583
   6423SM  H18U 8263   5.195  -0.154   6.513  0.9812  1.2376  0.8456
   6423SM   C1F 8264   5.080   0.059   8.356  0.0751 -0.5244 -0.1159
   6423SM    OF 8265   5.032   0.163   8.389 -0.3529 -0.1963  0.0812
   6423SM   C2F 8266   5.007  -0.071   8.341  0.0468 -0.6666 -0.1066
   6423SM   H2F 8267   5.012  -0.136   8.431  0.0599  0.3258  0.6297
   6423SM   H2G 8268   5.056  -0.122   8.256  1.8048  2.7849 -1.3614
   6423SM   C3F 8269   4.862  -0.034   8.295 -0.4328  0.2292 -0.2563
   6423SM   H3F 8270   4.817   0.043   8.362  0.9397  0.3679  0.5537
   6423SM   H3G 8271   4.803  -0.128   8.297 -1.0163  0.5457 -1.4213
   6423SM   C4F 8272   4.846   0.019   8.151 -0.1373 -0.1465  1.0244
   6423SM   H4F 8273   4.914   0.105   8.134 -0.5504  0.4083  2.0518
   6423SM   H4G 8274   4.743   0.056   8.134  0.1503  0.6404  0.9442
   6423SM   C5F 8275   4.885  -0.089   8.041  1.0711  0.3595  0.0879
   6423SM   H5F 8276   4.806  -0.165   8.052  0.2658  1.0091 -0.9832
   6423SM   H5G 8277   4.987  -0.132   8.054  0.0171 -2.2413  0.3833
   6423SM   C6F 8278   4.874  -0.023   7.904  0.5209  0.9365  0.7254
   6423SM   H6F 8279   4.943   0.063   7.894  0.2155  0.9969 -1.5558
   6423SM   H6G 8280   4.777   0.023   7.876  0.8900  1.3084  0.0298
   6423SM   C7F 8281   4.914  -0.121   7.792  0.2532  0.5003  0.6772
   6423SM   H7F 8282   4.822  -0.180   7.770  0.5299  0.5339 -0.6400
   6423SM   H7G 8283   5.003  -0.180   7.820  0.4465  0.1917 -0.5528
   6423SM   C8F 8284   4.942  -0.048   7.657  0.0058 -0.0257 -0.6992
   6423SM   H8F 8285   5.043  -0.002   7.663  1.1255 -2.3063 -0.7224
   6423SM   H8G 8286   4.855   0.022   7.655  0.9316  1.1523 -2.1444
   6423SM   C9F 8287   4.939  -0.133   7.530 -0.1641 -0.2308  0.1566
   6423SM   H9F 8288   4.872  -0.221   7.544  0.1123 -0.6771 -1.1645
   6423SM   H9G 8289   5.044  -0.164   7.513  0.4869  2.6854 -1.6574
   6423SM  C10F 8290   4.901  -0.047   7.412 -0.2578 -0.2672 -0.3283
   6423SM  H10F 8291   4.962   0.046   7.413  2.2525 -1.8043 -1.4414
   6423SM  H10G 8292   4.793  -0.023   7.424 -0.4797 -1.4596  0.2399
   6423SM  C11F 8293   4.935  -0.111   7.278  0.0767  0.6885 -0.0714
   6423SM  H11F 8294   4.878  -0.205   7.262  1.1693 -0.5336  2.6767
   6423SM  H11G 8295   5.041  -0.144   7.276  0.9758  3.1054  1.8522
   6423SM  C12F 8296   4.924  -0.021   7.157  0.0787  0.2390  0.3631
   6423SM  H12F 8297   5.006   0.055   7.161 -0.5328  0.9170  0.3518
   6423SM  H12G 8298   4.820   0.018   7.150 -1.0359 -2.3489  1.2527
   6423SM  C13F 8299   4.950  -0.096   7.029 -0.0433 -0.0045  0.4531
   6423SM  H13F 8300   4.927  -0.204   7.043 -1.2723  0.1036 -0.5059
   6423SM  H13G 8301   5.056  -0.096   6.998 -0.3404 -1.9690 -0.7778
   6423SM  C14F 8302   4.876  -0.043   6.907  0.3623 -0.2328 -0.6942
   6423SM  H14F 8303   4.900   0.064   6.889 -0.4323  0.0902  0.0896
   6423SM  H14G 8304   4.765  -0.049   6.918  0.2602  2.5940  0.9179
   6423SM  C15F 8305   4.900  -0.128   6.785 -0.4183  0.4448  0.4601
   6423SM  H15F 8306   4.868  -0.229   6.818  1.5672 -0.2771  0.3659
   6423SM  H15G 8307   5.008  -0.119   6.760 -0.5041  0.1267 -0.0300
   6423SM  C16F 8308   4.824  -0.078   6.662  0.6135  0.0413 -0.0587
   6423SM  H16F 8309   4.854   0.027   6.646  2.0780 -0.5365 -1.3477
   6423SM  H16G 8310   4.718  -0.079   6.694  0.5052  1.3595 -0.3269
   6423SM  C17F 8311   4.850  -0.154   6.532 -1.1396 -0.2227 -0.2889
   6423SM  H17F 8312   4.819  -0.261   6.534  0.0792 -0.5933  1.2997
   6423SM  H17G 8313   4.960  -0.155   6.519 -1.0595 -1.3298  0.3363
   6423SM  C18F 8314   4.786  -0.096   6.406  0.1320 -0.3071 -0.6478
   6423SM  H18F 8315   4.785   0.015   6.401 -0.2787 -0.2923 -0.2728
   6423SM  H18G 8316   4.676  -0.114   6.407  0.0469  0.0697 -1.7455
   6423SM  C19F 8317   4.845  -0.151   6.275 -0.4077 -1.0212  0.0767
   6423SM  H19F 8318   4.778  -0.133   6.188  0.5103  1.1612 -0.2393
   6423SM  H19G 8319   4.862  -0.260   6.285  0.6564 -0.7691  1.2007
   6423SM  C20F 8320   4.978  -0.081   6.234 -0.5079 -0.4051  0.2428
   6423SM  H20F 8321   5.052  -0.106   6.313  0.6155  0.9130 -0.3422
   6423SM  H20G 8322   4.968   0.029   6.224 -1.7370 -0.4395  0.8394
   6423SM  C21F 8323   5.043  -0.146   6.107 -0.2578 -0.5227  0.3233
   6423SM  H21F 8324   4.967  -0.129   6.029  2.0355  2.6928 -1.4452
   6423SM  H21G 8325   5.069  -0.254   6.116  0.3880 -0.4355 -0.3941
   6423SM  C22F 8326   5.174  -0.068   6.077  0.0842  0.1333  0.5301
   6423SM  H22F 8327   5.148   0.037   6.100 -0.0372  0.3145 -0.4025
   6423SM  H22G 8328   5.194  -0.087   5.969 -1.1456 -2.7047  0.7077
   6423SM  C23F 8329   5.288  -0.129   6.156  0.5100 -0.5907 -0.4739
   6423SM  H23F 8330   5.373  -0.057   6.155  0.6323 -0.7260  0.0406
   6423SM  H23G 8331   5.300  -0.231   6.113  0.9374 -0.3301 -0.9839
   6423SM  H23H 8332   5.254  -0.123   6.261  3.7707  1.4787  0.5959
   6523SM     N 8333   4.283   0.723   8.714 -0.1070 -0.3355 -0.4719
   6523SM   C15 8334   4.331   0.639   8.599 -0.2345 -0.5974 -0.8506
   6523SM  H15A 8335   4.297   0.536   8.602  0.1697 -0.7934  3.1606
   6523SM  H15B 8336   4.437   0.618   8.601  0.3277  1.9683 -0.8723
   6523SM  H15C 8337   4.304   0.688   8.507  0.4240 -0.4141 -0.9533
   6523SM   C14 8338   4.135   0.743   8.706 -0.1721  0.0768 -0.2410
   6523SM  H14A 8339   4.078   0.651   8.715 -1.1454  0.8119  1.7923
   6523SM  H14B 8340   4.111   0.784   8.610  1.0002  0.8253 -0.2372
   6523SM  H14C 8341   4.108   0.813   8.784  1.6814 -1.5207  2.0074
   6523SM   C13 8342   4.309   0.651   8.847 -0.7847  0.4161  0.0591
   6523SM  H13A 8343   4.416   0.635   8.848 -0.8747 -0.1926 -0.1835
   6523SM  H13B 8344   4.263   0.554   8.850 -0.9725  0.5225  1.2197
   6523SM  H13C 8345   4.280   0.727   8.919  0.7040  3.6385 -2.4740
   6523SM   C12 8346   4.353   0.857   8.727  0.7020 -0.3989 -0.2652
   6523SM  H12A 8347   4.315   0.908   8.815  1.4219  1.4387 -0.9647
   6523SM  H12B 8348   4.323   0.915   8.641  1.4446  0.5632  0.1002
   6523SM   C11 8349   4.506   0.848   8.721  0.3546 -0.4697  0.2621
   6523SM  H11A 8350   4.535   0.955   8.706 -1.3321 -0.3277 -2.7288
   6523SM  H11B 8351   4.547   0.807   8.626 -0.9864 -0.8275 -0.1807
   6523SM     P 8352   4.726   0.807   8.839 -0.4191  0.3889 -0.1430
   6523SM   O13 8353   4.747   0.948   8.864  0.1845 -1.0198 -0.2379
   6523SM   O14 8354   4.784   0.709   8.941 -0.2330  0.2109  0.0338
   6523SM   O11 8355   4.789   0.777   8.693  0.0253 -0.4763  0.2235
   6523SM   O12 8356   4.568   0.781   8.827 -0.7406  0.2572  0.1681
   6523SM   C1S 8357   4.776   0.655   8.626 -0.0934  0.0296  0.1539
   6523SM   H1S 8358   4.678   0.605   8.639 -0.1234  0.1592  0.4273
   6523SM   H1T 8359   4.845   0.583   8.675 -1.0624 -2.7069 -2.1900
   6523SM    NF 8360   4.766   0.533   8.404 -0.1658  0.1596 -0.1287
   6523SM   HNF 8361   4.838   0.494   8.349 -0.3227 -0.2465 -0.0444
   6523SM   C2S 8362   4.786   0.663   8.463 -0.4266 -0.1833 -0.3902
   6523SM   H2S 8363   4.699   0.724   8.431  0.1880  0.9479  0.0735
   6523SM   C3S 8364   4.928   0.723   8.438 -0.3496  0.0528  0.0851
   6523SM   H3S 8365   5.000   0.643   8.465 -0.9172  0.4811  3.3994
   6523SM    O3 8366   4.972   0.826   8.529 -0.3063  0.7675  0.1576
   6523SM   HO3 8367   4.920   0.808   8.607 -1.8383  1.3381 -0.6889
   6523SM   C4S 8368   4.939   0.760   8.291 -0.7775  0.3232  0.0392
   6523SM   H4S 8369   4.973   0.678   8.225 -1.1334 -0.1157  0.4000
   6523SM   C5S 8370   4.929   0.885   8.229 -0.0789  0.2745 -0.3397
   6523SM   H5S 8371   4.910   0.969   8.297 -0.3125 -0.8353  1.0038
   6523SM   C6S 8372   4.966   0.915   8.083  0.2144 -0.4763 -0.3405
   6523SM   H6S 8373   5.070   0.953   8.071 -0.7573  3.1140  1.1752
   6523SM   H6T 8374   4.906   1.006   8.060  2.2705  1.1768  0.5583
   6523SM   C7S 8375   4.936   0.807   7.980  0.2050  0.6135  0.0451
   6523SM   H7S 8376   4.829   0.779   7.979  0.1460  0.8559 -0.5718
   6523SM   H7T 8377   5.003   0.720   7.998 -0.0127  0.4360 -0.0101
   6523SM   C8S 8378   4.965   0.862   7.837  0.1407  1.1040 -0.0524
   6523SM   H8S 8379   5.068   0.902   7.835  0.7275 -0.2736  0.7054
   6523SM   H8T 8380   4.899   0.946   7.805 -0.9360  1.1353  2.0507
   6523SM   C9S 8381   4.931   0.745   7.737 -0.4718 -0.6199 -0.0399
   6523SM   H9S 8382   4.824   0.721   7.756 -0.7708 -0.0017 -0.8738
   6523SM   H9T 8383   5.002   0.666   7.769  1.8375  1.0756 -0.7159
   6523SM  C10S 8384   4.939   0.789   7.584  0.5219 -0.7747 -0.8067
   6523SM  H10S 8385   5.045   0.806   7.553  0.8880 -2.1814 -0.3706
   6523SM  H10T 8386   4.890   0.889   7.572  1.4082  0.0187  1.5488
   6523SM  C11S 8387   4.876   0.692   7.484  0.3781 -0.6211  0.8341
   6523SM  H11S 8388   4.765   0.689   7.489  0.3271 -1.3906 -0.3355
   6523SM  H11T 8389   4.930   0.595   7.492 -1.2343 -1.5058  1.5971
   6523SM  C12S 8390   4.897   0.732   7.333 -0.8060 -0.0061  0.8173
   6523SM  H12S 8391   5.006   0.737   7.313 -0.3484  2.1366  3.3581
   6523SM  H12T 8392   4.851   0.830   7.309  0.3153  0.0800 -1.1812
   6523SM  C13S 8393   4.833   0.633   7.230  0.4764 -0.1129  0.1288
   6523SM  H13S 8394   4.725   0.637   7.257  0.5950 -2.2716  1.1372
   6523SM  H13T 8395   4.887   0.538   7.252  0.9558  0.2877  0.7087
   6523SM  C14S 8396   4.864   0.680   7.090  0.2016 -0.5400  0.2068
   6523SM  H14S 8397   4.971   0.703   7.074 -0.1375  0.0819 -1.3263
   6523SM  H14T 8398   4.812   0.778   7.094  1.4077  0.0987  0.5751
   6523SM  C15S 8399   4.819   0.593   6.978 -0.4086  0.1533 -0.3588
   6523SM  H15S 8400   4.710   0.571   6.985 -0.8159  2.2142  0.5980
   6523SM  H15T 8401   4.880   0.500   6.982  0.7380  0.8408 -1.1637
   6523SM  C16S 8402   4.861   0.660   6.846 -0.2103  0.3837  0.6139
   6523SM  H16S 8403   4.856   0.586   6.763  1.1597  0.2922  0.5879
   6523SM  H16T 8404   4.970   0.680   6.855  0.3755 -2.1273 -0.0730
   6523SM  C17S 8405   4.791   0.792   6.804 -0.0346 -0.2349 -0.1579
   6523SM  H17S 8406   4.796   0.859   6.892 -0.4275  2.0411 -1.7772
   6523SM  H17T 8407   4.681   0.785   6.787 -0.2771  1.4907  0.5300
   6523SM  C18S 8408   4.853   0.855   6.680 -0.3007 -0.2512  0.0843
   6523SM  H18S 8409   4.964   0.854   6.681 -0.2297 -3.3435 -0.0898
   6523SM  H18T 8410   4.815   0.958   6.667  1.4265  0.7576  2.3764
   6523SM  H18U 8411   4.832   0.796   6.588 -1.5337  1.2095 -0.6055
   6523SM   C1F 8412   4.649   0.466   8.410 -0.1088  0.9058 -0.7959
   6523SM    OF 8413   4.555   0.521   8.456 -0.2878  0.3777 -0.5327
   6523SM   C2F 8414   4.633   0.330   8.355  0.9530  0.0864 -0.6094
   6523SM   H2F 8415   4.552   0.280   8.412  0.6598  0.8681 -0.3174
   6523SM   H2G 8416   4.724   0.267   8.360  1.6789  1.1975  2.3762
   6523SM   C3F 8417   4.580   0.325   8.210 -0.0072  0.9934 -0.2748
   6523SM   H3F 8418   4.477   0.366   8.211 -0.5083 -0.1581 -1.8988
   6523SM   H3G 8419   4.580   0.218   8.179  2.2056  0.6964  0.5609
   6523SM   C4F 8420   4.653   0.415   8.103 -0.0797 -0.0344  0.3318
   6523SM   H4F 8421   4.757   0.380   8.118 -0.9855 -3.5328 -0.5976
   6523SM   H4G 8422   4.640   0.520   8.135  0.5290  0.0623  0.2814
   6523SM   C5F 8423   4.605   0.391   7.961 -0.4879  0.0811  0.4150
   6523SM   H5F 8424   4.494   0.394   7.963 -0.4723  2.3857  1.2196
   6523SM   H5G 8425   4.643   0.292   7.927  0.8703  0.4519  0.8073
   6523SM   C6F 8426   4.652   0.502   7.862  0.1222  0.4957  0.7994
   6523SM   H6F 8427   4.763   0.509   7.854  0.1485  0.0270  0.7206
   6523SM   H6G 8428   4.609   0.596   7.901 -1.6566  0.2435 -0.4467
   6523SM   C7F 8429   4.600   0.468   7.722 -0.3129  0.5096 -0.1884
   6523SM   H7F 8430   4.573   0.564   7.673 -1.2475  0.9762  1.1900
   6523SM   H7G 8431   4.501   0.422   7.740 -0.7639  0.2418 -2.8726
   6523SM   C8F 8432   4.682   0.373   7.642 -0.2710 -0.1469  0.1555
   6523SM   H8F 8433   4.670   0.269   7.678  1.2116 -0.2922  0.2971
   6523SM   H8G 8434   4.790   0.388   7.666  0.1780  0.7381 -2.1504
   6523SM   C9F 8435   4.649   0.382   7.487 -0.6137 -0.3008 -0.3375
   6523SM   H9F 8436   4.710   0.305   7.434  1.7065  0.6993  0.7655
   6523SM   H9G 8437   4.688   0.478   7.448 -1.7133  0.4176  0.2919
   6523SM  C10F 8438   4.498   0.368   7.449 -0.0687  0.0261 -0.4635
   6523SM  H10F 8439   4.456   0.470   7.461 -0.2888  0.2687 -2.7883
   6523SM  H10G 8440   4.457   0.299   7.526  2.0113 -0.0050  0.6788
   6523SM  C11F 8441   4.469   0.322   7.305 -0.3577 -0.4359 -0.0485
   6523SM  H11F 8442   4.362   0.347   7.287 -0.1377  1.1263  0.7209
   6523SM  H11G 8443   4.502   0.216   7.299  1.3464  0.1363 -1.7559
   6523SM  C12F 8444   4.542   0.401   7.193 -0.4957 -0.3671 -0.0342
   6523SM  H12F 8445   4.651   0.390   7.213 -0.3365  0.4662 -0.4455
   6523SM  H12G 8446   4.513   0.507   7.204  0.3977  0.0651 -1.6689
   6523SM  C13F 8447   4.524   0.357   7.047 -0.3144  0.1629 -0.3944
   6523SM  H13F 8448   4.534   0.444   6.978 -2.1324  0.7820  0.0726
   6523SM  H13G 8449   4.419   0.323   7.056  0.0564 -0.7137  0.9629
   6523SM  C14F 8450   4.619   0.246   6.987  1.2192  0.3658  0.0881
   6523SM  H14F 8451   4.591   0.142   7.013  0.4644  0.4883 -0.1925
   6523SM  H14G 8452   4.722   0.266   7.021  1.5560  1.0941 -1.2650
   6523SM  C15F 8453   4.639   0.273   6.834 -0.1384  0.7564 -0.3439
   6523SM  H15F 8454   4.712   0.196   6.799 -0.6523  0.4562 -0.7807
   6523SM  H15G 8455   4.676   0.374   6.808  1.1948  0.7070  1.2355
   6523SM  C16F 8456   4.510   0.257   6.749  0.1936  0.2611 -0.4702
   6523SM  H16F 8457   4.458   0.355   6.737 -0.5575 -0.1886 -1.0008
   6523SM  H16G 8458   4.435   0.197   6.806  1.8989 -3.4278 -1.7613
   6523SM  C17F 8459   4.518   0.193   6.613  0.0641 -0.1232  0.3265
   6523SM  H17F 8460   4.420   0.166   6.569  0.9728 -0.5728 -1.5023
   6523SM  H17G 8461   4.575   0.098   6.609  2.3909  1.1714  0.7165
   6523SM  C18F 8462   4.602   0.276   6.511 -0.1973 -0.6201 -0.0370
   6523SM  H18F 8463   4.710   0.270   6.540 -0.0909  0.6480 -0.1216
   6523SM  H18G 8464   4.573   0.383   6.522 -0.8270 -0.7297 -0.6334
   6523SM  C19F 8465   4.586   0.220   6.369  0.6136  0.1400 -0.1401
   6523SM  H19F 8466   4.477   0.240   6.355  0.5658 -1.5948 -2.7284
   6523SM  H19G 8467   4.592   0.110   6.362 -1.5514  0.0715 -1.9073
   6523SM  C20F 8468   4.669   0.266   6.256 -0.2882 -0.0165  0.1684
   6523SM  H20F 8469   4.771   0.222   6.263  0.0354  0.8433  1.1169
   6523SM  H20G 8470   4.697   0.373   6.253  3.3781 -0.8208 -3.0274
   6523SM  C21F 8471   4.625   0.220   6.119  0.2847  0.7765  0.3509
   6523SM  H21F 8472   4.526   0.266   6.103 -0.3016 -1.2426 -2.9905
   6523SM  H21G 8473   4.606   0.110   6.112 -2.0451  1.2002 -1.4667
   6523SM  C22F 8474   4.717   0.273   6.009  0.4561  0.0607  0.5931
   6523SM  H22F 8475   4.747   0.375   6.040  0.4256  0.1922  0.1850
   6523SM  H22G 8476   4.651   0.290   5.922 -1.9742 -1.3238  2.0347
   6523SM  C23F 8477   4.836   0.191   5.971 -0.0066  0.7404  0.6783
   6523SM  H23F 8478   4.912   0.193   6.051  0.8765 -0.0059 -0.1127
   6523SM  H23G 8479   4.877   0.240   5.880 -1.7950  0.8455 -0.1226
   6523SM  H23H 8480   4.807   0.085   5.949  0.6746  0.0313  2.9780
   6623SM     N 8481   4.328   4.240   9.128  0.1539 -0.0653  0.3673
   6623SM   C15 8482   4.224   4.168   9.065  0.6521  0.4103  0.2024
   6623SM  H15A 8483   4.169   4.114   9.140  1.2041 -0.0439  0.2814
   6623SM  H15B 8484   4.258   4.107   8.983  0.1762  1.8322 -1.1194
   6623SM  H15C 8485   4.155   4.238   9.020  0.1929  0.3200  0.7563
   6623SM   C14 8486   4.259   4.319   9.234  0.2609  0.0740  0.1591
   6623SM  H14A 8487   4.217   4.257   9.312  1.6258 -0.6582  0.3567
   6623SM  H14B 8488   4.173   4.371   9.196  1.1579  1.2746 -0.2972
   6623SM  H14C 8489   4.325   4.394   9.275 -1.0275  1.4705 -0.2519
   6623SM   C13 8490   4.416   4.145   9.195 -0.0029 -0.0655  0.3411
   6623SM  H13A 8491   4.360   4.075   9.254  1.3947 -0.3534  1.3651
   6623SM  H13B 8492   4.487   4.201   9.254  1.2461 -1.6959  0.4341
   6623SM  H13C 8493   4.477   4.089   9.126 -0.1024  1.4162 -1.0232
   6623SM   C12 8494   4.392   4.329   9.024 -0.3738 -0.3092  0.7190
   6623SM  H12A 8495   4.472   4.387   9.069 -0.4224 -0.1079  0.5471
   6623SM  H12B 8496   4.316   4.402   9.002 -2.1271 -2.0277  0.7588
   6623SM   C11 8497   4.446   4.274   8.889 -0.3679  0.1642 -0.2087
   6623SM  H11A 8498   4.505   4.180   8.901  1.2298  1.1009 -0.4332
   6623SM  H11B 8499   4.510   4.354   8.847 -2.3015  0.8768 -2.0015
   6623SM     P 8500   4.243   4.357   8.743 -0.0262  0.0309  0.0088
   6623SM   O13 8501   4.123   4.289   8.688  0.3633  0.1672  0.1398
   6623SM   O14 8502   4.222   4.458   8.847  0.8032 -0.2874  1.0554
   6623SM   O11 8503   4.330   4.419   8.626 -0.3371  0.1274  0.3676
   6623SM   O12 8504   4.339   4.254   8.794 -0.2049 -0.0303  0.5777
   6623SM   C1S 8505   4.446   4.355   8.571  1.4290 -0.3039 -0.0481
   6623SM   H1S 8506   4.424   4.246   8.563  0.8436 -0.1209 -1.1669
   6623SM   H1T 8507   4.535   4.387   8.628  0.2640  1.5693  0.8431
   6623SM    NF 8508   4.548   4.333   8.350 -0.2038 -0.4483 -0.1957
   6623SM   HNF 8509   4.635   4.377   8.329  0.2051 -1.2119 -0.1304
   6623SM   C2S 8510   4.467   4.412   8.432  0.5650 -0.3572  0.3029
   6623SM   H2S 8511   4.363   4.406   8.392  0.6043  0.2171  0.0921
   6623SM   C3S 8512   4.503   4.564   8.425 -0.6780  0.0546  0.4095
   6623SM   H3S 8513   4.613   4.580   8.432 -0.3097 -1.4149 -1.2156
   6623SM    O3 8514   4.444   4.648   8.526  0.4871  0.5920  0.6740
   6623SM   HO3 8515   4.386   4.583   8.566 -0.6910  0.7822 -0.6471
   6623SM   C4S 8516   4.459   4.614   8.289 -0.0427 -0.1857  0.8398
   6623SM   H4S 8517   4.355   4.590   8.263 -0.7596  1.0749  2.3702
   6623SM   C5S 8518   4.536   4.666   8.192  0.7559  0.0287 -0.8632
   6623SM   H5S 8519   4.642   4.672   8.222  0.1159 -1.0859  1.9754
   6623SM   C6S 8520   4.482   4.703   8.057  0.0124 -0.9318 -0.3082
   6623SM   H6S 8521   4.532   4.800   8.037 -0.1121 -0.2185  2.3803
   6623SM   H6T 8522   4.373   4.727   8.052 -0.1144 -1.6780 -1.2860
   6623SM   C7S 8523   4.523   4.602   7.959  0.1269 -0.0005 -0.0661
   6623SM   H7S 8524   4.483   4.502   7.987  1.9461 -0.7958 -0.2036
   6623SM   H7T 8525   4.633   4.592   7.951  0.1527  0.3632 -0.1429
   6623SM   C8S 8526   4.469   4.639   7.827 -0.2213 -0.2316 -0.0096
   6623SM   H8S 8527   4.530   4.727   7.797 -0.1428 -0.7989 -1.6058
   6623SM   H8T 8528   4.359   4.655   7.828 -0.2229 -0.2166 -0.2698
   6623SM   C9S 8529   4.511   4.532   7.717  0.1073 -0.8746 -0.5123
   6623SM   H9S 8530   4.480   4.435   7.762  1.1034 -1.0661 -0.1955
   6623SM   H9T 8531   4.622   4.531   7.704  0.1573 -1.8327 -0.1374
   6623SM  C10S 8532   4.453   4.557   7.582  0.0566 -0.6029  0.0350
   6623SM  H10S 8533   4.512   4.645   7.547  0.2364  0.2042  2.2163
   6623SM  H10T 8534   4.347   4.593   7.578  0.8234  1.8288  0.0465
   6623SM  C11S 8535   4.459   4.437   7.480 -0.5958 -0.7237 -0.6539
   6623SM  H11S 8536   4.397   4.359   7.530 -0.7937 -1.6463 -2.2415
   6623SM  H11T 8537   4.564   4.401   7.477 -0.0707  0.2292  2.5638
   6623SM  C12S 8538   4.389   4.456   7.346  0.2553  0.7557  0.5771
   6623SM  H12S 8539   4.289   4.503   7.362  0.6527  2.2161 -1.0122
   6623SM  H12T 8540   4.387   4.353   7.305  0.7011  1.1232 -0.3735
   6623SM  C13S 8541   4.467   4.531   7.240  0.0254 -0.0725 -0.4057
   6623SM  H13S 8542   4.568   4.490   7.218  1.2220  0.5363  3.2840
   6623SM  H13T 8543   4.479   4.632   7.286  2.0925 -0.5515  0.2288
   6623SM  C14S 8544   4.384   4.544   7.112 -0.1532  0.2350  0.5644
   6623SM  H14S 8545   4.284   4.588   7.133 -0.0100  0.7952  0.0810
   6623SM  H14T 8546   4.368   4.445   7.064 -0.5076 -0.0950  1.3448
   6623SM  C15S 8547   4.451   4.634   7.004  0.4131 -0.5272 -1.0969
   6623SM  H15S 8548   4.560   4.654   7.017  0.5268 -0.3539 -2.2105
   6623SM  H15T 8549   4.411   4.737   7.010  3.1781  0.5693  1.2254
   6623SM  C16S 8550   4.445   4.570   6.866 -0.3085 -0.3369  0.0328
   6623SM  H16S 8551   4.342   4.533   6.847 -0.1358  0.9131 -4.3931
   6623SM  H16T 8552   4.523   4.490   6.866  0.3446  0.1749 -3.1317
   6623SM  C17S 8553   4.495   4.665   6.756 -0.7173  0.6021  0.2400
   6623SM  H17S 8554   4.605   4.664   6.774 -1.0709 -0.2993  2.7688
   6623SM  H17T 8555   4.463   4.767   6.783 -0.7356  0.8113 -0.5472
   6623SM  C18S 8556   4.460   4.617   6.614 -0.1443  0.0766 -0.3614
   6623SM  H18S 8557   4.350   4.616   6.605 -0.2870 -0.5155  1.1204
   6623SM  H18T 8558   4.487   4.511   6.597  0.8585  0.4113 -0.9534
   6623SM  H18U 8559   4.509   4.682   6.538  2.0247  0.2989  1.1345
   6623SM   C1F 8560   4.529   4.205   8.318  1.0567 -0.5981  0.1837
   6623SM    OF 8561   4.419   4.154   8.340 -0.2594 -0.1186 -0.1183
   6623SM   C2F 8562   4.647   4.133   8.264  0.2271 -0.0856  0.5173
   6623SM   H2F 8563   4.665   4.052   8.338  0.4209  0.9624  1.6445
   6623SM   H2G 8564   4.738   4.197   8.257 -0.0384  0.1091 -2.2245
   6623SM   C3F 8565   4.633   4.067   8.123  0.8126  1.1173  0.4766
   6623SM   H3F 8566   4.547   3.996   8.131  1.2464  0.6099  0.6870
   6623SM   H3G 8567   4.723   4.002   8.118  0.0482 -0.1716  2.2784
   6623SM   C4F 8568   4.608   4.163   8.012 -0.0806  0.3518  0.4407
   6623SM   H4F 8569   4.699   4.226   8.000  0.2018  0.3688  2.2665
   6623SM   H4G 8570   4.520   4.228   8.034  0.8439  1.7622  0.1336
   6623SM   C5F 8571   4.583   4.084   7.889  0.5700  0.0812  0.1771
   6623SM   H5F 8572   4.516   4.143   7.822 -0.4620  1.0850  2.0147
   6623SM   H5G 8573   4.530   3.993   7.923 -0.8848  1.3775  1.5241
   6623SM   C6F 8574   4.710   4.043   7.819 -0.0819  0.3321  0.4916
   6623SM   H6F 8575   4.764   3.976   7.890  1.8375  1.3465  0.0534
   6623SM   H6G 8576   4.769   4.130   7.783  3.4327 -0.5535  3.4647
   6623SM   C7F 8577   4.682   3.960   7.689 -0.9631 -0.5619  0.7009
   6623SM   H7F 8578   4.606   3.884   7.719 -0.6908 -1.8089 -1.5144
   6623SM   H7G 8579   4.779   3.917   7.658 -1.2275 -0.4961 -0.2312
   6623SM   C8F 8580   4.618   4.049   7.586 -0.1325 -1.0655  0.0943
   6623SM   H8F 8581   4.670   4.146   7.581 -0.0234 -1.0359  1.6266
   6623SM   H8G 8582   4.512   4.072   7.612 -0.4249  0.2748 -2.0421
   6623SM   C9F 8583   4.618   3.982   7.441  0.3683 -0.2504  0.4141
   6623SM   H9F 8584   4.579   3.878   7.443  3.4413 -1.5234 -0.3646
   6623SM   H9G 8585   4.724   3.975   7.411  1.2549  1.6658  2.8005
   6623SM  C10F 8586   4.543   4.073   7.345 -0.3303 -0.7857 -0.4818
   6623SM  H10F 8587   4.595   4.171   7.343  1.1086 -1.3906  2.2787
   6623SM  H10G 8588   4.433   4.078   7.365 -0.7074 -0.8862 -2.3487
   6623SM  C11F 8589   4.538   4.017   7.202 -0.3770  0.6668 -0.4913
   6623SM  H11F 8590   4.472   3.928   7.210 -0.3916  0.7124 -0.0178
   6623SM  H11G 8591   4.642   3.983   7.186  0.8144  2.1605  3.0292
   6623SM  C12F 8592   4.491   4.118   7.100 -0.7033  0.1261 -0.3413
   6623SM  H12F 8593   4.561   4.205   7.099 -1.3152  0.6213 -0.6251
   6623SM  H12G 8594   4.397   4.169   7.127  1.2552  3.4728  0.7469
   6623SM  C13F 8595   4.479   4.057   6.963  0.6602  0.0711  0.0203
   6623SM  H13F 8596   4.385   3.998   6.956  0.1985  0.6462  1.0253
   6623SM  H13G 8597   4.563   3.987   6.946  0.5712  0.0846 -0.4664
   6623SM  C14F 8598   4.475   4.172   6.860 -0.5659 -0.6922  0.1840
   6623SM  H14F 8599   4.577   4.213   6.844 -0.2539 -0.6051  2.1211
   6623SM  H14G 8600   4.423   4.256   6.910  0.5027  0.0350  0.1118
   6623SM  C15F 8601   4.410   4.149   6.726 -0.0329 -0.6956 -0.0459
   6623SM  H15F 8602   4.422   4.243   6.668  1.8519 -0.0241  1.3377
   6623SM  H15G 8603   4.301   4.132   6.744  0.6316 -1.7462  3.7070
   6623SM  C16F 8604   4.461   4.026   6.650  0.4296 -0.4511  0.1231
   6623SM  H16F 8605   4.416   3.936   6.698 -1.0024  0.0658 -0.2104
   6623SM  H16G 8606   4.572   4.016   6.647  0.2606 -2.7958 -1.8726
   6623SM  C17F 8607   4.412   4.031   6.511  0.6844 -0.9095 -0.0821
   6623SM  H17F 8608   4.471   4.111   6.463 -0.9632 -1.2100 -2.8061
   6623SM  H17G 8609   4.306   4.060   6.493  0.7204 -0.9254 -0.3211
   6623SM  C18F 8610   4.445   3.901   6.439  0.3959 -0.5345 -0.2225
   6623SM  H18F 8611   4.548   3.868   6.460  0.2185  1.0874  4.1835
   6623SM  H18G 8612   4.424   3.921   6.331 -1.5922  0.9473  0.3608
   6623SM  C19F 8613   4.361   3.783   6.487  0.6442 -0.7804 -0.4198
   6623SM  H19F 8614   4.376   3.754   6.593  0.7772  1.1154  0.1139
   6623SM  H19G 8615   4.394   3.689   6.438 -1.3711 -0.9854 -1.4715
   6623SM  C20F 8616   4.211   3.780   6.457 -0.3283 -0.3347 -0.0177
   6623SM  H20F 8617   4.166   3.847   6.534 -2.6641 -0.5229 -1.1165
   6623SM  H20G 8618   4.178   3.674   6.465 -0.5606 -0.4731 -2.3209
   6623SM  C21F 8619   4.176   3.813   6.310 -0.3036  0.6720 -0.0575
   6623SM  H21F 8620   4.257   3.774   6.244  1.2289  2.8940  0.4308
   6623SM  H21G 8621   4.173   3.922   6.294 -0.8099  0.6101 -0.4338
   6623SM  C22F 8622   4.045   3.754   6.274 -0.6017 -0.5642 -0.1660
   6623SM  H22F 8623   4.040   3.645   6.293 -0.2776 -0.4165  0.8350
   6623SM  H22G 8624   4.029   3.769   6.165 -0.4165  0.5375 -0.0590
   6623SM  C23F 8625   3.927   3.825   6.341 -0.2209  0.0132  0.3416
   6623SM  H23F 8626   3.890   3.915   6.288 -0.2524  0.0871  0.4891
   6623SM  H23G 8627   3.958   3.853   6.444  4.0598 -1.2172 -0.4104
   6623SM  H23H 8628   3.841   3.755   6.335  1.0764 -1.5267 -1.6855
   6723SM     N 8629   3.440   2.064   8.892  1.0384  0.4051 -0.0244
   6723SM   C15 8630   3.442   2.042   9.042 -0.9724 -0.0623 -0.0906
   6723SM  H15A 8631   3.408   1.941   9.060 -2.9803 -0.1085 -3.3717
   6723SM  H15B 8632   3.373   2.108   9.094 -0.6675  1.5995 -1.6759
   6723SM  H15C 8633   3.536   2.073   9.085 -0.2994  2.3834 -3.0007
   6723SM   C14 8634   3.298   2.087   8.861  0.6788 -0.3927 -0.2007
   6723SM  H14A 8635   3.256   2.176   8.906  0.1384 -1.7439  2.1388
   6723SM  H14B 8636   3.244   2.012   8.916  1.0163 -0.9014 -0.5568
   6723SM  H14C 8637   3.272   2.087   8.756 -1.1545 -0.2738  0.2124
   6723SM   C13 8638   3.522   2.184   8.870  0.4638  0.2935 -0.1946
   6723SM  H13A 8639   3.464   2.264   8.913 -0.0821  0.2774 -0.8964
   6723SM  H13B 8640   3.525   2.203   8.764 -1.6769 -1.8538 -0.7367
   6723SM  H13C 8641   3.624   2.181   8.908  1.0295 -0.8213 -1.7037
   6723SM   C12 8642   3.495   1.948   8.820 -0.2380  0.3331 -0.2643
   6723SM  H12A 8643   3.442   1.862   8.858  0.1618  0.3247  0.2956
   6723SM  H12B 8644   3.599   1.930   8.846 -0.5997 -0.2445  0.8658
   6723SM   C11 8645   3.467   1.935   8.665 -0.3923  0.3390  0.5672
   6723SM  H11A 8646   3.358   1.928   8.644 -0.6817  1.6427  1.5738
   6723SM  H11B 8647   3.516   1.840   8.633 -0.4554  0.1373  1.0602
   6723SM     P 8648   3.683   2.060   8.569  0.3009  0.1393 -0.3087
   6723SM   O13 8649   3.707   2.196   8.521  0.0374 -0.0605 -0.4554
   6723SM   O14 8650   3.762   2.008   8.676  0.4144 -0.0409 -0.0378
   6723SM   O11 8651   3.709   1.953   8.448  0.4448  0.2930 -0.2169
   6723SM   O12 8652   3.524   2.051   8.600 -0.0840  0.1870 -0.6021
   6723SM   C1S 8653   3.634   1.971   8.331 -0.4807  0.1580 -0.3033
   6723SM   H1S 8654   3.664   2.065   8.279  2.2684 -0.8086 -0.5882
   6723SM   H1T 8655   3.523   1.980   8.339 -0.5131 -0.6376  0.2029
   6723SM    NF 8656   3.633   1.898   8.098  0.5271  0.0923  0.5544
   6723SM   HNF 8657   3.566   1.836   8.059  1.3847 -0.7523  0.3754
   6723SM   C2S 8658   3.672   1.861   8.234 -0.3835 -0.0054  0.6664
   6723SM   H2S 8659   3.782   1.848   8.222 -0.5907 -0.0746 -1.4734
   6723SM   C3S 8660   3.617   1.728   8.287 -0.1151  0.4724 -0.4129
   6723SM   H3S 8661   3.507   1.729   8.270  0.0333  1.1201 -1.4014
   6723SM    O3 8662   3.643   1.713   8.428  0.0353  0.0741 -0.2246
   6723SM   HO3 8663   3.665   1.804   8.451 -0.4248 -0.1264  1.0760
   6723SM   C4S 8664   3.658   1.605   8.208 -0.1494 -0.2722  0.8812
   6723SM   H4S 8665   3.591   1.574   8.126 -0.6995  0.4648  1.0454
   6723SM   C5S 8666   3.774   1.535   8.220  0.2157  1.0756 -0.0315
   6723SM   H5S 8667   3.850   1.578   8.287  0.0635  2.1988 -0.5523
   6723SM   C6S 8668   3.823   1.409   8.146 -0.3150  0.2615 -0.5417
   6723SM   H6S 8669   3.826   1.324   8.217 -1.4601 -0.3602 -1.1953
   6723SM   H6T 8670   3.921   1.417   8.095 -1.2084 -2.9226 -3.0640
   6723SM   C7S 8671   3.734   1.352   8.038 -1.2706 -0.0337 -0.4582
   6723SM   H7S 8672   3.692   1.438   7.981  1.1754  1.5387 -0.0343
   6723SM   H7T 8673   3.656   1.286   8.083 -0.5963 -0.9557 -0.6163
   6723SM   C8S 8674   3.818   1.269   7.943 -0.2477 -0.7781 -0.2478
   6723SM   H8S 8675   3.880   1.197   8.001  0.4388  0.4356  0.5799
   6723SM   H8T 8676   3.892   1.329   7.887  0.3116 -0.4677  0.8042
   6723SM   C9S 8677   3.733   1.206   7.835  0.3842  0.7954  0.0620
   6723SM   H9S 8678   3.706   1.287   7.764 -0.6788 -0.6488 -1.2503
   6723SM   H9T 8679   3.637   1.162   7.871 -0.1922  2.1251  0.2169
   6723SM  C10S 8680   3.815   1.096   7.760 -0.0436  0.1971  0.3492
   6723SM  H10S 8681   3.811   1.004   7.823  1.6755 -1.6190 -1.9884
   6723SM  H10T 8682   3.922   1.121   7.748  0.0466  1.4937  3.2059
   6723SM  C11S 8683   3.757   1.045   7.630 -0.4489  0.6607 -0.4162
   6723SM  H11S 8684   3.648   1.051   7.648 -0.8486 -1.7030 -1.6731
   6723SM  H11T 8685   3.784   0.937   7.621  1.5428  0.9369  1.3393
   6723SM  C12S 8686   3.816   1.122   7.515  0.5320  0.1034 -0.0919
   6723SM  H12S 8687   3.925   1.100   7.523  0.3999 -0.3224  0.6111
   6723SM  H12T 8688   3.789   1.227   7.538 -1.6697 -0.5188  0.3581
   6723SM  C13S 8689   3.774   1.083   7.365 -0.1579 -0.1859  0.5342
   6723SM  H13S 8690   3.679   1.134   7.337  0.5804 -0.0493 -1.9012
   6723SM  H13T 8691   3.749   0.974   7.361 -1.3178  0.0376  1.0820
   6723SM  C14S 8692   3.881   1.119   7.262 -0.2833 -0.0768  0.3876
   6723SM  H14S 8693   3.972   1.065   7.296 -0.5694 -0.6138  0.3276
   6723SM  H14T 8694   3.899   1.228   7.270  1.0029 -0.2168 -0.3277
   6723SM  C15S 8695   3.841   1.081   7.118 -0.0284  0.1403  0.0538
   6723SM  H15S 8696   3.822   1.180   7.070 -0.2099  0.5412  0.9465
   6723SM  H15T 8697   3.751   1.017   7.109 -0.3272  0.6570 -0.7619
   6723SM  C16S 8698   3.956   1.008   7.042 -0.1991 -0.3623  0.4719
   6723SM  H16S 8699   4.006   0.941   7.115 -1.2793 -1.3022  0.3583
   6723SM  H16T 8700   4.030   1.086   7.012  1.0393 -2.4249 -2.3673
   6723SM  C17S 8701   3.910   0.929   6.910  0.5058 -0.1843 -0.2951
   6723SM  H17S 8702   4.004   0.902   6.856  0.5017  1.7778 -1.3524
   6723SM  H17T 8703   3.850   0.994   6.844 -0.5286 -1.3742 -0.5628
   6723SM  C18S 8704   3.829   0.797   6.929 -0.4083 -0.6958 -0.0234
   6723SM  H18S 8705   3.735   0.821   6.983 -0.5731 -0.9243 -0.2054
   6723SM  H18T 8706   3.881   0.724   6.994 -0.3908 -0.3476  0.3555
   6723SM  H18U 8707   3.802   0.750   6.832 -0.8784 -1.2608  0.3716
   6723SM   C1F 8708   3.685   2.007   8.031  0.0271  0.0007  0.7146
   6723SM    OF 8709   3.791   2.052   8.067 -0.1479 -0.1171 -0.2813
   6723SM   C2F 8710   3.611   2.055   7.908 -0.3494 -0.5555 -0.8791
   6723SM   H2F 8711   3.601   2.166   7.905  0.8006 -0.3677  0.6730
   6723SM   H2G 8712   3.507   2.018   7.908 -0.4413 -0.2992 -0.5343
   6723SM   C3F 8713   3.674   2.009   7.777 -0.2947  0.1616  0.4332
   6723SM   H3F 8714   3.695   1.901   7.787 -1.4063  0.0665  1.9752
   6723SM   H3G 8715   3.776   2.051   7.763  0.1614 -0.6165  1.3110
   6723SM   C4F 8716   3.605   2.053   7.649  0.0880  0.1082 -0.2132
   6723SM   H4F 8717   3.586   2.162   7.662 -0.6669 -0.2273  1.9288
   6723SM   H4G 8718   3.504   2.008   7.648  0.6673 -1.2900  0.9028
   6723SM   C5F 8719   3.675   2.021   7.518  0.4560 -0.5889  0.3678
   6723SM   H5F 8720   3.700   1.913   7.519 -1.9254 -1.2094  1.1902
   6723SM   H5G 8721   3.778   2.063   7.512 -0.1699  1.2054  1.3376
   6723SM   C6F 8722   3.595   2.052   7.390 -0.1985 -1.1346  0.1228
   6723SM   H6F 8723   3.606   2.158   7.358  0.7114 -1.1723  0.2821
   6723SM   H6G 8724   3.486   2.035   7.394 -0.3790  0.1966  2.6685
   6723SM   C7F 8725   3.647   1.979   7.269 -0.0196  0.6684 -0.2836
   6723SM   H7F 8726   3.675   1.874   7.292  2.2369  1.5746  1.4402
   6723SM   H7G 8727   3.740   2.029   7.235 -0.0312  0.2796 -0.9007
   6723SM   C8F 8728   3.557   1.978   7.139  0.0809 -0.0041 -0.9882
   6723SM   H8F 8729   3.536   2.084   7.113  3.6869  1.6998  2.0438
   6723SM   H8G 8730   3.469   1.916   7.164  1.0287 -0.9719  0.0946
   6723SM   C9F 8731   3.631   1.930   7.008  0.1760  0.3502  0.5423
   6723SM   H9F 8732   3.647   1.820   7.015  2.9874  0.4881 -1.8642
   6723SM   H9G 8733   3.735   1.967   7.000 -0.0681  1.2277  1.2890
   6723SM  C10F 8734   3.549   1.950   6.886  0.1811 -0.1556  0.1009
   6723SM  H10F 8735   3.563   2.051   6.841  2.4495 -0.4808 -0.0347
   6723SM  H10G 8736   3.443   1.938   6.916 -0.0703 -0.9726 -1.0269
   6723SM  C11F 8737   3.558   1.839   6.777  0.6235  0.5313 -0.2188
   6723SM  H11F 8738   3.548   1.739   6.824  1.9462  0.5291  0.1026
   6723SM  H11G 8739   3.654   1.845   6.721  0.5266 -0.4938 -0.5115
   6723SM  C12F 8740   3.446   1.848   6.672  0.6762  0.0124  0.5189
   6723SM  H12F 8741   3.431   1.955   6.645  1.3558 -0.3436 -1.4521
   6723SM  H12G 8742   3.350   1.822   6.719 -0.4905  3.2791  0.1897
   6723SM  C13F 8743   3.460   1.774   6.543 -0.9296  0.5007  0.2752
   6723SM  H13F 8744   3.464   1.667   6.572  0.4340  1.1357  2.7333
   6723SM  H13G 8745   3.555   1.807   6.496 -0.4793  0.1953  0.9650
   6723SM  C14F 8746   3.339   1.789   6.444  0.1545  0.3051  0.5035
   6723SM  H14F 8747   3.339   1.892   6.404 -0.3581  1.2372  2.7598
   6723SM  H14G 8748   3.237   1.772   6.485 -0.9863  0.3971 -2.0592
   6723SM  C15F 8749   3.345   1.704   6.313 -0.3368 -0.2107  0.5098
   6723SM  H15F 8750   3.346   1.597   6.345  2.5588 -0.3530  0.2486
   6723SM  H15G 8751   3.433   1.738   6.254 -1.0819  2.7084  0.9282
   6723SM  C16F 8752   3.230   1.711   6.210 -0.2882  0.3435 -0.3401
   6723SM  H16F 8753   3.248   1.634   6.132  1.4577 -0.7712  1.0961
   6723SM  H16G 8754   3.228   1.817   6.178 -0.6218  0.5871  0.4536
   6723SM  C17F 8755   3.091   1.672   6.269  0.4259  0.3609  0.0665
   6723SM  H17F 8756   3.055   1.746   6.343 -1.3512 -1.3041  0.9697
   6723SM  H17G 8757   3.107   1.578   6.326 -1.0069 -0.4712 -0.8351
   6723SM  C18F 8758   2.994   1.639   6.156 -0.2978  0.3417 -0.2693
   6723SM  H18F 8759   3.044   1.583   6.074  0.6760  0.4457  0.2431
   6723SM  H18G 8760   2.952   1.738   6.126 -0.5823  0.2685 -0.1214
   6723SM  C19F 8761   2.871   1.555   6.194 -0.4300  0.4284 -0.5382
   6723SM  H19F 8762   2.783   1.583   6.132 -0.0231  2.1410 -0.4016
   6723SM  H19G 8763   2.824   1.582   6.291  0.3992  2.1352 -0.5691
   6723SM  C20F 8764   2.902   1.405   6.184 -0.0955  0.0736  0.1780
   6723SM  H20F 8765   2.822   1.344   6.231  1.8252 -1.4387  1.6411
   6723SM  H20G 8766   2.993   1.375   6.240  1.1102 -0.7132 -2.0593
   6723SM  C21F 8767   2.918   1.353   6.036  0.5513  0.0719 -0.0070
   6723SM  H21F 8768   3.004   1.399   5.984  0.5891  0.3620  0.3096
   6723SM  H21G 8769   2.827   1.374   5.976 -0.3017  0.6379  1.4337
   6723SM  C22F 8770   2.960   1.219   6.043 -0.2723  0.5080 -0.1222
   6723SM  H22F 8771   2.888   1.159   6.102  1.1595  1.4508  2.7402
   6723SM  H22G 8772   3.053   1.213   6.103 -1.0383  0.8614  1.1376
   6723SM  C23F 8773   2.973   1.152   5.904 -0.2441 -0.5064  0.0560
   6723SM  H23F 8774   3.032   1.217   5.836 -0.0861 -1.0556 -0.3378
   6723SM  H23G 8775   2.881   1.131   5.844 -0.1250  1.4806 -0.9057
   6723SM  H23H 8776   3.031   1.061   5.929 -2.2200 -1.1499  2.8635
   6823SM     N 8777   3.697   3.864   9.416 -0.0218  0.2559 -0.3146
   6823SM   C15 8778   3.578   3.856   9.495 -0.3998 -0.0590  0.0809
   6823SM  H15A 8779   3.492   3.804   9.454 -0.9306 -0.0699  1.1523
   6823SM  H15B 8780   3.540   3.957   9.501  0.3523  0.3078 -1.1341
   6823SM  H15C 8781   3.589   3.819   9.596  2.3940 -1.9211 -0.8025
   6823SM   C14 8782   3.800   3.944   9.490  0.0961 -0.2686  0.2535
   6823SM  H14A 8783   3.794   3.938   9.598 -1.0070 -1.1962  0.1530
   6823SM  H14B 8784   3.789   4.043   9.449 -1.0862 -2.1348 -4.5601
   6823SM  H14C 8785   3.897   3.909   9.458 -0.0694 -0.7865  0.3055
   6823SM   C13 8786   3.741   3.726   9.384 -0.2233  1.0290 -0.2093
   6823SM  H13A 8787   3.819   3.721   9.310 -0.2243 -1.9377 -0.1533
   6823SM  H13B 8788   3.657   3.680   9.332 -0.4897  1.6424 -0.3359
   6823SM  H13C 8789   3.777   3.669   9.468 -1.2702 -0.2059 -0.5563
   6823SM   C12 8790   3.658   3.925   9.285 -0.0173 -0.6798 -0.4590
   6823SM  H12A 8791   3.572   3.871   9.248  0.6707 -1.3006 -1.1946
   6823SM  H12B 8792   3.739   3.913   9.214  2.0767  0.6226  1.5542
   6823SM   C11 8793   3.619   4.079   9.279 -0.3864  0.3864 -0.2563
   6823SM  H11A 8794   3.541   4.091   9.357  1.3546  0.7121  1.5343
   6823SM  H11B 8795   3.580   4.097   9.177 -1.9129  0.3182  0.2879
   6823SM     P 8796   3.845   4.197   9.229  0.0947 -0.0094  0.0744
   6823SM   O13 8797   3.933   4.275   9.313  0.2405  0.6915  0.2473
   6823SM   O14 8798   3.891   4.071   9.168  0.0911 -0.0287 -0.5515
   6823SM   O11 8799   3.778   4.301   9.131  0.6840 -0.1151 -0.2957
   6823SM   O12 8800   3.725   4.165   9.328  0.3140  0.5978  0.2776
   6823SM   C1S 8801   3.708   4.269   9.010 -0.2739 -0.2176  0.6568
   6823SM   H1S 8802   3.602   4.245   9.030 -0.1132 -1.0556  0.5297
   6823SM   H1T 8803   3.755   4.181   8.961 -1.0481 -1.0715  1.4152
   6823SM    NF 8804   3.674   4.317   8.774  0.6079 -0.6731  0.0583
   6823SM   HNF 8805   3.743   4.300   8.703  2.1642  1.7597  0.8938
   6823SM   C2S 8806   3.723   4.377   8.898  0.5691  0.2504 -0.3814
   6823SM   H2S 8807   3.656   4.462   8.923 -0.2290 -0.2907 -0.6394
   6823SM   C3S 8808   3.866   4.443   8.901  0.1396  0.0208 -0.1853
   6823SM   H3S 8809   3.949   4.369   8.908  0.3661  0.3356  0.5133
   6823SM    O3 8810   3.887   4.513   9.021  0.4451 -0.1998 -0.0568
   6823SM   HO3 8811   3.823   4.475   9.082  1.0114  1.9038  1.9964
   6823SM   C4S 8812   3.886   4.543   8.793 -0.1404 -0.2216 -0.4507
   6823SM   H4S 8813   3.987   4.536   8.749 -0.2327 -0.2433 -0.6635
   6823SM   C5S 8814   3.815   4.652   8.758 -0.8156  0.5572 -0.1117
   6823SM   H5S 8815   3.727   4.676   8.819 -0.4424 -1.3062  1.2662
   6823SM   C6S 8816   3.850   4.755   8.657  0.0943 -0.4612  0.9157
   6823SM   H6S 8817   3.807   4.854   8.681 -2.0779 -0.7612 -1.2469
   6823SM   H6T 8818   3.798   4.721   8.564 -1.8521 -2.8753  2.7557
   6823SM   C7S 8819   4.001   4.756   8.604 -0.0324 -0.3496 -0.9515
   6823SM   H7S 8820   4.025   4.663   8.546 -0.5509 -0.3982 -1.0953
   6823SM   H7T 8821   4.066   4.759   8.694 -1.1798  2.2702 -0.1509
   6823SM   C8S 8822   4.039   4.872   8.515 -0.2565 -0.4732 -0.4321
   6823SM   H8S 8823   4.023   4.967   8.570  1.1677  0.0180 -0.8231
   6823SM   H8T 8824   3.964   4.874   8.433  2.2269 -2.1738 -2.9216
   6823SM   C9S 8825   4.178   4.858   8.459  0.0274 -0.6980 -0.0160
   6823SM   H9S 8826   4.199   4.757   8.417 -0.2614 -0.2599 -1.2712
   6823SM   H9T 8827   4.251   4.875   8.541  1.1787 -0.2117 -1.1070
   6823SM  C10S 8828   4.219   4.975   8.366 -0.2198  0.3469 -0.0614
   6823SM  H10S 8829   4.329   4.980   8.355 -0.1347  1.0896  1.0932
   6823SM  H10T 8830   4.184   5.076   8.395  0.6042  0.4121  0.7546
   6823SM  C11S 8831   4.167   4.947   8.228  0.5301 -0.3027  0.5223
   6823SM  H11S 8832   4.057   4.955   8.222  0.5273 -0.5408  0.2544
   6823SM  H11T 8833   4.182   4.842   8.196  0.1052  0.2347 -1.5850
   6823SM  C12S 8834   4.233   5.036   8.112  0.2125 -0.8574  0.5521
   6823SM  H12S 8835   4.344   5.036   8.119  0.0975 -1.1877  3.3921
   6823SM  H12T 8836   4.205   5.142   8.128  0.5193 -0.3609 -1.8370
   6823SM  C13S 8837   4.183   4.986   7.973  0.0392 -0.1843  0.1443
   6823SM  H13S 8838   4.081   5.009   7.937  1.4403  2.7179 -2.5267
   6823SM  H13T 8839   4.193   4.875   7.973  3.2205 -0.0092 -0.2407
   6823SM  C14S 8840   4.268   5.046   7.859 -0.5293 -0.2490 -0.0849
   6823SM  H14S 8841   4.378   5.045   7.876 -0.5591 -2.8281  0.3888
   6823SM  H14T 8842   4.235   5.146   7.825  1.4469  0.2430 -0.6661
   6823SM  C15S 8843   4.240   4.979   7.724 -0.4362  1.1181  0.4700
   6823SM  H15S 8844   4.129   4.978   7.715 -0.5987  1.5743  2.2061
   6823SM  H15T 8845   4.279   4.876   7.737 -1.8467  0.4004 -0.6934
   6823SM  C16S 8846   4.307   5.026   7.585 -1.0002  0.8520  0.1302
   6823SM  H16S 8847   4.414   5.036   7.614 -0.7170 -0.3854 -0.4485
   6823SM  H16T 8848   4.278   5.128   7.552  4.2555  2.3351 -0.9395
   6823SM  C17S 8849   4.311   4.922   7.466  0.7874 -0.1947  0.0895
   6823SM  H17S 8850   4.227   4.851   7.485  2.1589 -1.4370  1.8224
   6823SM  H17T 8851   4.396   4.853   7.485 -0.2561 -1.0935  1.7757
   6823SM  C18S 8852   4.313   4.977   7.323 -0.4677 -0.3336  0.7658
   6823SM  H18S 8853   4.408   5.032   7.308 -2.2279  2.2805 -1.7582
   6823SM  H18T 8854   4.236   5.049   7.289 -1.8999 -1.7370  0.8778
   6823SM  H18U 8855   4.324   4.890   7.254 -0.3847 -0.2484  0.6721
   6823SM   C1F 8856   3.541   4.274   8.764  0.2377 -0.0401 -0.3202
   6823SM    OF 8857   3.456   4.316   8.840 -0.6258 -0.9462 -0.0367
   6823SM   C2F 8858   3.506   4.174   8.657 -0.0323  0.4751  0.0382
   6823SM   H2F 8859   3.569   4.085   8.681 -1.9360 -1.1631 -0.7499
   6823SM   H2G 8860   3.539   4.213   8.558 -0.4024  2.9069  0.8060
   6823SM   C3F 8861   3.355   4.142   8.652 -0.1932  0.3649  0.3713
   6823SM   H3F 8862   3.313   4.112   8.751 -2.9942  0.3883 -0.7086
   6823SM   H3G 8863   3.351   4.051   8.589 -2.4910  0.7714 -0.1886
   6823SM   C4F 8864   3.269   4.240   8.574 -0.2986  0.0685 -0.9656
   6823SM   H4F 8865   3.317   4.240   8.474 -0.1250 -0.1538 -0.8840
   6823SM   H4G 8866   3.279   4.338   8.627  1.4779 -0.7203  0.2750
   6823SM   C5F 8867   3.125   4.205   8.558  0.5519  0.7172 -0.3526
   6823SM   H5F 8868   3.098   4.154   8.653  1.1942 -0.6702 -0.8827
   6823SM   H5G 8869   3.092   4.146   8.470 -0.7311  2.4700 -1.0994
   6823SM   C6F 8870   3.036   4.325   8.558 -0.0946 -0.4586  0.9312
   6823SM   H6F 8871   3.051   4.377   8.462  0.1790  0.3766  1.4156
   6823SM   H6G 8872   3.043   4.393   8.646 -0.4744 -0.7537  1.1953
   6823SM   C7F 8873   2.889   4.272   8.565  1.3112 -0.6045  0.7934
   6823SM   H7F 8874   2.826   4.344   8.622 -2.2135 -1.1900 -2.0278
   6823SM   H7G 8875   2.892   4.173   8.615 -1.0319 -1.7104 -1.1076
   6823SM   C8F 8876   2.826   4.254   8.432  0.3590  0.0715 -0.1364
   6823SM   H8F 8877   2.892   4.189   8.371 -0.3008  0.3915 -1.2267
   6823SM   H8G 8878   2.818   4.351   8.378 -4.5660 -0.1915 -0.3602
   6823SM   C9F 8879   2.682   4.202   8.426  0.3595  0.1166  0.3546
   6823SM   H9F 8880   2.624   4.261   8.500 -0.4474 -1.3207  0.9081
   6823SM   H9G 8881   2.676   4.096   8.459  0.7090  0.4799  1.6501
   6823SM  C10F 8882   2.628   4.214   8.281  0.1805  0.7159 -0.3559
   6823SM  H10F 8883   2.550   4.135   8.272  0.4508  0.2695  0.9831
   6823SM  H10G 8884   2.709   4.200   8.206  0.1393  2.7820 -0.8530
   6823SM  C11F 8885   2.574   4.351   8.250  0.3827 -0.0306 -0.3159
   6823SM  H11F 8886   2.658   4.419   8.277  1.8174 -0.1920 -3.8243
   6823SM  H11G 8887   2.483   4.367   8.311 -0.7873 -0.8369 -1.7965
   6823SM  C12F 8888   2.534   4.371   8.098 -0.2172 -0.5470  0.1282
   6823SM  H12F 8889   2.455   4.300   8.065  1.4549 -1.6134 -1.8221
   6823SM  H12G 8890   2.623   4.346   8.037 -0.6255 -1.6293 -0.0542
   6823SM  C13F 8891   2.506   4.516   8.061 -0.6537  0.3536  0.1463
   6823SM  H13F 8892   2.595   4.575   8.093 -0.8504  2.1810 -2.3659
   6823SM  H13G 8893   2.415   4.548   8.117 -0.6555 -1.9758  1.5711
   6823SM  C14F 8894   2.496   4.536   7.911 -0.7177 -0.1436  0.3853
   6823SM  H14F 8895   2.433   4.462   7.858 -0.2512  0.1202 -0.5586
   6823SM  H14G 8896   2.589   4.508   7.857 -1.1105 -0.4654 -0.1404
   6823SM  C15F 8897   2.445   4.676   7.874 -0.2109 -0.0480 -0.3769
   6823SM  H15F 8898   2.492   4.753   7.938  2.2260 -0.0343 -2.0636
   6823SM  H15G 8899   2.338   4.677   7.905 -0.0974 -0.0895  0.0301
   6823SM  C16F 8900   2.456   4.714   7.725 -0.4019  0.1079 -0.2317
   6823SM  H16F 8901   2.560   4.718   7.686 -0.4368  4.8692 -0.4150
   6823SM  H16G 8902   2.419   4.819   7.718 -1.0395 -0.1032 -0.0711
   6823SM  C17F 8903   2.363   4.622   7.634  0.0868 -0.1369  0.6047
   6823SM  H17F 8904   2.262   4.619   7.681 -0.5063  1.4966 -0.4579
   6823SM  H17G 8905   2.400   4.518   7.625  1.4732  0.3662  0.2697
   6823SM  C18F 8906   2.340   4.687   7.497  0.0066 -0.3243  0.6940
   6823SM  H18F 8907   2.442   4.702   7.455 -0.2649 -0.8357 -0.1476
   6823SM  H18G 8908   2.301   4.791   7.507  3.1409  0.9222  1.3502
   6823SM  C19F 8909   2.242   4.622   7.395  0.0122  0.0778 -1.1914
   6823SM  H19F 8910   2.139   4.621   7.437 -0.8355  1.1051 -3.1106
   6823SM  H19G 8911   2.266   4.514   7.401 -1.1539 -0.1160  2.3682
   6823SM  C20F 8912   2.258   4.664   7.249  0.3010 -0.3445 -0.1847
   6823SM  H20F 8913   2.355   4.630   7.207  1.1468  0.7502  0.8055
   6823SM  H20G 8914   2.245   4.774   7.257  3.1121  0.0770 -0.4992
   6823SM  C21F 8915   2.148   4.600   7.166 -0.1764 -0.0722  0.6885
   6823SM  H21F 8916   2.055   4.639   7.213 -0.6438 -0.6671  0.2823
   6823SM  H21G 8917   2.155   4.489   7.172  3.1592  0.1064  2.7721
   6823SM  C22F 8918   2.146   4.656   7.024  0.2681 -0.8011  0.0905
   6823SM  H22F 8919   2.177   4.762   7.035 -2.1367  0.1272 -1.2025
   6823SM  H22G 8920   2.040   4.650   6.991 -0.1868 -0.4214  1.4128
   6823SM  C23F 8921   2.235   4.576   6.933  0.9100  0.5726 -0.5197
   6823SM  H23F 8922   2.255   4.633   6.839 -1.9996  2.0153 -0.3863
   6823SM  H23G 8923   2.196   4.474   6.913  0.8424  0.4475  0.2187
   6823SM  H23H 8924   2.327   4.547   6.988 -0.2544 -1.3612  0.4749
   6923SM     N 8925   5.123   4.019   9.038 -0.6055 -0.1753 -0.4708
   6923SM   C15 8926   5.242   3.976   9.121 -0.0915 -0.8453  0.1516
   6923SM  H15A 8927   5.218   3.934   9.217  2.7014  0.9998  1.8114
   6923SM  H15B 8928   5.302   4.064   9.138 -0.6695 -0.7830  2.0781
   6923SM  H15C 8929   5.305   3.906   9.067  1.1396 -0.6338  1.2665
   6923SM   C14 8930   5.042   3.903   8.989  0.5072 -0.6413  0.2227
   6923SM  H14A 8931   4.975   3.865   9.065 -0.3882  0.6770  0.1142
   6923SM  H14B 8932   5.109   3.822   8.961 -0.7410 -1.9492  0.9055
   6923SM  H14C 8933   4.987   3.944   8.907  0.8186 -2.2338 -0.8361
   6923SM   C13 8934   5.050   4.112   9.123 -0.6695  0.5694  0.2607
   6923SM  H13A 8935   4.953   4.132   9.080 -0.5052 -0.3177 -0.5601
   6923SM  H13B 8936   5.106   4.203   9.130 -0.5435  0.5768 -0.7639
   6923SM  H13C 8937   5.030   4.074   9.222  0.3095 -1.2244 -0.1811
   6923SM   C12 8938   5.178   4.096   8.921  0.4856  0.0066 -0.3625
   6923SM  H12A 8939   5.236   4.032   8.857  1.3164  0.8551 -0.4787
   6923SM  H12B 8940   5.237   4.177   8.963 -0.3730  1.2574 -1.4686
   6923SM   C11 8941   5.088   4.179   8.834  0.2465  0.1594  0.5158
   6923SM  H11A 8942   5.161   4.216   8.760  2.0976 -1.9689  1.1743
   6923SM  H11B 8943   5.041   4.264   8.887 -1.3911  2.5272 -4.1350
   6923SM     P 8944   4.836   4.178   8.772  0.0500  0.4083 -0.0178
   6923SM   O13 8945   4.750   4.099   8.677  0.5425  0.4816  0.5573
   6923SM   O14 8946   4.794   4.165   8.914  0.2448  0.2462 -0.2301
   6923SM   O11 8947   4.854   4.331   8.727 -0.3766  0.0703 -0.2287
   6923SM   O12 8948   4.979   4.109   8.764 -0.4209  1.0301 -0.1780
   6923SM   C1S 8949   4.906   4.371   8.604  0.3906 -0.1352  0.0732
   6923SM   H1S 8950   4.860   4.306   8.527 -0.2074  2.0953 -1.5855
   6923SM   H1T 8951   5.013   4.342   8.598  0.1165 -0.9592 -1.5216
   6923SM    NF 8952   4.929   4.559   8.435 -0.2613 -0.2359  0.0307
   6923SM   HNF 8953   5.011   4.614   8.448 -0.4400  0.2860 -0.9518
   6923SM   C2S 8954   4.866   4.521   8.566 -0.3554 -0.4867  0.2029
   6923SM   H2S 8955   4.756   4.516   8.553 -0.3786 -2.9000  0.8990
   6923SM   C3S 8956   4.888   4.632   8.676 -0.0596 -0.5359  0.2128
   6923SM   H3S 8957   4.998   4.643   8.685  0.0829  0.7424 -2.2455
   6923SM    O3 8958   4.841   4.592   8.808 -0.0532 -0.4327 -0.1438
   6923SM   HO3 8959   4.817   4.500   8.793 -0.4101 -0.2082 -0.9821
   6923SM   C4S 8960   4.841   4.766   8.633  0.0548  0.2195 -0.0415
   6923SM   H4S 8961   4.917   4.845   8.642 -0.9949  1.2208  0.2906
   6923SM   C5S 8962   4.716   4.798   8.629 -0.0202  0.3906 -0.1606
   6923SM   H5S 8963   4.639   4.730   8.668  0.6729  0.4824  1.3976
   6923SM   C6S 8964   4.659   4.934   8.594 -0.2652  0.0307 -0.1193
   6923SM   H6S 8965   4.727   5.008   8.641  0.7556 -1.4072  0.7625
   6923SM   H6T 8966   4.565   4.947   8.653  0.1966 -3.1180  1.5477
   6923SM   C7S 8967   4.633   4.965   8.448  0.0865 -0.1689 -0.0915
   6923SM   H7S 8968   4.584   5.064   8.438 -2.1307 -1.3412 -1.6208
   6923SM   H7T 8969   4.560   4.903   8.392 -1.3311  2.2326 -1.0780
   6923SM   C8S 8970   4.764   4.962   8.363  0.2252 -0.0978  0.3126
   6923SM   H8S 8971   4.811   4.862   8.375 -1.5862 -0.8854  1.1743
   6923SM   H8T 8972   4.835   5.042   8.394 -0.4851  1.1502 -1.1397
   6923SM   C9S 8973   4.741   4.990   8.216  0.4614 -0.1917  0.2004
   6923SM   H9S 8974   4.707   5.095   8.200  1.9421  0.3703  0.6424
   6923SM   H9T 8975   4.668   4.913   8.182  1.2640 -0.2358 -1.5209
   6923SM  C10S 8976   4.872   4.962   8.143 -0.2531 -0.0139 -0.5010
   6923SM  H10S 8977   4.884   4.853   8.124 -1.0243 -0.0444 -0.8589
   6923SM  H10T 8978   4.948   4.999   8.215 -0.2973 -1.3117  0.2374
   6923SM  C11S 8979   4.872   5.033   8.004  0.3145  0.0645  0.3275
   6923SM  H11S 8980   4.979   5.039   7.974 -0.0561 -0.9788 -1.3801
   6923SM  H11T 8981   4.837   5.138   7.998  0.7864  0.2477  0.7593
   6923SM  C12S 8982   4.799   4.943   7.893  0.5676 -0.2227 -0.0834
   6923SM  H12S 8983   4.688   4.944   7.897  0.5486 -0.9990 -0.1495
   6923SM  H12T 8984   4.826   4.837   7.915  1.1197  0.1628  1.1812
   6923SM  C13S 8985   4.827   4.974   7.745  0.3964  0.2954  0.9896
   6923SM  H13S 8986   4.932   5.000   7.724  1.0877 -2.3145  0.8222
   6923SM  H13T 8987   4.760   5.050   7.699 -1.6454 -2.8256 -1.7719
   6923SM  C14S 8988   4.791   4.855   7.659 -0.0014  0.8738 -0.8558
   6923SM  H14S 8989   4.700   4.801   7.694  2.2508 -2.7246 -0.0876
   6923SM  H14T 8990   4.862   4.772   7.680 -0.7755 -0.1410 -2.0914
   6923SM  C15S 8991   4.785   4.891   7.507 -0.1911 -0.1495  0.0913
   6923SM  H15S 8992   4.864   4.969   7.499 -0.2841  0.0255  0.8212
   6923SM  H15T 8993   4.683   4.931   7.494  0.0081  0.5220  0.5827
   6923SM  C16S 8994   4.803   4.762   7.429 -0.0789  0.0507  0.2216
   6923SM  H16S 8995   4.764   4.674   7.484  1.7964 -1.0509 -0.1179
   6923SM  H16T 8996   4.912   4.742   7.416  0.2188  1.4747  0.3122
   6923SM  C17S 8997   4.724   4.766   7.297  0.1368  0.0857 -0.7475
   6923SM  H17S 8998   4.628   4.813   7.328  1.0164  0.9785  0.7463
   6923SM  H17T 8999   4.704   4.660   7.268  0.4987 -1.6520  4.3169
   6923SM  C18S 9000   4.768   4.859   7.177 -0.3467 -0.1904 -0.7710
   6923SM  H18S 9001   4.775   4.965   7.208 -1.3402  0.7078 -3.3640
   6923SM  H18T 9002   4.683   4.863   7.107  0.2515  1.4409 -1.4517
   6923SM  H18U 9003   4.866   4.825   7.135  0.7390 -0.3261  1.6519
   6923SM   C1F 9004   4.903   4.505   8.319 -0.2676  0.1282  0.7050
   6923SM    OF 9005   4.806   4.429   8.310  0.2709  0.2244 -0.3923
   6923SM   C2F 9006   4.982   4.549   8.206 -0.0577 -0.2441  0.1445
   6923SM   H2F 9007   5.087   4.516   8.220 -0.8600 -2.5096  1.3770
   6923SM   H2G 9008   4.980   4.660   8.203 -0.9443 -0.2557  0.0198
   6923SM   C3F 9009   4.921   4.490   8.074  0.0985 -0.7387 -0.2959
   6923SM   H3F 9010   4.823   4.538   8.057  0.5240  0.6115  0.8363
   6923SM   H3G 9011   4.915   4.381   8.093  0.9608 -0.2553  3.8215
   6923SM   C4F 9012   5.005   4.510   7.946  0.1854 -0.8981  0.1226
   6923SM   H4F 9013   5.102   4.458   7.959 -0.7375 -2.8167 -0.4377
   6923SM   H4G 9014   5.034   4.617   7.941 -0.9809 -0.6299 -2.0653
   6923SM   C5F 9015   4.922   4.456   7.829  0.0396 -0.3055 -0.2279
   6923SM   H5F 9016   4.836   4.525   7.817  1.0053  0.6560 -2.1734
   6923SM   H5G 9017   4.890   4.350   7.831 -0.5528 -0.1955 -2.0569
   6923SM   C6F 9018   4.995   4.465   7.696  0.4695  0.0130  0.2768
   6923SM   H6F 9019   5.071   4.385   7.691  0.8146  0.3555 -0.0519
   6923SM   H6G 9020   5.043   4.563   7.675 -1.6800  1.1809  0.4905
   6923SM   C7F 9021   4.900   4.423   7.579  0.1713 -0.7224 -0.7858
   6923SM   H7F 9022   4.808   4.485   7.585 -0.9926 -2.5167  3.6116
   6923SM   H7G 9023   4.864   4.322   7.607  1.9064 -1.6764 -1.8409
   6923SM   C8F 9024   4.948   4.405   7.430  0.6217  0.4172 -0.3870
   6923SM   H8F 9025   5.035   4.337   7.427  1.3885  1.2094  1.6659
   6923SM   H8G 9026   4.979   4.503   7.387 -0.9689 -0.1060 -2.9404
   6923SM   C9F 9027   4.840   4.346   7.329  0.0744 -0.3573  0.0040
   6923SM   H9F 9028   4.757   4.420   7.328  1.5090  1.3569  0.9837
   6923SM   H9G 9029   4.803   4.243   7.347  0.2127 -0.4565 -0.2606
   6923SM  C10F 9030   4.899   4.334   7.175 -0.2189 -0.5041 -1.0336
   6923SM  H10F 9031   4.811   4.299   7.116 -0.6732  0.5375 -0.9912
   6923SM  H10G 9032   4.985   4.264   7.183 -1.1698 -1.6778 -0.8079
   6923SM  C11F 9033   4.954   4.463   7.121  0.3516  0.0599  0.1036
   6923SM  H11F 9034   5.042   4.497   7.180  1.0637 -1.6407  0.0842
   6923SM  H11G 9035   4.879   4.545   7.126  0.9239  0.9670 -3.5463
   6923SM  C12F 9036   5.000   4.450   6.977 -0.0238  0.1027  0.6354
   6923SM  H12F 9037   5.058   4.356   6.961 -0.5623 -0.1996  0.4183
   6923SM  H12G 9038   5.064   4.533   6.940  0.6779 -0.9270 -0.5413
   6923SM  C13F 9039   4.882   4.438   6.879  0.1293  0.4231  0.5470
   6923SM  H13F 9040   4.843   4.540   6.856 -0.0960  0.1768 -0.1908
   6923SM  H13G 9041   4.801   4.376   6.922 -1.5917  1.0692 -1.5753
   6923SM  C14F 9042   4.920   4.365   6.744  0.0261  0.0973 -0.9857
   6923SM  H14F 9043   4.960   4.265   6.768  0.9217  1.0509  1.9069
   6923SM  H14G 9044   5.009   4.413   6.698  0.9656 -1.9590 -1.4037
   6923SM  C15F 9045   4.800   4.358   6.647  0.1031  0.4715 -0.3974
   6923SM  H15F 9046   4.764   4.462   6.631  0.7316  1.0958  1.9176
   6923SM  H15G 9047   4.721   4.299   6.698  0.5931 -0.1695 -0.3755
   6923SM  C16F 9048   4.828   4.285   6.517  0.4377  0.0513 -0.6838
   6923SM  H16F 9049   4.851   4.176   6.522 -1.7188 -0.4397 -0.3823
   6923SM  H16G 9050   4.925   4.327   6.483  1.8217 -0.9456  1.7315
   6923SM  C17F 9051   4.724   4.294   6.409 -0.8005 -0.4738  0.5278
   6923SM  H17F 9052   4.727   4.400   6.377  0.4748 -0.2822  1.2482
   6923SM  H17G 9053   4.628   4.252   6.447 -0.8338 -1.5782 -0.6709
   6923SM  C18F 9054   4.737   4.200   6.290 -0.4267  0.9642 -0.3728
   6923SM  H18F 9055   4.649   4.224   6.225 -0.7105  0.8216 -0.0449
   6923SM  H18G 9056   4.728   4.096   6.329 -0.0120  1.2424  0.4856
   6923SM  C19F 9057   4.861   4.235   6.199  0.2457  0.0793 -0.6692
   6923SM  H19F 9058   4.868   4.159   6.119 -2.0679 -2.0917  1.0190
   6923SM  H19G 9059   4.952   4.230   6.263  1.1725  0.3078 -1.9408
   6923SM  C20F 9060   4.856   4.375   6.145  1.0117  0.1058  0.3126
   6923SM  H20F 9061   4.843   4.453   6.223 -4.3683 -0.0233 -0.1021
   6923SM  H20G 9062   4.764   4.378   6.083  0.1717  1.3820  1.5568
   6923SM  C21F 9063   4.973   4.401   6.056 -0.3389  0.0007 -0.5362
   6923SM  H21F 9064   4.952   4.494   5.998 -0.3002  1.2102  1.2918
   6923SM  H21G 9065   4.982   4.320   5.981  0.1893 -0.4841  0.0374
   6923SM  C22F 9066   5.108   4.416   6.135  0.0837  0.5369 -0.1194
   6923SM  H22F 9067   5.134   4.326   6.196  1.3367  0.1752 -1.1558
   6923SM  H22G 9068   5.087   4.494   6.212 -0.8972  1.7418 -1.5393
   6923SM  C23F 9069   5.227   4.440   6.046  0.1148  0.4443  0.2340
   6923SM  H23F 9070   5.218   4.540   5.997 -3.8368 -0.4451 -1.2148
   6923SM  H23G 9071   5.239   4.367   5.964  0.9838  1.4858 -0.5986
   6923SM  H23H 9072   5.323   4.444   6.101 -0.8983 -0.1545  2.1098
   7023SM     N 9073   4.863   3.450   9.231  0.0743  0.2651 -0.4902
   7023SM   C15 9074   4.824   3.318   9.289 -0.4116 -0.1752 -0.0078
   7023SM  H15A 9075   4.856   3.240   9.221 -1.2048  1.4858 -2.4263
   7023SM  H15B 9076   4.718   3.320   9.314 -0.4036  1.5387  0.0185
   7023SM  H15C 9077   4.871   3.310   9.386  0.5730 -0.5968 -0.5098
   7023SM   C14 9078   4.830   3.558   9.333 -0.0589 -0.1357  0.1425
   7023SM  H14A 9079   4.910   3.560   9.405  0.0460  0.8102  0.0138
   7023SM  H14B 9080   4.735   3.543   9.383 -0.1947 -2.2039 -0.6357
   7023SM  H14C 9081   4.822   3.655   9.287 -0.5674 -1.1195 -1.9942
   7023SM   C13 9082   5.010   3.458   9.216 -0.5936  0.3214 -0.5612
   7023SM  H13A 9083   5.050   3.388   9.144  0.8883 -1.1432  1.5572
   7023SM  H13B 9084   5.059   3.429   9.308 -0.9794  0.2191 -0.3873
   7023SM  H13C 9085   5.039   3.560   9.192 -0.5996  0.3652 -0.3854
   7023SM   C12 9086   4.793   3.459   9.099 -0.1226  0.0434  0.2911
   7023SM  H12A 9087   4.687   3.461   9.118 -0.7940  0.1740 -2.8830
   7023SM  H12B 9088   4.804   3.367   9.044  0.0003  0.2314 -0.0044
   7023SM   C11 9089   4.816   3.586   9.014 -0.0573 -0.2667  0.4269
   7023SM  H11A 9090   4.810   3.676   9.078  0.1415  0.6748 -0.8436
   7023SM  H11B 9091   4.736   3.593   8.937 -1.0359 -1.7628  1.2649
   7023SM     P 9092   4.977   3.512   8.828  0.0715  0.2866  0.1809
   7023SM   O13 9093   5.122   3.525   8.804  0.6551 -0.0076  0.5177
   7023SM   O14 9094   4.926   3.372   8.844  0.2877 -0.1251  0.7507
   7023SM   O11 9095   4.907   3.576   8.707  0.5199 -0.0146  0.0909
   7023SM   O12 9096   4.946   3.590   8.960 -1.1550 -0.0913 -0.1062
   7023SM   C1S 9097   4.937   3.714   8.679  0.6359 -0.2022 -0.1579
   7023SM   H1S 9098   5.040   3.735   8.644  0.9880  1.4161  1.6784
   7023SM   H1T 9099   4.918   3.778   8.768  2.1138 -2.1943  1.6605
   7023SM    NF 9100   4.892   3.908   8.526 -0.4806  0.3024 -0.5580
   7023SM   HNF 9101   4.849   3.984   8.573 -1.3244 -1.0071  0.8604
   7023SM   C2S 9102   4.842   3.778   8.568 -0.1082 -0.4925  0.0881
   7023SM   H2S 9103   4.847   3.708   8.481 -0.1564  0.3079 -0.5752
   7023SM   C3S 9104   4.696   3.772   8.619  0.3695  0.4954  0.3772
   7023SM   H3S 9105   4.681   3.851   8.696  0.9582  3.0644 -1.9411
   7023SM    O3 9106   4.648   3.645   8.679  0.1790  0.7251 -0.0491
   7023SM   HO3 9107   4.727   3.593   8.695 -0.7295 -1.0563 -1.0368
   7023SM   C4S 9108   4.609   3.814   8.504 -0.2928 -1.0636 -0.0959
   7023SM   H4S 9109   4.599   3.923   8.501 -0.0990 -0.9732  1.5731
   7023SM   C5S 9110   4.545   3.730   8.417  0.4152 -0.0436  0.1191
   7023SM   H5S 9111   4.556   3.621   8.429 -5.4431 -0.7697  2.5002
   7023SM   C6S 9112   4.467   3.765   8.291  0.5614  0.1986 -0.1472
   7023SM   H6S 9113   4.443   3.873   8.278 -1.2677 -0.3951 -2.3823
   7023SM   H6T 9114   4.363   3.728   8.296  0.7348 -0.4234 -0.9603
   7023SM   C7S 9115   4.536   3.693   8.171 -0.1558 -0.2723  0.1391
   7023SM   H7S 9116   4.594   3.603   8.199 -1.7261 -1.2557  0.3744
   7023SM   H7T 9117   4.615   3.763   8.135 -0.7247  0.6807  0.6986
   7023SM   C8S 9118   4.432   3.658   8.062 -0.4954  0.4604  0.5424
   7023SM   H8S 9119   4.352   3.735   8.054 -1.5517 -0.5152  1.3385
   7023SM   H8T 9120   4.388   3.565   8.103 -1.0846  0.1150 -0.7997
   7023SM   C9S 9121   4.499   3.614   7.924 -0.3819  0.2534 -0.1331
   7023SM   H9S 9122   4.570   3.528   7.935  0.6311  1.1903  0.9250
   7023SM   H9T 9123   4.548   3.704   7.882  1.2062 -1.2852 -1.7864
   7023SM  C10S 9124   4.388   3.570   7.816  0.0914 -0.5923  0.7085
   7023SM  H10S 9125   4.307   3.644   7.835 -0.5586 -1.1005 -0.0407
   7023SM  H10T 9126   4.338   3.473   7.835 -2.3807  0.5934  0.6554
   7023SM  C11S 9127   4.429   3.578   7.667 -0.2843 -0.6532  0.6868
   7023SM  H11S 9128   4.504   3.499   7.645 -0.5794 -0.6134 -0.4972
   7023SM  H11T 9129   4.486   3.673   7.665 -2.3581  0.6510  0.6382
   7023SM  C12S 9130   4.310   3.582   7.575 -0.2634 -0.7884  0.0352
   7023SM  H12S 9131   4.225   3.648   7.604 -1.3328 -0.9523 -2.4702
   7023SM  H12T 9132   4.264   3.481   7.576 -2.5040  0.1653 -0.1396
   7023SM  C13S 9133   4.350   3.598   7.429  0.6822 -0.5267 -0.4012
   7023SM  H13S 9134   4.441   3.537   7.410  1.6740  0.8228 -0.0914
   7023SM  H13T 9135   4.365   3.706   7.408 -2.4338  0.2185  0.6424
   7023SM  C14S 9136   4.243   3.558   7.328  0.1760  0.1199  0.2556
   7023SM  H14S 9137   4.152   3.617   7.352 -0.3605 -1.1814  1.5974
   7023SM  H14T 9138   4.215   3.450   7.336  0.0904  0.2512  2.2253
   7023SM  C15S 9139   4.294   3.593   7.187  0.6946  0.1683 -0.6602
   7023SM  H15S 9140   4.397   3.551   7.191  1.0236  1.0323  1.1062
   7023SM  H15T 9141   4.306   3.703   7.180  2.0766  0.1197  0.3914
   7023SM  C16S 9142   4.211   3.550   7.064  0.0621  0.1201 -0.8031
   7023SM  H16S 9143   4.129   3.624   7.052  0.5430  0.9814  0.9531
   7023SM  H16T 9144   4.172   3.447   7.080 -0.5740  0.4182 -0.3665
   7023SM  C17S 9145   4.283   3.548   6.933 -0.0289 -0.3418 -0.2582
   7023SM  H17S 9146   4.209   3.524   6.854 -1.5047 -1.3150  1.3543
   7023SM  H17T 9147   4.354   3.463   6.933  0.4017  0.0061 -0.8567
   7023SM  C18S 9148   4.363   3.679   6.899  0.1987 -0.1071  0.3479
   7023SM  H18S 9149   4.409   3.721   6.990 -1.3278  1.3060  0.5173
   7023SM  H18T 9150   4.307   3.766   6.859 -1.6941 -0.6716  1.6612
   7023SM  H18U 9151   4.446   3.646   6.833 -0.6153 -0.3873 -0.5613
   7023SM   C1F 9152   4.996   3.923   8.446 -0.3145  0.3469  0.8146
   7023SM    OF 9153   5.051   3.832   8.383  0.4476  0.1253 -0.6599
   7023SM   C2F 9154   5.051   4.064   8.448  0.0476  0.1243  0.6590
   7023SM   H2F 9155   5.124   4.074   8.532  2.1550  0.4058 -1.1320
   7023SM   H2G 9156   4.973   4.142   8.458 -0.5048  0.3390 -3.6257
   7023SM   C3F 9157   5.135   4.093   8.322  0.0709  0.6670 -0.3892
   7023SM   H3F 9158   5.216   4.017   8.316  0.0840  0.4370  1.9994
   7023SM   H3G 9159   5.181   4.193   8.332  1.1309  0.2332 -0.6968
   7023SM   C4F 9160   5.054   4.094   8.195 -0.2028 -0.2219  0.7089
   7023SM   H4F 9161   4.973   4.170   8.195  0.2662  0.2915  0.0412
   7023SM   H4G 9162   5.006   3.995   8.177  0.4684 -0.5493  0.6987
   7023SM   C5F 9163   5.139   4.110   8.074 -1.1101  0.1853  0.1255
   7023SM   H5F 9164   5.223   4.037   8.070 -1.8880 -0.6673 -0.9470
   7023SM   H5G 9165   5.194   4.207   8.071  0.6881 -0.7901  0.3956
   7023SM   C6F 9166   5.055   4.085   7.947 -0.2528 -0.1056 -0.2267
   7023SM   H6F 9167   4.978   4.165   7.942  1.4145  1.5476 -0.9242
   7023SM   H6G 9168   5.005   3.986   7.958 -1.7917  0.8577  2.2222
   7023SM   C7F 9169   5.138   4.083   7.818  0.1361  0.1598  0.3385
   7023SM   H7F 9170   5.219   4.006   7.819  2.6874  2.6548 -0.1356
   7023SM   H7G 9171   5.181   4.185   7.816 -1.2702  0.7640  0.1927
   7023SM   C8F 9172   5.055   4.066   7.686  0.6905 -0.0534 -0.7529
   7023SM   H8F 9173   4.990   4.151   7.658 -1.1178  0.0733  3.2474
   7023SM   H8G 9174   4.984   3.982   7.703  1.2165 -0.4453 -0.4497
   7023SM   C9F 9175   5.139   4.033   7.565  0.7940  0.2546 -0.9150
   7023SM   H9F 9176   5.197   3.939   7.572  1.9673  1.0588  0.7008
   7023SM   H9G 9177   5.204   4.119   7.539 -0.5697  1.6105 -0.0600
   7023SM  C10F 9178   5.044   4.027   7.444  0.4010 -0.6361  0.1106
   7023SM  H10F 9179   5.003   4.125   7.414  0.3176 -0.5378  0.5300
   7023SM  H10G 9180   4.960   3.966   7.487  1.3857 -0.8015  1.9110
   7023SM  C11F 9181   5.104   3.955   7.325 -0.3312  0.0431  0.6448
   7023SM  H11F 9182   5.138   3.850   7.341 -0.4893 -0.3670 -1.4808
   7023SM  H11G 9183   5.187   4.020   7.289 -0.2949 -0.9132 -1.0844
   7023SM  C12F 9184   5.015   3.942   7.191  0.0687  0.2719  0.3510
   7023SM  H12F 9185   5.019   4.044   7.148 -0.5883 -0.8930 -2.7599
   7023SM  H12G 9186   4.908   3.916   7.211  0.1625 -0.0352  0.4610
   7023SM  C13F 9187   5.077   3.831   7.101  0.5288  0.1141  0.0681
   7023SM  H13F 9188   5.064   3.732   7.149 -0.0273 -0.7765 -1.8510
   7023SM  H13G 9189   5.185   3.858   7.091  0.3901  0.5580 -0.2679
   7023SM  C14F 9190   5.013   3.836   6.960 -0.2298  0.1518  0.3190
   7023SM  H14F 9191   4.903   3.822   6.960 -0.1356 -0.7440 -1.0539
   7023SM  H14G 9192   5.056   3.753   6.900  0.1913  0.3211  0.3802
   7023SM  C15F 9193   5.053   3.965   6.877  0.1311  0.0709 -0.0238
   7023SM  H15F 9194   5.164   3.972   6.881  0.0721  0.7549  0.5666
   7023SM  H15G 9195   5.024   4.065   6.914  2.5109  1.0165 -0.4941
   7023SM  C16F 9196   5.000   3.945   6.731 -0.1144 -0.5150  0.2264
   7023SM  H16F 9197   4.909   4.008   6.725  1.1691  1.3277 -0.9031
   7023SM  H16G 9198   4.983   3.837   6.712  1.5412 -1.0325  1.4126
   7023SM  C17F 9199   5.096   4.005   6.621 -0.9889  0.4603  0.0501
   7023SM  H17F 9200   5.198   3.973   6.654 -0.5929  0.7807 -0.8337
   7023SM  H17G 9201   5.097   4.116   6.617  1.5951  0.5553  1.1136
   7023SM  C18F 9202   5.044   3.937   6.491 -0.3829 -0.1741  0.8571
   7023SM  H18F 9203   4.939   3.963   6.466 -0.2678 -0.8762 -0.4859
   7023SM  H18G 9204   5.047   3.827   6.511 -2.0392 -0.0911  1.7503
   7023SM  C19F 9205   5.147   3.950   6.379 -0.4942 -0.0036 -0.1466
   7023SM  H19F 9206   5.233   3.885   6.405 -0.6024 -0.0971 -0.0205
   7023SM  H19G 9207   5.168   4.059   6.374  1.6632 -0.4242 -1.7455
   7023SM  C20F 9208   5.101   3.896   6.241  0.4138  0.2126 -0.4699
   7023SM  H20F 9209   5.014   3.959   6.212 -0.7002 -1.3601 -0.6371
   7023SM  H20G 9210   5.061   3.793   6.235  0.8730  0.0778 -1.3547
   7023SM  C21F 9211   5.222   3.918   6.143  0.0453  0.0145 -0.0654
   7023SM  H21F 9212   5.317   3.865   6.169  1.0117  2.5526  2.0026
   7023SM  H21G 9213   5.260   4.022   6.150 -1.9841  0.8924 -1.4607
   7023SM  C22F 9214   5.186   3.886   6.003  0.1034  0.9280 -0.3496
   7023SM  H22F 9215   5.111   3.959   5.965  0.0954  0.1836 -1.8515
   7023SM  H22G 9216   5.124   3.795   5.995 -0.2559  1.0164  1.1427
   7023SM  C23F 9217   5.311   3.892   5.909  0.2256 -0.0736  0.0413
   7023SM  H23F 9218   5.350   3.996   5.903  0.8819 -0.3898 -1.5146
   7023SM  H23G 9219   5.282   3.865   5.806 -0.4790 -0.8225  0.4310
   7023SM  H23H 9220   5.398   3.833   5.944  0.3360 -0.0350 -0.1663
   7123SM     N 9221   4.681   2.525   8.708 -0.0515 -0.1021  0.2517
   7123SM   C15 9222   4.719   2.643   8.615  0.2803  0.4529 -0.5697
   7123SM  H15A 9223   4.678   2.731   8.663  1.6955 -0.6182  2.9571
   7123SM  H15B 9224   4.663   2.630   8.524 -1.8342 -1.9780  0.9408
   7123SM  H15C 9225   4.825   2.657   8.603  0.5869  0.6024  1.7877
   7123SM   C14 9226   4.744   2.398   8.654 -0.0617  0.2054 -0.9526
   7123SM  H14A 9227   4.763   2.332   8.737 -0.1495  2.7158  1.2036
   7123SM  H14B 9228   4.845   2.412   8.619  1.5149  1.9030  3.4895
   7123SM  H14C 9229   4.681   2.356   8.578 -0.0135  0.9425 -1.4139
   7123SM   C13 9230   4.727   2.569   8.842 -1.0377  0.0225  0.7249
   7123SM  H13A 9231   4.835   2.572   8.848 -0.8445 -1.0817 -1.4518
   7123SM  H13B 9232   4.697   2.499   8.919  3.8254 -2.4360  0.7226
   7123SM  H13C 9233   4.696   2.668   8.872  2.4193  0.5692  3.0663
   7123SM   C12 9234   4.533   2.509   8.699 -0.1288 -0.3013 -0.5485
   7123SM  H12A 9235   4.490   2.603   8.728 -1.6927 -0.8560 -0.9734
   7123SM  H12B 9236   4.500   2.421   8.753 -3.5431  0.0698 -1.7692
   7123SM   C11 9237   4.479   2.480   8.555  0.4010 -0.0235 -0.1642
   7123SM  H11A 9238   4.507   2.564   8.488  0.8131  1.7182  2.0867
   7123SM  H11B 9239   4.368   2.490   8.563  0.1295  0.6235 -3.4087
   7123SM     P 9240   4.436   2.219   8.531 -0.1122 -0.1677 -0.1275
   7123SM   O13 9241   4.515   2.103   8.485  0.3277  0.2092 -0.7206
   7123SM   O14 9242   4.402   2.227   8.675  0.2452 -0.2791  0.0679
   7123SM   O11 9243   4.301   2.241   8.456  0.1367  0.0789 -0.1535
   7123SM   O12 9244   4.514   2.355   8.498  0.6913 -0.3021  0.1557
   7123SM   C1S 9245   4.302   2.307   8.330 -0.0500 -0.1900  0.1193
   7123SM   H1S 9246   4.365   2.261   8.251  0.1529  2.5602 -1.4465
   7123SM   H1T 9247   4.336   2.412   8.344 -0.0077 -0.4836  2.6918
   7123SM    NF 9248   4.166   2.334   8.125  1.0768 -0.0686 -0.7131
   7123SM   HNF 9249   4.133   2.425   8.099 -0.5024  0.0481  1.4537
   7123SM   C2S 9250   4.160   2.315   8.271  0.2672  0.1763 -0.6964
   7123SM   H2S 9251   4.104   2.221   8.287 -1.8981  1.6704  1.0424
   7123SM   C3S 9252   4.089   2.423   8.351  0.3545 -0.3777 -0.0954
   7123SM   H3S 9253   4.150   2.516   8.346  0.0796 -0.1173  1.0025
   7123SM    O3 9254   4.090   2.402   8.495  0.4098 -0.1198  0.1038
   7123SM   HO3 9255   4.141   2.321   8.497  1.5718  0.5562 -0.7148
   7123SM   C4S 9256   3.953   2.455   8.303 -0.2045  0.2703 -0.6006
   7123SM   H4S 9257   3.952   2.558   8.267 -0.2459  0.4216 -0.1739
   7123SM   C5S 9258   3.842   2.376   8.310 -0.1931  0.0252 -0.3328
   7123SM   H5S 9259   3.840   2.276   8.355 -1.9854  1.7107  3.7667
   7123SM   C6S 9260   3.707   2.410   8.263 -0.4306 -0.6259  0.5749
   7123SM   H6S 9261   3.662   2.474   8.342 -0.1755 -0.7988  0.8677
   7123SM   H6T 9262   3.644   2.319   8.264 -1.7639  0.2567 -0.4564
   7123SM   C7S 9263   3.696   2.488   8.131 -0.0332  0.1547  0.1183
   7123SM   H7S 9264   3.734   2.590   8.151  2.6220 -0.6073 -0.5681
   7123SM   H7T 9265   3.585   2.494   8.125 -0.1805 -1.0275  1.1575
   7123SM   C8S 9266   3.767   2.441   8.004  0.0885 -0.7273  0.0544
   7123SM   H8S 9267   3.758   2.330   8.004  0.6323 -0.8346  2.5475
   7123SM   H8T 9268   3.873   2.473   8.004 -0.1260  0.0006  0.0193
   7123SM   C9S 9269   3.691   2.498   7.884  0.4687  0.1294  1.0879
   7123SM   H9S 9270   3.692   2.609   7.888 -3.3742  0.3789 -0.6942
   7123SM   H9T 9271   3.581   2.484   7.889  0.6748 -2.2961  0.1995
   7123SM  C10S 9272   3.749   2.447   7.754 -0.4622 -1.0111  0.2123
   7123SM  H10S 9273   3.771   2.339   7.766 -1.6668 -1.3610 -0.5205
   7123SM  H10T 9274   3.848   2.497   7.742 -0.7003 -0.0076  2.0420
   7123SM  C11S 9275   3.668   2.477   7.628  0.0957 -0.0138 -0.3814
   7123SM  H11S 9276   3.653   2.587   7.624  0.0552  0.2802  3.8766
   7123SM  H11T 9277   3.571   2.426   7.642  0.1687 -0.6977 -2.0456
   7123SM  C12S 9278   3.736   2.434   7.498  0.3725  0.0622  0.3935
   7123SM  H12S 9279   3.782   2.333   7.500  0.6056  0.0976 -1.4576
   7123SM  H12T 9280   3.822   2.501   7.478 -1.7982  2.4187 -1.7441
   7123SM  C13S 9281   3.635   2.441   7.386  0.0909  0.3660  0.1410
   7123SM  H13S 9282   3.608   2.549   7.384  2.2658  0.9389 -1.0746
   7123SM  H13T 9283   3.543   2.383   7.410  1.1658 -0.6919  1.8950
   7123SM  C14S 9284   3.695   2.409   7.250 -0.3152 -0.3811 -0.2110
   7123SM  H14S 9285   3.728   2.303   7.249  0.3739 -0.1706 -0.1864
   7123SM  H14T 9286   3.780   2.479   7.233 -1.1790  0.7167 -0.1653
   7123SM  C15S 9287   3.600   2.418   7.122  0.3595 -0.4754  1.1673
   7123SM  H15S 9288   3.577   2.525   7.103 -0.2105 -0.7790  0.0870
   7123SM  H15T 9289   3.507   2.362   7.145 -1.3710  0.6119 -2.4582
   7123SM  C16S 9290   3.669   2.358   7.004  0.5454  0.2629 -0.3844
   7123SM  H16S 9291   3.678   2.249   7.025  0.2205  0.7622  2.8954
   7123SM  H16T 9292   3.765   2.413   6.996  1.7299 -1.2328  2.2702
   7123SM  C17S 9293   3.579   2.364   6.879  0.3895 -0.0975  0.0906
   7123SM  H17S 9294   3.527   2.462   6.870  0.9081  0.0977 -0.9763
   7123SM  H17T 9295   3.499   2.287   6.888 -0.3169  0.6444  0.2932
   7123SM  C18S 9296   3.662   2.346   6.752  0.3968 -0.5437 -0.4521
   7123SM  H18S 9297   3.696   2.241   6.736 -0.5421 -1.0199  0.5875
   7123SM  H18T 9298   3.756   2.404   6.770 -0.9969  1.3004  1.3659
   7123SM  H18U 9299   3.621   2.381   6.655  0.3640 -1.3397 -0.7328
   7123SM   C1F 9300   4.183   2.232   8.043  0.4719  0.1422 -0.8080
   7123SM    OF 9301   4.205   2.114   8.083 -0.9357  0.2728 -0.0371
   7123SM   C2F 9302   4.165   2.265   7.899 -0.4792  0.1353 -0.0580
   7123SM   H2F 9303   4.268   2.279   7.861  0.5217 -1.5127  1.8989
   7123SM   H2G 9304   4.109   2.361   7.896 -0.7472 -0.0477 -1.2539
   7123SM   C3F 9305   4.092   2.147   7.832  0.0891 -0.2907  0.3695
   7123SM   H3F 9306   3.993   2.131   7.878  0.0382 -0.6831  0.1268
   7123SM   H3G 9307   4.152   2.054   7.837 -3.6794 -2.9658 -0.1675
   7123SM   C4F 9308   4.075   2.188   7.681 -0.1351  0.2450  0.3772
   7123SM   H4F 9309   4.168   2.244   7.656  0.8153 -0.6604  1.7259
   7123SM   H4G 9310   3.990   2.257   7.664 -0.6771 -1.0918 -3.4732
   7123SM   C5F 9311   4.081   2.075   7.575 -0.5091  0.4080 -0.1649
   7123SM   H5F 9312   4.010   1.995   7.605  0.0616  0.3651  1.1468
   7123SM   H5G 9313   4.184   2.035   7.566 -1.1801 -1.2490 -0.8692
   7123SM   C6F 9314   4.040   2.122   7.439  0.7629  0.6016 -0.0538
   7123SM   H6F 9315   4.051   2.232   7.448  0.5445  0.5588  0.9038
   7123SM   H6G 9316   3.933   2.102   7.420  0.7760 -2.5261  2.2328
   7123SM   C7F 9317   4.134   2.085   7.325 -0.0134  0.5804 -0.6011
   7123SM   H7F 9318   4.148   1.975   7.319 -0.2887  0.5703 -1.1013
   7123SM   H7G 9319   4.235   2.128   7.341  0.9161 -0.7647 -2.5304
   7123SM   C8F 9320   4.064   2.125   7.196  0.3587  0.3563  0.3548
   7123SM   H8F 9321   4.070   2.236   7.201 -1.7538  0.6139 -1.3660
   7123SM   H8G 9322   3.955   2.108   7.202  0.4220 -0.1588  0.1020
   7123SM   C9F 9323   4.125   2.077   7.060  0.4351 -0.0755  0.6853
   7123SM   H9F 9324   4.159   1.971   7.058  0.1129 -0.2601 -3.6803
   7123SM   H9G 9325   4.207   2.148   7.037 -0.6552  0.7045 -1.0318
   7123SM  C10F 9326   4.023   2.086   6.953  0.1879 -0.3658  1.0146
   7123SM  H10F 9327   4.004   2.195   6.941  1.5347 -0.0423  1.6732
   7123SM  H10G 9328   3.932   2.029   6.982 -0.3538  0.6605  1.3880
   7123SM  C11F 9329   4.076   2.038   6.816 -0.4353  0.4579  0.9321
   7123SM  H11F 9330   4.113   1.934   6.830 -2.2573 -0.4149 -0.3128
   7123SM  H11G 9331   4.158   2.102   6.775 -1.6570  2.1799  1.0613
   7123SM  C12F 9332   3.970   2.023   6.708  0.0178  0.9482 -0.0821
   7123SM  H12F 9333   3.906   2.113   6.718 -0.7640  0.4277 -0.3369
   7123SM  H12G 9334   3.898   1.940   6.718  1.3354 -0.3504 -0.8997
   7123SM  C13F 9335   4.029   2.023   6.569 -0.1885  0.5914  0.9217
   7123SM  H13F 9336   4.093   2.113   6.556 -1.8974  1.4084 -3.9895
   7123SM  H13G 9337   3.949   2.029   6.492 -1.0429 -1.3687  1.5888
   7123SM  C14F 9338   4.112   1.902   6.539  0.2839 -0.3919  0.3918
   7123SM  H14F 9339   4.051   1.812   6.516 -0.5750  0.3901 -0.5073
   7123SM  H14G 9340   4.173   1.882   6.629  0.5564  1.8889  0.7921
   7123SM  C15F 9341   4.202   1.930   6.424  0.6719 -0.0748 -0.0113
   7123SM  H15F 9342   4.268   1.845   6.398 -1.2242 -1.8344  0.7041
   7123SM  H15G 9343   4.257   2.023   6.449 -0.9193  0.9064 -0.0007
   7123SM  C16F 9344   4.131   1.945   6.290 -0.5595 -0.5683 -0.8563
   7123SM  H16F 9345   4.050   2.021   6.294  0.6288  0.7486 -1.1727
   7123SM  H16G 9346   4.083   1.847   6.269  1.1979 -1.2626 -1.8459
   7123SM  C17F 9347   4.221   1.976   6.172  0.5793 -0.6257 -0.5040
   7123SM  H17F 9348   4.297   1.896   6.180 -1.9165 -2.9609  3.5367
   7123SM  H17G 9349   4.266   2.077   6.186 -1.8014  0.7382 -1.8990
   7123SM  C18F 9350   4.139   1.982   6.044 -0.1377 -0.1706  0.4517
   7123SM  H18F 9351   4.042   2.027   6.073 -0.7366 -0.3242 -1.1998
   7123SM  H18G 9352   4.105   1.881   6.014  0.7788 -0.8169  1.4942
   7123SM  C19F 9353   4.192   2.055   5.924  0.5062  0.1606 -0.3373
   7123SM  H19F 9354   4.274   2.000   5.872  0.2217 -1.8178  1.2003
   7123SM  H19G 9355   4.227   2.158   5.949 -1.4328  0.9621 -0.7544
   7123SM  C20F 9356   4.082   2.071   5.819 -0.2781 -0.2512  0.6296
   7123SM  H20F 9357   3.983   2.040   5.858  0.7184 -0.7535  2.9102
   7123SM  H20G 9358   4.102   1.992   5.742 -1.0567 -0.6347  0.8127
   7123SM  C21F 9359   4.064   2.215   5.769  0.3529 -0.6530 -0.2817
   7123SM  H21F 9360   4.150   2.251   5.707  0.3792 -0.0007  0.1210
   7123SM  H21G 9361   4.067   2.284   5.856  0.3297 -0.9129 -0.0771
   7123SM  C22F 9362   3.934   2.245   5.695  0.1282  0.2560  0.2826
   7123SM  H22F 9363   3.846   2.237   5.763 -1.3447 -0.8506 -1.6421
   7123SM  H22G 9364   3.923   2.169   5.615  1.2182  0.0234  0.3379
   7123SM  C23F 9365   3.925   2.382   5.644 -0.1123  0.2903 -0.3018
   7123SM  H23F 9366   3.967   2.457   5.715 -1.8786 -1.6620  2.9879
   7123SM  H23G 9367   3.822   2.406   5.610  0.0810 -1.6802 -2.5359
   7123SM  H23H 9368   3.983   2.394   5.549 -2.7574 -2.3968 -2.4604
   7223SM     N 9369   5.368   5.245   9.109  0.4059  0.9103  0.1515
   7223SM   C15 9370   5.306   5.297   9.227 -0.4421  0.1042  0.2554
   7223SM  H15A 9371   5.214   5.349   9.204  1.0363  1.6036 -2.8164
   7223SM  H15B 9372   5.378   5.370   9.260  1.2256  0.1356 -3.0390
   7223SM  H15C 9373   5.293   5.221   9.302  1.2513  0.2876  0.7723
   7223SM   C14 9374   5.513   5.217   9.134  0.0752 -0.2078  0.1083
   7223SM  H14A 9375   5.530   5.156   9.221 -0.4790 -0.6898 -0.1057
   7223SM  H14B 9376   5.567   5.310   9.128  0.4031 -0.4273 -0.4135
   7223SM  H14C 9377   5.559   5.152   9.061  0.4586  0.5179 -0.3079
   7223SM   C13 9378   5.307   5.116   9.080  0.0662  0.1762  0.0922
   7223SM  H13A 9379   5.203   5.131   9.057 -0.2639 -2.5560 -0.6278
   7223SM  H13B 9380   5.322   5.051   9.166 -0.9090 -2.2545 -1.4617
   7223SM  H13C 9381   5.355   5.075   8.992 -0.8716 -0.6964 -0.0325
   7223SM   C12 9382   5.361   5.332   8.990 -0.1029 -0.4318 -0.1909
   7223SM  H12A 9383   5.261   5.325   8.950 -0.2493 -0.2355  0.1341
   7223SM  H12B 9384   5.421   5.278   8.919 -0.2208 -0.2780 -0.4060
   7223SM   C11 9385   5.402   5.480   8.998  0.2334 -0.6338 -0.9160
   7223SM  H11A 9386   5.337   5.529   9.073  0.3617 -2.0262  0.1355
   7223SM  H11B 9387   5.384   5.534   8.902  0.1905  0.0694 -0.5231
   7223SM     P 9388   5.660   5.507   8.941 -0.1837 -0.0283 -0.1055
   7223SM   O13 9389   5.760   5.600   8.992  0.0936 -0.0456 -0.2066
   7223SM   O14 9390   5.700   5.372   8.901 -0.0720  0.3222 -0.0842
   7223SM   O11 9391   5.583   5.563   8.816 -0.6263 -0.6632  0.0119
   7223SM   O12 9392   5.538   5.495   9.046 -0.7935  0.1997  0.2412
   7223SM   C1S 9393   5.601   5.707   8.781 -0.1575  0.7403 -0.6397
   7223SM   H1S 9394   5.688   5.761   8.825 -0.3674  0.6152 -0.0537
   7223SM   H1T 9395   5.508   5.758   8.813 -0.3577 -0.7405  1.4261
   7223SM    NF 9396   5.671   5.851   8.581  1.0605  0.2010 -0.1540
   7223SM   HNF 9397   5.612   5.930   8.567 -0.0806 -0.5017  0.5636
   7223SM   C2S 9398   5.599   5.731   8.628 -0.9917 -0.3584  0.4653
   7223SM   H2S 9399   5.658   5.652   8.577 -0.3420  0.2874  0.1990
   7223SM   C3S 9400   5.448   5.720   8.580  0.1217  0.8277  0.1918
   7223SM   H3S 9401   5.387   5.792   8.638 -1.0698 -2.4609  3.4040
   7223SM    O3 9402   5.404   5.590   8.617  0.0560  0.6129  0.0015
   7223SM   HO3 9403   5.472   5.562   8.679 -2.2190 -1.0820  1.9046
   7223SM   C4S 9404   5.422   5.738   8.434  0.2025 -0.4648 -0.2995
   7223SM   H4S 9405   5.456   5.651   8.375  3.3601  0.3626  0.1197
   7223SM   C5S 9406   5.374   5.858   8.394 -0.2400 -0.0436 -0.2785
   7223SM   H5S 9407   5.337   5.935   8.462 -1.6874 -1.9964  1.2839
   7223SM   C6S 9408   5.335   5.897   8.255  0.2332 -0.6134 -0.3974
   7223SM   H6S 9409   5.395   5.989   8.236  0.4440 -0.5460  0.5398
   7223SM   H6T 9410   5.231   5.928   8.235  0.8973  1.5255 -0.8457
   7223SM   C7S 9411   5.381   5.798   8.153  0.7386 -0.2720  0.1640
   7223SM   H7S 9412   5.331   5.699   8.161 -0.3608  0.0199 -2.2148
   7223SM   H7T 9413   5.491   5.783   8.157  0.9546  1.4110  2.4228
   7223SM   C8S 9414   5.353   5.843   8.007 -0.4465  0.0791 -0.8304
   7223SM   H8S 9415   5.407   5.938   7.987  0.3677  0.1864  1.5647
   7223SM   H8T 9416   5.242   5.846   8.007 -0.4532  1.8186  0.6397
   7223SM   C9S 9417   5.411   5.737   7.913  0.2927  0.3533  0.3842
   7223SM   H9S 9418   5.371   5.634   7.927  0.2490  0.3812  0.4680
   7223SM   H9T 9419   5.520   5.731   7.935 -0.1447  0.3236  2.9089
   7223SM  C10S 9420   5.395   5.758   7.765  0.1730 -0.1974  0.1117
   7223SM  H10S 9421   5.402   5.658   7.719  1.5659  0.0595 -0.2800
   7223SM  H10T 9422   5.468   5.832   7.725 -0.9616  2.0580  1.9518
   7223SM  C11S 9423   5.264   5.816   7.718  0.2309  0.0715  0.1732
   7223SM  H11S 9424   5.240   5.919   7.749 -0.2693  0.6435 -1.9589
   7223SM  H11T 9425   5.191   5.752   7.773  1.2103 -1.4124 -0.1762
   7223SM  C12S 9426   5.242   5.797   7.566 -0.3996  0.1553 -0.4234
   7223SM  H12S 9427   5.135   5.798   7.535 -0.6897 -3.1453  0.0705
   7223SM  H12T 9428   5.280   5.695   7.544  0.1235  0.2328  0.0894
   7223SM  C13S 9429   5.310   5.893   7.463 -0.4843 -0.1220 -0.0334
   7223SM  H13S 9430   5.412   5.917   7.500  0.0048 -1.4896 -0.4276
   7223SM  H13T 9431   5.251   5.987   7.453 -1.4419 -0.8370 -1.5086
   7223SM  C14S 9432   5.341   5.835   7.327 -0.1428 -0.3216  0.0143
   7223SM  H14S 9433   5.421   5.758   7.328 -0.3462 -0.5332  0.4324
   7223SM  H14T 9434   5.377   5.917   7.261  0.2607  0.2973  0.9877
   7223SM  C15S 9435   5.220   5.780   7.257 -0.6854  0.2357  0.9469
   7223SM  H15S 9436   5.133   5.845   7.278 -1.5150 -0.1003 -1.2132
   7223SM  H15T 9437   5.191   5.687   7.312  2.4756 -1.2065  0.4126
   7223SM  C16S 9438   5.244   5.759   7.111  0.1044  0.1837 -0.0213
   7223SM  H16S 9439   5.327   5.687   7.095  0.4148  0.8528 -1.7369
   7223SM  H16T 9440   5.282   5.843   7.048  0.0909 -0.8482 -1.4476
   7223SM  C17S 9441   5.123   5.707   7.030  0.6040  0.2790  0.4998
   7223SM  H17S 9442   5.038   5.778   7.037 -0.5628 -1.0348  0.1040
   7223SM  H17T 9443   5.083   5.612   7.071  0.6128  0.1024  0.1039
   7223SM  C18S 9444   5.162   5.692   6.886  0.5509 -0.6986  0.3578
   7223SM  H18S 9445   5.076   5.651   6.829  1.0776 -1.7577  0.3188
   7223SM  H18T 9446   5.244   5.619   6.871  0.2094 -1.1166  0.5070
   7223SM  H18U 9447   5.185   5.792   6.843 -0.3712  0.2619  2.0119
   7223SM   C1F 9448   5.802   5.856   8.582 -0.3541  1.3542 -0.1497
   7223SM    OF 9449   5.872   5.761   8.627  0.3648  0.2332  0.4469
   7223SM   C2F 9450   5.861   5.985   8.532  0.0052  0.9639 -0.1638
   7223SM   H2F 9451   5.930   6.020   8.611  0.6905  1.9795 -1.1768
   7223SM   H2G 9452   5.777   6.058   8.526 -0.9900  0.0554  1.9439
   7223SM   C3F 9453   5.930   5.966   8.395  0.1664  0.0856  1.3560
   7223SM   H3F 9454   6.018   5.899   8.402  2.0044  2.1417 -0.3292
   7223SM   H3G 9455   5.974   6.066   8.373 -0.2416 -0.2014 -0.9759
   7223SM   C4F 9456   5.833   5.923   8.275 -0.3320 -0.5013 -0.0391
   7223SM   H4F 9457   5.732   5.966   8.291 -0.0693  0.6865 -1.3503
   7223SM   H4G 9458   5.834   5.812   8.277 -2.7671 -0.6043 -1.1166
   7223SM   C5F 9459   5.885   5.969   8.136 -0.6666  0.2087 -0.1390
   7223SM   H5F 9460   5.990   5.940   8.118 -0.1035  2.0487  0.0287
   7223SM   H5G 9461   5.883   6.080   8.140 -0.5869  0.2266 -0.6332
   7223SM   C6F 9462   5.799   5.908   8.030  0.7330 -0.2127  0.4621
   7223SM   H6F 9463   5.692   5.939   8.033  0.7702 -0.0624  0.2929
   7223SM   H6G 9464   5.790   5.800   8.050 -0.4659 -0.2977 -0.3439
   7223SM   C7F 9465   5.855   5.917   7.890  0.4413  0.2765 -0.4036
   7223SM   H7F 9466   5.961   5.884   7.880  0.1143 -0.3066 -2.5258
   7223SM   H7G 9467   5.857   6.024   7.859  2.3789  0.7476  1.1274
   7223SM   C8F 9468   5.765   5.836   7.795  0.6714  0.4253  0.6545
   7223SM   H8F 9469   5.664   5.883   7.793  1.1416  1.4998 -1.6109
   7223SM   H8G 9470   5.747   5.735   7.840 -0.9803 -0.2235 -1.2952
   7223SM   C9F 9471   5.825   5.812   7.654  0.7691 -0.0245 -0.2444
   7223SM   H9F 9472   5.882   5.718   7.667 -0.0773 -0.2145  2.7028
   7223SM   H9G 9473   5.889   5.896   7.619 -1.1109  0.6964 -2.2520
   7223SM  C10F 9474   5.723   5.792   7.538 -0.0589  0.4563 -0.2977
   7223SM  H10F 9475   5.647   5.874   7.543  0.4142  0.8600  0.3964
   7223SM  H10G 9476   5.672   5.696   7.559  0.0033  0.0797 -1.7633
   7223SM  C11F 9477   5.790   5.794   7.402 -0.5221 -0.0734  0.6242
   7223SM  H11F 9478   5.853   5.704   7.390 -0.2810  0.3376 -1.4674
   7223SM  H11G 9479   5.862   5.879   7.398  0.5642 -1.0256 -0.8451
   7223SM  C12F 9480   5.701   5.796   7.281 -0.2275 -0.5079  0.2900
   7223SM  H12F 9481   5.619   5.870   7.288  0.3371  0.1632 -0.0491
   7223SM  H12G 9482   5.649   5.698   7.274 -1.3164  0.1601 -1.8579
   7223SM  C13F 9483   5.767   5.828   7.141  0.9411  0.9056  0.4218
   7223SM  H13F 9484   5.852   5.760   7.115  0.3966  1.0344 -1.9160
   7223SM  H13G 9485   5.806   5.932   7.145  0.7662  1.1612 -2.3440
   7223SM  C14F 9486   5.661   5.826   7.026  0.4938 -0.1793  0.3931
   7223SM  H14F 9487   5.569   5.881   7.058 -0.6200 -1.6835 -0.0811
   7223SM  H14G 9488   5.629   5.724   6.996 -1.4385  0.6720 -0.6239
   7223SM  C15F 9489   5.712   5.887   6.900  0.2522  0.1970  0.2196
   7223SM  H15F 9490   5.809   5.849   6.860  0.5666  0.5578  0.6405
   7223SM  H15G 9491   5.721   5.996   6.919 -2.9251  0.4577  0.8947
   7223SM  C16F 9492   5.598   5.888   6.781 -0.5166  0.4824  0.4243
   7223SM  H16F 9493   5.552   5.787   6.779  2.2358 -0.9114  1.7221
   7223SM  H16G 9494   5.644   5.909   6.682  0.4065 -1.8316  0.2959
   7223SM  C17F 9495   5.486   5.985   6.811  0.2461  0.2267 -0.2204
   7223SM  H17F 9496   5.516   6.084   6.850 -2.7051  1.4971 -0.8894
   7223SM  H17G 9497   5.423   5.943   6.892 -0.4595  0.6348 -0.5446
   7223SM  C18F 9498   5.399   6.013   6.686 -0.1895  0.4911  0.1758
   7223SM  H18F 9499   5.456   6.071   6.611 -1.6279  0.4727 -0.9778
   7223SM  H18G 9500   5.313   6.071   6.726 -0.5583 -0.6908  1.1671
   7223SM  C19F 9501   5.347   5.896   6.609 -0.6564 -0.3725  0.0514
   7223SM  H19F 9502   5.305   5.821   6.680 -1.3607  0.1917  0.2419
   7223SM  H19G 9503   5.434   5.839   6.571  0.6897  0.5118  1.7004
   7223SM  C20F 9504   5.247   5.927   6.491  0.2604  0.9846 -0.0180
   7223SM  H20F 9505   5.303   5.898   6.400  1.3118 -1.4583  1.3310
   7223SM  H20G 9506   5.237   6.038   6.501  2.0292  1.1156  0.6823
   7223SM  C21F 9507   5.120   5.846   6.514  0.2999  0.9321 -0.2105
   7223SM  H21F 9508   5.040   5.885   6.448 -0.7085 -0.8361 -0.0964
   7223SM  H21G 9509   5.096   5.861   6.622 -0.6688  1.2817 -0.4644
   7223SM  C22F 9510   5.129   5.696   6.485  0.2379 -0.3833 -0.2629
   7223SM  H22F 9511   5.213   5.648   6.538 -2.2904 -4.6162  0.4064
   7223SM  H22G 9512   5.150   5.684   6.376  1.8982  0.8019 -0.1013
   7223SM  C23F 9513   4.995   5.629   6.520  0.5431 -0.8103  0.2534
   7223SM  H23F 9514   5.008   5.520   6.503  3.5932 -0.2846 -1.6593
   7223SM  H23G 9515   4.922   5.680   6.452  3.0245  1.7908 -0.6568
   7223SM  H23H 9516   4.968   5.638   6.627 -2.0398 -1.7454 -0.2433
   7323SM     N 9517   4.748   3.257   8.535 -0.0381  0.2013 -0.2336
   7323SM   C15 9518   4.656   3.145   8.505 -0.5641  0.0570 -0.7639
   7323SM  H15A 9519   4.630   3.088   8.593  1.0909  0.3057 -0.0769
   7323SM  H15B 9520   4.700   3.082   8.430 -1.1186 -0.6333 -0.5182
   7323SM  H15C 9521   4.562   3.195   8.486 -0.1601  0.3105 -2.1635
   7323SM   C14 9522   4.754   3.338   8.407  0.3752 -0.1174  0.8290
   7323SM  H14A 9523   4.814   3.282   8.337  1.8279  0.3349  1.6479
   7323SM  H14B 9524   4.817   3.424   8.424  1.0667 -0.3350 -0.4667
   7323SM  H14C 9525   4.659   3.370   8.368  1.0677  1.4133  0.3184
   7323SM   C13 9526   4.702   3.336   8.644  0.2122 -0.0319 -0.1122
   7323SM  H13A 9527   4.612   3.385   8.611  0.1074  0.5540  0.9856
   7323SM  H13B 9528   4.770   3.408   8.686 -1.4673  1.6391 -0.1368
   7323SM  H13C 9529   4.681   3.283   8.737  0.0695  3.2102  1.8412
   7323SM   C12 9530   4.888   3.204   8.557  0.2081 -0.3996 -0.3301
   7323SM  H12A 9531   4.875   3.131   8.635  1.4404 -1.7258 -1.3007
   7323SM  H12B 9532   4.944   3.284   8.603 -0.1283  0.0779 -0.7408
   7323SM   C11 9533   4.966   3.146   8.443 -0.8608  0.3689  0.5235
   7323SM  H11A 9534   5.059   3.101   8.484 -0.2432  0.7763 -0.3901
   7323SM  H11B 9535   5.005   3.224   8.374  2.4145 -0.7142  0.9309
   7323SM     P 9536   4.887   2.897   8.425  0.0480 -0.0272 -0.2790
   7323SM   O13 9537   4.894   2.890   8.569 -0.1355 -0.6095  0.0012
   7323SM   O14 9538   4.773   2.829   8.365  0.0932  0.2857  1.1037
   7323SM   O11 9539   5.021   2.841   8.367  0.2965  0.4207 -0.0753
   7323SM   O12 9540   4.896   3.042   8.369 -0.2257 -0.0547 -0.1634
   7323SM   C1S 9541   5.045   2.819   8.226 -0.0715  0.6258  0.1906
   7323SM   H1S 9542   4.955   2.785   8.170 -0.1625  0.0588  0.6724
   7323SM   H1T 9543   5.104   2.725   8.215 -3.3459 -1.3119 -4.1216
   7323SM    NF 9544   5.113   2.925   8.014 -0.4128  0.3395  0.5122
   7323SM   HNF 9545   5.197   2.911   7.962 -1.8512 -0.6662 -1.7216
   7323SM   C2S 9546   5.113   2.939   8.155  0.0715 -0.3674  0.0360
   7323SM   H2S 9547   5.054   3.030   8.176  1.8960  0.3917  2.2464
   7323SM   C3S 9548   5.249   2.974   8.226 -0.1448 -0.5489  0.4849
   7323SM   H3S 9549   5.307   2.880   8.215 -0.3780 -0.9829  2.6322
   7323SM    O3 9550   5.242   2.990   8.364 -0.1825  0.1993 -0.2986
   7323SM   HO3 9551   5.153   2.968   8.393  0.5279 -1.7546  0.6390
   7323SM   C4S 9552   5.317   3.091   8.150 -0.3982 -0.7767 -0.6278
   7323SM   H4S 9553   5.378   3.051   8.067 -2.6673 -3.1672 -1.2973
   7323SM   C5S 9554   5.314   3.224   8.181 -0.3199 -0.1172 -0.1541
   7323SM   H5S 9555   5.260   3.258   8.270  1.2640 -0.6741  1.0616
   7323SM   C6S 9556   5.392   3.325   8.101 -1.0384  0.3273  0.0675
   7323SM   H6S 9557   5.496   3.334   8.140 -0.7415  1.2166 -0.8819
   7323SM   H6T 9558   5.348   3.425   8.121  1.0468  1.4000 -0.4380
   7323SM   C7S 9559   5.404   3.292   7.951 -0.7636 -0.4656  0.2867
   7323SM   H7S 9560   5.300   3.275   7.916 -0.7181 -0.1630 -0.0014
   7323SM   H7T 9561   5.471   3.204   7.935  0.5125  0.3844  0.7723
   7323SM   C8S 9562   5.475   3.402   7.875  0.4310 -0.2237  0.7321
   7323SM   H8S 9563   5.585   3.392   7.886  0.6519 -1.5833 -2.0119
   7323SM   H8T 9564   5.440   3.497   7.920 -0.9584  0.9299 -2.5467
   7323SM   C9S 9565   5.445   3.395   7.724  0.4390 -0.3637  0.0062
   7323SM   H9S 9566   5.442   3.501   7.691 -2.1002 -0.9284 -1.8668
   7323SM   H9T 9567   5.342   3.363   7.699  0.5771  0.8429 -2.5077
   7323SM  C10S 9568   5.545   3.312   7.633  0.9758 -0.3663 -0.6969
   7323SM  H10S 9569   5.539   3.209   7.675 -0.3855 -0.4546 -1.0530
   7323SM  H10T 9570   5.644   3.362   7.639  0.3938  0.7579 -0.1085
   7323SM  C11S 9571   5.493   3.297   7.492 -0.8594 -0.2859 -0.0902
   7323SM  H11S 9572   5.392   3.252   7.491 -0.4753 -1.1579 -0.3288
   7323SM  H11T 9573   5.560   3.231   7.433 -0.9956  0.2229 -0.8139
   7323SM  C12S 9574   5.489   3.428   7.405  0.1145 -0.0532  0.1263
   7323SM  H12S 9575   5.594   3.463   7.402  0.0251  0.1632 -0.6588
   7323SM  H12T 9576   5.431   3.506   7.458  1.4581 -0.7701  2.8261
   7323SM  C13S 9577   5.457   3.411   7.256  0.7888 -0.0715 -0.0464
   7323SM  H13S 9578   5.499   3.317   7.213  1.2921  0.8832 -1.7411
   7323SM  H13T 9579   5.498   3.497   7.199  0.3507 -0.5519 -1.1337
   7323SM  C14S 9580   5.304   3.418   7.244 -0.1930  0.3612 -0.4553
   7323SM  H14S 9581   5.268   3.513   7.290 -3.3465 -0.6508 -0.6347
   7323SM  H14T 9582   5.267   3.324   7.290  0.9960  1.2387  2.5564
   7323SM  C15S 9583   5.246   3.416   7.101 -0.3176  0.5118 -0.3584
   7323SM  H15S 9584   5.136   3.422   7.115  0.0298  2.3942  2.2551
   7323SM  H15T 9585   5.274   3.318   7.057 -2.1524  0.5041 -1.6284
   7323SM  C16S 9586   5.291   3.535   7.008 -0.1120  0.5840 -0.8748
   7323SM  H16S 9587   5.401   3.520   7.002 -0.4681 -2.5769 -1.3825
   7323SM  H16T 9588   5.271   3.627   7.066 -1.6531  0.5210 -1.2618
   7323SM  C17S 9589   5.226   3.542   6.873  0.4451  0.1598  0.9438
   7323SM  H17S 9590   5.237   3.647   6.840 -0.3943  0.0086  0.1291
   7323SM  H17T 9591   5.117   3.524   6.890  0.4792 -1.0344  0.0425
   7323SM  C18S 9592   5.289   3.454   6.773 -0.1221 -0.7220 -0.0097
   7323SM  H18S 9593   5.396   3.482   6.756 -0.6602  0.5184 -1.6953
   7323SM  H18T 9594   5.234   3.462   6.677 -2.7851 -0.2026  1.4838
   7323SM  H18U 9595   5.293   3.346   6.796 -1.9706 -0.9016 -0.3802
   7323SM   C1F 9596   5.017   2.900   7.930 -0.1722 -0.2291 -0.3810
   7323SM    OF 9597   4.895   2.889   7.960  0.5599 -0.0802 -0.2148
   7323SM   C2F 9598   5.067   2.883   7.788 -0.4563 -0.0370 -0.3525
   7323SM   H2F 9599   5.096   2.776   7.783  1.3584  0.2718  1.8015
   7323SM   H2G 9600   5.151   2.954   7.773 -1.9748  1.7692 -0.6815
   7323SM   C3F 9601   4.953   2.907   7.688 -0.5936 -0.2693  0.1474
   7323SM   H3F 9602   4.924   3.013   7.703 -2.0176 -0.6113  0.0010
   7323SM   H3G 9603   4.868   2.838   7.705 -0.8927 -0.3122 -1.3648
   7323SM   C4F 9604   5.001   2.893   7.545  0.8621  0.4611  0.1074
   7323SM   H4F 9605   5.064   2.804   7.523  1.0631  1.2037 -2.6127
   7323SM   H4G 9606   5.063   2.980   7.518  1.9487 -0.2058  0.3743
   7323SM   C5F 9607   4.879   2.893   7.458 -0.2877  0.5167  0.8201
   7323SM   H5F 9608   4.838   2.996   7.452  0.4882  0.9145  1.9289
   7323SM   H5G 9609   4.807   2.817   7.493 -0.0729 -0.8711 -1.5021
   7323SM   C6F 9610   4.911   2.859   7.310  0.1112  0.1332 -0.2216
   7323SM   H6F 9611   4.972   2.766   7.297  0.3237 -0.1478  2.2793
   7323SM   H6G 9612   4.974   2.943   7.273  0.2053 -0.2693 -0.9851
   7323SM   C7F 9613   4.780   2.853   7.227  0.0561 -0.0484 -0.1532
   7323SM   H7F 9614   4.727   2.950   7.235 -0.9221 -0.5617 -0.3492
   7323SM   H7G 9615   4.703   2.785   7.271 -1.1533  0.6644 -1.1145
   7323SM   C8F 9616   4.812   2.837   7.083  0.7111 -0.0128  0.3222
   7323SM   H8F 9617   4.866   2.743   7.062 -1.9085 -0.9384 -3.1735
   7323SM   H8G 9618   4.888   2.916   7.065  0.0965  0.3666 -0.7027
   7323SM   C9F 9619   4.687   2.835   6.984 -0.3790 -0.3118 -0.0684
   7323SM   H9F 9620   4.621   2.917   7.019  1.5862  0.8520  1.1127
   7323SM   H9G 9621   4.634   2.738   6.996  1.6919 -1.3804  1.0019
   7323SM  C10F 9622   4.727   2.845   6.839 -0.5512 -0.8178  0.1299
   7323SM  H10F 9623   4.646   2.814   6.770  0.8061 -0.9625 -1.4568
   7323SM  H10G 9624   4.804   2.767   6.821 -0.4134 -0.5703 -0.3602
   7323SM  C11F 9625   4.780   2.981   6.800  0.4180 -0.7470  0.1018
   7323SM  H11F 9626   4.876   3.001   6.852  0.4060  1.2863 -0.5783
   7323SM  H11G 9627   4.725   3.068   6.841  2.6111  0.8226 -0.0950
   7323SM  C12F 9628   4.817   3.010   6.658  0.3971  0.5214  0.6358
   7323SM  H12F 9629   4.881   2.935   6.607  3.1029  1.7946  1.9305
   7323SM  H12G 9630   4.871   3.108   6.655 -0.2629  0.8716 -0.0697
   7323SM  C13F 9631   4.693   3.022   6.567 -0.2972  0.6818 -0.2577
   7323SM  H13F 9632   4.624   3.101   6.606 -0.2094  1.0390 -0.8151
   7323SM  H13G 9633   4.641   2.924   6.559  3.1007 -1.3200  0.4987
   7323SM  C14F 9634   4.727   3.068   6.427  0.3655 -0.2671 -0.1522
   7323SM  H14F 9635   4.790   2.990   6.379 -1.8730 -0.7673 -2.4900
   7323SM  H14G 9636   4.798   3.154   6.433 -1.7657  1.7402 -1.7868
   7323SM  C15F 9637   4.616   3.119   6.340  0.6587 -0.9344  0.2032
   7323SM  H15F 9638   4.582   3.212   6.393  3.5658 -0.7640  1.9964
   7323SM  H15G 9639   4.525   3.055   6.337 -2.9375  3.6169 -2.2011
   7323SM  C16F 9640   4.647   3.154   6.188 -0.3293 -0.3845 -0.4756
   7323SM  H16F 9641   4.558   3.215   6.160 -0.5973  0.5797  2.1807
   7323SM  H16G 9642   4.637   3.058   6.134 -1.4792 -0.2002 -0.6230
   7323SM  C17F 9643   4.782   3.222   6.158  0.5683  0.2848 -0.2730
   7323SM  H17F 9644   4.779   3.227   6.047  0.4578 -1.7062 -0.3863
   7323SM  H17G 9645   4.870   3.159   6.184  2.3495  1.3466 -3.3107
   7323SM  C18F 9646   4.785   3.360   6.225 -0.1215 -0.0553 -0.3259
   7323SM  H18F 9647   4.784   3.359   6.337  1.4472 -1.0836 -0.2895
   7323SM  H18G 9648   4.693   3.418   6.203 -0.2048  0.0246  0.2179
   7323SM  C19F 9649   4.915   3.438   6.192  0.0627  0.1088  0.5422
   7323SM  H19F 9650   4.889   3.545   6.206 -1.6528 -0.0021 -1.3682
   7323SM  H19G 9651   4.939   3.420   6.085 -2.4815  1.0206 -0.2540
   7323SM  C20F 9652   5.028   3.404   6.286 -1.2581  0.5087 -0.3745
   7323SM  H20F 9653   5.080   3.313   6.249 -2.1254  0.5809 -1.8940
   7323SM  H20G 9654   4.994   3.393   6.391  1.3709  2.3958  0.7890
   7323SM  C21F 9655   5.146   3.500   6.280 -0.2761  0.1558  0.3055
   7323SM  H21F 9656   5.107   3.598   6.314  0.5279  1.2829 -1.8543
   7323SM  H21G 9657   5.177   3.527   6.177  0.4105  0.7239  0.6583
   7323SM  C22F 9658   5.267   3.468   6.378 -0.3711 -0.4642 -0.3827
   7323SM  H22F 9659   5.338   3.397   6.331  0.3960  0.1789 -0.2218
   7323SM  H22G 9660   5.216   3.419   6.464 -0.1660  0.4980  0.3124
   7323SM  C23F 9661   5.356   3.586   6.412  0.1985 -0.7945  0.1416
   7323SM  H23F 9662   5.444   3.551   6.471  0.6009 -0.4528 -0.2447
   7323SM  H23G 9663   5.308   3.663   6.475  3.5972  1.6528  0.0191
   7323SM  H23H 9664   5.387   3.635   6.317 -0.1829 -0.8442 -0.0094
   7423SM     N 9665   1.325   4.402   8.723  0.1157  0.3446  0.0198
   7423SM   C15 9666   1.182   4.366   8.732  0.0651 -0.1339 -0.6232
   7423SM  H15A 9667   1.131   4.407   8.819  1.0378  1.8704 -0.9301
   7423SM  H15B 9668   1.165   4.260   8.735 -1.0904  0.0442  2.0840
   7423SM  H15C 9669   1.135   4.397   8.640  0.2896  0.3612 -0.5754
   7423SM   C14 9670   1.378   4.355   8.588 -0.3425  0.3093  0.4837
   7423SM  H14A 9671   1.309   4.376   8.508  2.5475  3.6969 -1.3956
   7423SM  H14B 9672   1.387   4.248   8.595 -1.9178  0.1624  0.8441
   7423SM  H14C 9673   1.473   4.395   8.559 -0.4327  0.6597  0.6541
   7423SM   C13 9674   1.338   4.552   8.728  0.7420  0.0103 -0.6942
   7423SM  H13A 9675   1.292   4.591   8.817  0.3980  2.5582 -1.8884
   7423SM  H13B 9676   1.300   4.598   8.637 -0.3103  1.0911  0.2558
   7423SM  H13C 9677   1.442   4.576   8.745  0.9697  0.5247 -2.5352
   7423SM   C12 9678   1.409   4.334   8.832  0.2125  0.1135  0.5752
   7423SM  H12A 9679   1.510   4.350   8.797 -0.3217  1.5061 -0.4673
   7423SM  H12B 9680   1.391   4.228   8.834  1.3988 -0.1311  3.9210
   7423SM   C11 9681   1.412   4.389   8.975  0.5954 -0.0330 -0.3463
   7423SM  H11A 9682   1.460   4.326   9.053  3.2303  2.7050  0.4211
   7423SM  H11B 9683   1.308   4.395   9.013  0.8185  0.6345  0.1587
   7423SM     P 9684   1.617   4.545   8.967 -0.0188  0.1594  0.4452
   7423SM   O13 9685   1.638   4.687   9.000  0.1638  0.0242 -0.2435
   7423SM   O14 9686   1.691   4.440   9.042  0.2698 -0.4834  0.9719
   7423SM   O11 9687   1.640   4.530   8.805  0.6746 -0.8038 -0.1491
   7423SM   O12 9688   1.462   4.519   8.989  0.2590  0.8261 -0.7527
   7423SM   C1S 9689   1.782   4.495   8.779  0.4118  0.0203 -0.0204
   7423SM   H1S 9690   1.806   4.393   8.815 -1.8551 -0.3305  0.6653
   7423SM   H1T 9691   1.854   4.565   8.826  0.6384 -0.4209  0.2919
   7423SM    NF 9692   1.964   4.473   8.598  0.2397  0.4675  0.8093
   7423SM   HNF 9693   2.023   4.549   8.574 -0.9826  1.0762 -0.4518
   7423SM   C2S 9694   1.822   4.498   8.622 -0.5625  0.5578  0.0851
   7423SM   H2S 9695   1.763   4.411   8.584  1.6941 -0.8558 -0.3390
   7423SM   C3S 9696   1.771   4.631   8.560 -0.5007 -0.9242  0.1043
   7423SM   H3S 9697   1.830   4.717   8.600 -1.7470 -0.1960  0.4626
   7423SM    O3 9698   1.632   4.677   8.582 -0.4540 -0.0932 -0.4291
   7423SM   HO3 9699   1.618   4.633   8.666 -0.5063 -0.7783 -0.7899
   7423SM   C4S 9700   1.794   4.636   8.415 -0.1598 -0.7728 -0.0796
   7423SM   H4S 9701   1.710   4.602   8.352 -0.1426  1.1046 -1.1982
   7423SM   C5S 9702   1.904   4.700   8.356 -0.2152 -0.5669 -0.2130
   7423SM   H5S 9703   1.975   4.759   8.416  0.8090 -0.2747 -1.6577
   7423SM   C6S 9704   1.927   4.703   8.207  0.9818  0.4675  0.0902
   7423SM   H6S 9705   2.009   4.630   8.193  0.7122  0.1868 -0.0537
   7423SM   H6T 9706   1.969   4.798   8.167 -0.1179  0.4567 -1.1550
   7423SM   C7S 9707   1.805   4.651   8.118  0.3929 -0.0669 -0.3069
   7423SM   H7S 9708   1.722   4.723   8.124  1.0235  0.6173  0.4812
   7423SM   H7T 9709   1.774   4.546   8.139  1.8804 -1.5747 -4.5517
   7423SM   C8S 9710   1.850   4.660   7.969  1.3619 -0.0649  0.1153
   7423SM   H8S 9711   1.876   4.767   7.959 -0.9756  0.6896  1.5002
   7423SM   H8T 9712   1.761   4.627   7.910  2.2919 -0.7674 -0.9506
   7423SM   C9S 9713   1.964   4.567   7.925 -0.1506  0.2874 -0.7376
   7423SM   H9S 9714   1.945   4.461   7.951  1.0164  0.3605  0.5516
   7423SM   H9T 9715   2.060   4.582   7.980  0.3081 -1.5523 -0.9905
   7423SM  C10S 9716   1.987   4.575   7.773  0.2463  0.0328  0.6047
   7423SM  H10S 9717   2.081   4.521   7.751 -0.7637 -2.5095  2.0735
   7423SM  H10T 9718   1.996   4.680   7.739 -2.6111  0.4926  1.0214
   7423SM  C11S 9719   1.873   4.504   7.692 -0.3364 -0.2158  0.0093
   7423SM  H11S 9720   1.787   4.574   7.700  0.7895  1.0215  2.0993
   7423SM  H11T 9721   1.846   4.408   7.740  1.0005 -0.7718 -0.3008
   7423SM  C12S 9722   1.904   4.480   7.544  0.0678  0.0359  0.2911
   7423SM  H12S 9723   1.992   4.412   7.544  0.8236  0.9846  0.5455
   7423SM  H12T 9724   1.924   4.577   7.492  0.9053 -0.1804  0.1966
   7423SM  C13S 9725   1.791   4.406   7.470 -0.7173 -0.4411 -0.5874
   7423SM  H13S 9726   1.694   4.460   7.480 -0.1903  0.4773 -0.3194
   7423SM  H13T 9727   1.778   4.304   7.511 -1.8783 -0.1426 -0.1877
   7423SM  C14S 9728   1.822   4.376   7.327  0.6587  0.5429  0.1328
   7423SM  H14S 9729   1.788   4.278   7.287  2.3417  0.3563 -0.9388
   7423SM  H14T 9730   1.931   4.363   7.308  0.0536 -0.7700 -3.0275
   7423SM  C15S 9731   1.777   4.488   7.227  0.3890 -0.6456  0.4029
   7423SM  H15S 9732   1.818   4.586   7.261  0.0562 -0.3192 -0.1093
   7423SM  H15T 9733   1.668   4.501   7.239  0.6258  0.5306  1.5099
   7423SM  C16S 9734   1.814   4.438   7.086  0.4421 -0.4344  0.1945
   7423SM  H16S 9735   1.765   4.346   7.050  0.1949  0.5164 -2.0435
   7423SM  H16T 9736   1.924   4.425   7.092  0.4979  0.2295  0.8190
   7423SM  C17S 9737   1.790   4.549   6.981  0.2430  1.3838 -1.1902
   7423SM  H17S 9738   1.843   4.643   7.004 -0.7050  1.5300  0.5572
   7423SM  H17T 9739   1.682   4.569   6.997 -0.3758 -1.8219 -0.4683
   7423SM  C18S 9740   1.823   4.505   6.843  0.3341  0.4748  0.2191
   7423SM  H18S 9741   1.769   4.415   6.808  0.1416  0.7813 -0.2790
   7423SM  H18T 9742   1.933   4.493   6.834  0.1770  0.4590 -2.2392
   7423SM  H18U 9743   1.787   4.586   6.776 -0.0905 -0.8959 -1.2681
   7423SM   C1F 9744   2.011   4.349   8.609 -0.3337  0.1316 -0.9046
   7423SM    OF 9745   1.941   4.250   8.642 -0.3452 -0.4031  1.0431
   7423SM   C2F 9746   2.158   4.329   8.580 -0.0522 -0.1706 -0.3788
   7423SM   H2F 9747   2.201   4.299   8.678 -1.6392 -0.1827  0.3336
   7423SM   H2G 9748   2.206   4.422   8.541 -1.1123  0.6563  0.2441
   7423SM   C3F 9749   2.178   4.217   8.470 -0.3158 -0.4833  0.3778
   7423SM   H3F 9750   2.135   4.121   8.506 -2.9075 -0.7200 -2.8811
   7423SM   H3G 9751   2.287   4.199   8.457 -0.5997 -2.0616  0.0288
   7423SM   C4F 9752   2.107   4.255   8.338 -0.1415 -0.6215 -0.5246
   7423SM   H4F 9753   2.121   4.365   8.336 -0.2159 -0.5718  0.8633
   7423SM   H4G 9754   2.002   4.222   8.354 -1.2562  3.2154  1.1474
   7423SM   C5F 9755   2.181   4.189   8.221  0.5549 -0.6399 -1.1349
   7423SM   H5F 9756   2.167   4.080   8.236 -0.9590 -0.2395  0.6695
   7423SM   H5G 9757   2.289   4.212   8.231  0.3648 -0.3918  0.6801
   7423SM   C6F 9758   2.140   4.237   8.078  0.4473  0.2651  0.6267
   7423SM   H6F 9759   2.148   4.347   8.065 -0.1644  0.1865 -0.5314
   7423SM   H6G 9760   2.031   4.219   8.086  0.3660  0.5419  0.1612
   7423SM   C7F 9761   2.188   4.162   7.949 -0.2083  0.3647 -0.4700
   7423SM   H7F 9762   2.153   4.058   7.959 -2.0752  1.1196  1.4490
   7423SM   H7G 9763   2.299   4.165   7.955  0.0694 -1.6861 -3.0658
   7423SM   C8F 9764   2.142   4.233   7.826 -0.3036 -0.4271 -0.1920
   7423SM   H8F 9765   2.167   4.341   7.833 -0.9537 -0.2321 -0.7352
   7423SM   H8G 9766   2.031   4.238   7.823 -0.2611  0.5704 -0.5284
   7423SM   C9F 9767   2.188   4.167   7.699 -0.0084 -0.2297 -0.4035
   7423SM   H9F 9768   2.157   4.060   7.691  2.3246 -1.0185  0.3319
   7423SM   H9G 9769   2.299   4.157   7.700 -0.0805 -1.0905 -0.0339
   7423SM  C10F 9770   2.146   4.213   7.558 -0.0355 -0.1327 -0.1736
   7423SM  H10F 9771   2.171   4.321   7.543 -0.4577  0.2265  1.4645
   7423SM  H10G 9772   2.035   4.205   7.556 -0.0307 -0.0787 -0.7337
   7423SM  C11F 9773   2.209   4.131   7.445 -0.1106 -0.4872 -0.3854
   7423SM  H11F 9774   2.153   4.035   7.441  0.9283 -1.1123 -0.1806
   7423SM  H11G 9775   2.319   4.118   7.451  0.2519  0.1168 -3.7002
   7423SM  C12F 9776   2.184   4.209   7.313  0.0885 -0.0450 -0.4581
   7423SM  H12F 9777   2.216   4.314   7.328 -0.5372 -0.1047  1.6361
   7423SM  H12G 9778   2.076   4.200   7.288 -0.0382  0.2795 -0.0345
   7423SM  C13F 9779   2.258   4.142   7.196 -0.2984  0.5257 -1.0379
   7423SM  H13F 9780   2.224   4.037   7.205  0.7635  0.2903  0.6603
   7423SM  H13G 9781   2.367   4.137   7.219 -0.3016 -1.7661 -1.3335
   7423SM  C14F 9782   2.231   4.209   7.059  0.0978  0.3048  0.0632
   7423SM  H14F 9783   2.279   4.309   7.049 -1.5376  0.9266 -2.8827
   7423SM  H14G 9784   2.122   4.229   7.047  0.0432  0.2642  0.4638
   7423SM  C15F 9785   2.267   4.116   6.949  0.0013  0.6515 -0.8852
   7423SM  H15F 9786   2.195   4.032   6.950 -1.2289  1.6203  1.3191
   7423SM  H15G 9787   2.371   4.081   6.968 -0.1958  1.7403  3.3578
   7423SM  C16F 9788   2.254   4.184   6.816  0.1784  1.2537 -0.1940
   7423SM  H16F 9789   2.339   4.254   6.807  1.3596 -0.1150 -0.0649
   7423SM  H16G 9790   2.157   4.237   6.824 -0.6745 -0.2973  0.2937
   7423SM  C17F 9791   2.249   4.094   6.700  0.3647  0.1829  0.6011
   7423SM  H17F 9792   2.208   4.159   6.620 -0.3898  2.1785  2.5040
   7423SM  H17G 9793   2.178   4.010   6.718 -2.6662  2.9693  2.9694
   7423SM  C18F 9794   2.389   4.055   6.632  0.2133  0.1333 -0.1975
   7423SM  H18F 9795   2.460   4.005   6.703 -1.0324 -1.1895  0.1802
   7423SM  H18G 9796   2.436   4.154   6.616  0.0372  0.3526  0.5634
   7423SM  C19F 9797   2.388   3.969   6.503 -0.3434 -0.0097 -0.8284
   7423SM  H19F 9798   2.312   4.024   6.444 -1.7674  1.0493  1.8410
   7423SM  H19G 9799   2.348   3.865   6.507  1.5991 -0.7403  1.4293
   7423SM  C20F 9800   2.521   3.968   6.434  0.0631 -0.2942 -0.5715
   7423SM  H20F 9801   2.589   3.926   6.510  2.6780  0.9895 -2.0720
   7423SM  H20G 9802   2.552   4.073   6.419 -1.4093  0.2736  0.1370
   7423SM  C21F 9803   2.542   3.881   6.311  0.4572 -0.0197 -0.3799
   7423SM  H21F 9804   2.498   3.779   6.308  0.2890  0.0690 -1.7592
   7423SM  H21G 9805   2.652   3.878   6.303  0.6177 -4.4019  0.6686
   7423SM  C22F 9806   2.481   3.956   6.189 -0.0853  0.8940  0.0757
   7423SM  H22F 9807   2.476   4.061   6.224  1.7173  1.8491 -2.2893
   7423SM  H22G 9808   2.381   3.915   6.167  0.4710 -1.1805  1.1283
   7423SM  C23F 9809   2.572   3.953   6.071 -0.1553 -0.0962  0.4199
   7423SM  H23F 9810   2.586   3.847   6.039  2.5848  0.1685  0.4564
   7423SM  H23G 9811   2.676   3.987   6.092  0.9335 -1.9541 -1.5485
   7423SM  H23H 9812   2.532   4.009   5.984  0.3713 -1.2090 -0.5732
   7523SM     N 9813   0.166   6.559   9.382 -0.6423 -0.2535 -0.6116
   7523SM   C15 9814   0.040   6.544   9.304 -0.0665  0.0068 -0.5396
   7523SM  H15A 9815   0.052   6.572   9.200  2.4479 -0.8790 -0.5583
   7523SM  H15B 9816  -0.034   6.611   9.345 -0.7317 -1.9819  1.7797
   7523SM  H15C 9817  -0.013   6.450   9.304 -2.5835  1.2859  1.5722
   7523SM   C14 9818   0.148   6.536   9.529  0.2964  0.5655 -0.2622
   7523SM  H14A 9819   0.070   6.595   9.574  0.2865  1.1942 -1.0939
   7523SM  H14B 9820   0.238   6.543   9.589  0.7377 -2.2860 -0.4829
   7523SM  H14C 9821   0.114   6.437   9.553  0.2140  0.9864  1.5099
   7523SM   C13 9822   0.264   6.450   9.339 -0.4726 -1.1683 -0.5774
   7523SM  H13A 9823   0.283   6.455   9.232 -0.9312 -2.4246 -0.7386
   7523SM  H13B 9824   0.220   6.354   9.360 -1.6328 -0.5739 -0.2401
   7523SM  H13C 9825   0.360   6.468   9.385 -1.0045  2.0505 -0.5261
   7523SM   C12 9826   0.242   6.691   9.357  0.2266 -1.4739 -0.3647
   7523SM  H12A 9827   0.337   6.690   9.409 -1.0051 -0.2466  2.1149
   7523SM  H12B 9828   0.197   6.775   9.408  1.5333  0.9463 -2.9420
   7523SM   C11 9829   0.261   6.735   9.207 -0.4958 -0.7614  0.2419
   7523SM  H11A 9830   0.305   6.835   9.186 -1.9505 -0.3437 -0.9760
   7523SM  H11B 9831   0.157   6.746   9.170 -0.5815  0.4241  0.7757
   7523SM     P 9832   0.295   6.607   8.992 -0.1917  0.0715  0.7091
   7523SM   O13 9833   0.408   6.529   8.937 -0.2890  0.0191  0.2110
   7523SM   O14 9834   0.164   6.545   8.981  0.2102 -0.1222  0.8528
   7523SM   O11 9835   0.290   6.754   8.924 -0.3174 -0.2283  0.7008
   7523SM   O12 9836   0.333   6.641   9.136 -0.4906  0.2211  0.0809
   7523SM   C1S 9837   0.421   6.812   8.890 -0.3461  0.3745  0.0298
   7523SM   H1S 9838   0.504   6.787   8.959 -1.6141 -0.5969  1.2576
   7523SM   H1T 9839   0.419   6.923   8.890 -0.6429  0.4022  1.8206
   7523SM    NF 9840   0.571   6.849   8.702 -0.3249  0.5025  0.0057
   7523SM   HNF 9841   0.545   6.929   8.648  0.3695  0.3916 -0.5025
   7523SM   C2S 9842   0.457   6.766   8.743 -0.3878  0.3272 -0.0500
   7523SM   H2S 9843   0.480   6.657   8.751 -0.4379  0.2160 -1.2533
   7523SM   C3S 9844   0.338   6.785   8.645  0.1089  0.6597 -0.2755
   7523SM   H3S 9845   0.314   6.893   8.640 -2.6754  0.0833 -0.8437
   7523SM    O3 9846   0.222   6.711   8.682 -0.0246  0.3622  0.2495
   7523SM   HO3 9847   0.233   6.682   8.773 -2.4968 -0.7483  0.2702
   7523SM   C4S 9848   0.381   6.751   8.506 -0.1672 -0.4361  0.3159
   7523SM   H4S 9849   0.409   6.644   8.504  0.0722 -0.4633  2.6645
   7523SM   C5S 9850   0.361   6.824   8.396  0.2695  0.1915 -0.3025
   7523SM   H5S 9851   0.309   6.921   8.398 -0.7720 -0.3681  1.0927
   7523SM   C6S 9852   0.396   6.759   8.264 -1.0022 -1.0170 -0.3168
   7523SM   H6S 9853   0.376   6.650   8.271 -0.8680 -0.9580  3.6211
   7523SM   H6T 9854   0.504   6.775   8.241 -1.0965 -0.3897 -0.3342
   7523SM   C7S 9855   0.314   6.822   8.149  0.0482  0.3805  0.1586
   7523SM   H7S 9856   0.312   6.933   8.138 -1.5277  0.2032 -2.2005
   7523SM   H7T 9857   0.209   6.789   8.163 -0.6267  1.8466 -1.1349
   7523SM   C8S 9858   0.366   6.768   8.009 -0.5614  0.7400 -0.2170
   7523SM   H8S 9859   0.354   6.659   7.991  0.7738  0.7461 -1.2958
   7523SM   H8T 9860   0.477   6.780   8.009 -0.3537 -0.8969  0.4991
   7523SM   C9S 9861   0.315   6.860   7.900  0.2127  0.2861  0.5458
   7523SM   H9S 9862   0.342   6.968   7.908  1.4300 -0.0841  1.8335
   7523SM   H9T 9863   0.205   6.845   7.898  0.2780 -0.2687 -1.1900
   7523SM  C10S 9864   0.363   6.804   7.759  0.1330  0.0196  0.5233
   7523SM  H10S 9865   0.347   6.694   7.768  0.3632 -0.0799 -0.2427
   7523SM  H10T 9866   0.474   6.813   7.758  0.0646  1.6636  2.1842
   7523SM  C11S 9867   0.294   6.872   7.645  0.2890 -0.0274 -0.0157
   7523SM  H11S 9868   0.302   6.982   7.645 -1.5893  0.1912 -2.3453
   7523SM  H11T 9869   0.195   6.826   7.624 -1.4767  3.7349 -0.5941
   7523SM  C12S 9870   0.369   6.837   7.509  0.0665 -0.7384  0.2836
   7523SM  H12S 9871   0.478   6.854   7.522  0.2822  0.1486 -2.1458
   7523SM  H12T 9872   0.344   6.920   7.441  3.3398  1.3089  1.3280
   7523SM  C13S 9873   0.325   6.713   7.427 -0.1006  0.0004 -0.4972
   7523SM  H13S 9874   0.219   6.725   7.396 -1.2077 -2.3213  1.9532
   7523SM  H13T 9875   0.311   6.620   7.486  0.1809  1.4529  1.9991
   7523SM  C14S 9876   0.421   6.687   7.318  0.1515 -0.2918 -0.1965
   7523SM  H14S 9877   0.405   6.581   7.291  2.0805 -0.6492 -0.0966
   7523SM  H14T 9878   0.525   6.689   7.357  0.4482 -0.9920 -0.9243
   7523SM  C15S 9879   0.411   6.779   7.195  0.2613  0.0992 -0.3127
   7523SM  H15S 9880   0.431   6.887   7.209  0.1121 -0.1398  2.1942
   7523SM  H15T 9881   0.305   6.772   7.163  0.4719  0.3195 -1.0826
   7523SM  C16S 9882   0.487   6.729   7.065  0.6775 -0.7146 -0.6061
   7523SM  H16S 9883   0.479   6.620   7.042  0.4804 -1.3150  1.9972
   7523SM  H16T 9884   0.590   6.723   7.105  1.1366 -0.8947 -1.7699
   7523SM  C17S 9885   0.451   6.818   6.943  0.1890  0.6482 -0.6556
   7523SM  H17S 9886   0.483   6.924   6.953 -1.6440  1.2676 -0.9554
   7523SM  H17T 9887   0.340   6.815   6.949  0.1645  0.9800 -0.8713
   7523SM  C18S 9888   0.485   6.773   6.805  0.3243 -0.3751  0.1015
   7523SM  H18S 9889   0.451   6.854   6.737  1.7838  3.7533  3.8317
   7523SM  H18T 9890   0.445   6.673   6.780  1.8937 -1.0810  0.2906
   7523SM  H18U 9891   0.596   6.778   6.795  0.3088  2.7687  0.6261
   7523SM   C1F 9892   0.693   6.852   8.750 -0.2510 -0.0036 -0.6270
   7523SM    OF 9893   0.727   6.751   8.806 -0.6086  0.2941 -0.2176
   7523SM   C2F 9894   0.779   6.967   8.709 -0.0063 -0.2057 -0.0008
   7523SM   H2F 9895   0.827   7.007   8.801 -1.6324 -0.1019  0.8409
   7523SM   H2G 9896   0.712   7.047   8.672 -0.0577  0.5798  1.6773
   7523SM   C3F 9897   0.880   6.941   8.605  0.9113  0.2844  0.1635
   7523SM   H3F 9898   0.957   6.868   8.640  0.9869 -0.2262 -1.0050
   7523SM   H3G 9899   0.937   7.036   8.606 -1.6045  1.8899  1.7871
   7523SM   C4F 9900   0.823   6.900   8.463  0.2621 -0.2207  0.4310
   7523SM   H4F 9901   0.762   6.981   8.418 -0.2581 -1.4311 -1.1088
   7523SM   H4G 9902   0.764   6.806   8.464 -0.9355  0.5147  1.4222
   7523SM   C5F 9903   0.934   6.885   8.360 -0.6510  0.3726 -0.1402
   7523SM   H5F 9904   1.001   6.805   8.398  1.2717  0.7978 -2.3907
   7523SM   H5G 9905   1.000   6.974   8.349  2.4117 -1.5245  1.4845
   7523SM   C6F 9906   0.871   6.829   8.228  0.4944  0.3073 -0.1005
   7523SM   H6F 9907   0.789   6.893   8.189 -0.7120 -0.2742  1.3688
   7523SM   H6G 9908   0.819   6.735   8.258  0.4177 -0.6875 -2.9825
   7523SM   C7F 9909   0.973   6.815   8.124 -0.1516  0.9548  0.6305
   7523SM   H7F 9910   1.062   6.759   8.159  1.0259  1.8793 -0.7999
   7523SM   H7G 9911   1.002   6.920   8.105 -3.2012  1.5110 -1.8430
   7523SM   C8F 9912   0.918   6.760   7.990 -0.2968  0.1485 -0.4649
   7523SM   H8F 9913   0.839   6.826   7.947  0.5048  1.0194 -0.6367
   7523SM   H8G 9914   0.867   6.666   8.020  0.3459  0.0628  0.3839
   7523SM   C9F 9915   1.016   6.732   7.877 -0.0132  0.3042 -0.3901
   7523SM   H9F 9916   1.107   6.690   7.924 -0.8246 -1.2090 -0.1001
   7523SM   H9G 9917   1.041   6.831   7.833  1.8332  0.2025  0.3237
   7523SM  C10F 9918   0.956   6.640   7.766  0.4285  0.5266  0.5645
   7523SM  H10F 9919   0.868   6.688   7.719  1.0277 -0.9300 -2.2785
   7523SM  H10G 9920   0.921   6.545   7.811  0.5398  0.9628  1.5873
   7523SM  C11F 9921   1.048   6.597   7.651  0.4846  0.6461 -0.0710
   7523SM  H11F 9922   1.034   6.494   7.613  1.6123  0.5785 -0.3311
   7523SM  H11G 9923   1.155   6.608   7.676  0.6601  1.0918 -0.9714
   7523SM  C12F 9924   1.026   6.689   7.536  0.1463 -0.6024  1.0341
   7523SM  H12F 9925   1.042   6.797   7.561 -3.3026  0.6935 -1.4967
   7523SM  H12G 9926   0.923   6.699   7.497  1.3588  1.1630 -2.0537
   7523SM  C13F 9927   1.126   6.670   7.418  0.1487 -0.3148  0.6361
   7523SM  H13F 9928   1.232   6.678   7.450  1.4141 -0.9646 -2.9663
   7523SM  H13G 9929   1.124   6.759   7.353  0.8776 -1.2514 -0.7156
   7523SM  C14F 9930   1.089   6.550   7.329  0.5254 -0.2285 -0.5068
   7523SM  H14F 9931   1.066   6.456   7.383 -0.3695 -1.1672 -2.4357
   7523SM  H14G 9932   1.165   6.526   7.252  0.2230 -0.1023 -0.8528
   7523SM  C15F 9933   0.967   6.588   7.243  0.5367  0.1386 -0.0880
   7523SM  H15F 9934   0.999   6.683   7.195  1.9751 -0.5706 -0.5653
   7523SM  H15G 9935   0.881   6.608   7.311  1.7499 -0.2370  1.6090
   7523SM  C16F 9936   0.935   6.486   7.135  0.7423  0.4662  0.1165
   7523SM  H16F 9937   0.908   6.385   7.174 -1.3330  0.5546 -0.9068
   7523SM  H16G 9938   1.038   6.470   7.097  0.8092 -1.0787  0.8497
   7523SM  C17F 9939   0.844   6.527   7.025 -0.1139 -0.5523 -0.0858
   7523SM  H17F 9940   0.872   6.619   6.970 -0.3824 -1.4017 -1.7059
   7523SM  H17G 9941   0.747   6.553   7.072  0.6715 -0.3641  1.4806
   7523SM  C18F 9942   0.820   6.426   6.910  0.2891 -0.2169  1.3201
   7523SM  H18F 9943   0.790   6.335   6.965  0.3644 -0.1567  1.4596
   7523SM  H18G 9944   0.914   6.407   6.854 -0.5734  1.2438 -0.7703
   7523SM  C19F 9945   0.714   6.479   6.812 -0.3715 -0.2879  0.3310
   7523SM  H19F 9946   0.761   6.569   6.767 -0.6219  0.1821  0.9995
   7523SM  H19G 9947   0.628   6.521   6.868 -0.7082  0.5810 -0.7970
   7523SM  C20F 9948   0.677   6.372   6.706  0.2542  0.2357 -0.4174
   7523SM  H20F 9949   0.574   6.396   6.671 -0.6416 -0.0447  1.8534
   7523SM  H20G 9950   0.670   6.274   6.757  1.3049  0.1055 -0.5007
   7523SM  C21F 9951   0.762   6.375   6.579  0.6407 -0.1392 -0.4556
   7523SM  H21F 9952   0.871   6.382   6.596  0.3488  2.8543  0.8277
   7523SM  H21G 9953   0.720   6.467   6.532 -0.9516 -0.6526 -0.1186
   7523SM  C22F 9954   0.725   6.255   6.496 -0.0784  0.1694  0.1387
   7523SM  H22F 9955   0.622   6.219   6.520  0.3170 -0.1490  1.4391
   7523SM  H22G 9956   0.792   6.172   6.525 -1.0006 -0.7512 -0.2791
   7523SM  C23F 9957   0.722   6.281   6.341 -0.3480  0.2850 -0.1618
   7523SM  H23F 9958   0.680   6.200   6.277  1.1338 -1.0458  0.4974
   7523SM  H23G 9959   0.826   6.297   6.304 -0.6995  1.4450 -0.6949
   7523SM  H23H 9960   0.661   6.372   6.323 -0.5741  0.7554  2.5626
   7623SM     N 9961   1.218   5.342   9.107  0.1390 -0.6802 -0.5456
   7623SM   C15 9962   1.248   5.440   9.213 -0.4216  0.1041 -0.5862
   7623SM  H15A 9963   1.227   5.543   9.186  0.0434  0.4665  0.3884
   7623SM  H15B 9964   1.354   5.433   9.234  0.0390 -1.6337 -3.0475
   7623SM  H15C 9965   1.191   5.435   9.304 -1.0964  1.8502 -0.8615
   7623SM   C14 9966   1.313   5.353   8.995  0.0405  0.2544  0.6450
   7623SM  H14A 9967   1.281   5.289   8.915  1.4937  0.4822 -0.1446
   7623SM  H14B 9968   1.413   5.325   9.024  0.2738  0.1417 -0.2495
   7623SM  H14C 9969   1.306   5.453   8.955 -0.0765 -0.6915 -1.8784
   7623SM   C13 9970   1.232   5.203   9.168 -0.4672 -1.3016  0.2706
   7623SM  H13A 9971   1.159   5.195   9.248 -1.0749  0.8667 -0.0116
   7623SM  H13B 9972   1.335   5.185   9.197 -0.8746 -2.2589  1.2258
   7623SM  H13C 9973   1.205   5.125   9.097 -1.2420 -0.3111 -0.5518
   7623SM   C12 9974   1.077   5.362   9.053  0.8224 -0.2966  0.0686
   7623SM  H12A 9975   1.014   5.360   9.141  0.9687  0.8661  0.2219
   7623SM  H12B 9976   1.057   5.282   8.984  1.4156 -1.7173  1.4840
   7623SM   C11 9977   1.040   5.500   8.986  0.2405  0.4658  0.6863
   7623SM  H11A 9978   0.935   5.505   8.951  0.5985  0.1693 -0.4719
   7623SM  H11B 9979   1.099   5.505   8.892 -1.1748  0.3980 -0.2386
   7623SM     P 9980   0.960   5.681   9.153 -0.0218 -0.0999  0.4645
   7623SM   O13 9981   0.871   5.578   9.197  0.5062  0.1738  0.1259
   7623SM   O14 9982   1.019   5.777   9.250 -0.4601  0.5049 -1.1071
   7623SM   O11 9983   0.885   5.757   9.032 -0.0795 -0.2960 -0.2835
   7623SM   O12 9984   1.079   5.612   9.074  0.6172  0.0735  0.4654
   7623SM   C1S 9985   0.966   5.847   8.956  0.5602  0.1087  0.3491
   7623SM   H1S 9986   1.077   5.839   8.968  0.4522 -2.1477  0.0920
   7623SM   H1T 9987   0.931   5.952   8.969 -0.0733  0.2454 -1.9857
   7623SM    NF 9988   1.055   5.908   8.731 -0.4830  0.0569  0.1659
   7623SM   HNF 9989   1.013   5.998   8.735 -0.3819  0.2568 -2.0564
   7623SM   C2S 9990   0.970   5.812   8.802 -0.2688  0.3515 -0.3936
   7623SM   H2S 9991   1.021   5.714   8.790  1.4131  1.2230 -0.7130
   7623SM   C3S 9992   0.825   5.805   8.739  0.1682 -0.8813  0.3090
   7623SM   H3S 9993   0.780   5.902   8.767 -1.2954 -1.2998 -0.4735
   7623SM    O3 9994   0.729   5.717   8.799 -0.6002 -0.1102 -0.7767
   7623SM   HO3 9995   0.762   5.697   8.887 -0.0920  2.3057 -0.3360
   7623SM   C4S 9996   0.829   5.798   8.586  0.4971  0.4195  0.5066
   7623SM   H4S 9997   0.902   5.730   8.539  0.9636 -1.1810  3.2724
   7623SM   C5S 9998   0.751   5.876   8.514  0.0831 -0.7903  0.1889
   7623SM   H5S 9999   0.685   5.938   8.576 -0.3485 -0.4873 -0.5530
   7623SM   C6S10000   0.757   5.888   8.360 -1.1270 -0.8528  0.0282
   7623SM   H6S10001   0.660   5.856   8.316 -1.1878  1.7189 -1.9931
   7623SM   H6T10002   0.838   5.817   8.330  0.9939  1.2681  0.4482
   7623SM   C7S10003   0.761   6.030   8.310 -0.5233  0.3243 -0.2659
   7623SM   H7S10004   0.853   6.076   8.355  0.2513 -3.3762  2.3905
   7623SM   H7T10005   0.674   6.087   8.350 -0.0781 -0.1202  1.4269
   7623SM   C8S10006   0.775   6.045   8.162  0.2352 -0.3632  0.9881
   7623SM   H8S10007   0.874   6.004   8.133  0.4631  1.0674 -0.4557
   7623SM   H8T10008   0.764   6.154   8.143 -0.5409 -0.3603  1.4092
   7623SM   C9S10009   0.666   5.969   8.084  0.4512 -0.2768  0.0068
   7623SM   H9S10010   0.567   5.997   8.126 -0.5055  0.2885 -2.4588
   7623SM   H9T10011   0.676   5.860   8.106 -1.5115 -0.1495  1.8604
   7623SM  C10S10012   0.671   5.997   7.932  0.2742  0.2209 -0.5737
   7623SM  H10S10013   0.769   5.965   7.890 -0.8439 -0.2298 -3.0139
   7623SM  H10T10014   0.656   6.104   7.907  0.3073  0.2449 -0.4924
   7623SM  C11S10015   0.582   5.918   7.835  0.9999  0.7126  0.2666
   7623SM  H11S10016   0.479   5.958   7.844 -0.3501 -1.6199 -2.7470
   7623SM  H11T10017   0.578   5.809   7.853 -1.9303  0.6317 -0.3798
   7623SM  C12S10018   0.620   5.946   7.689 -0.3776  0.3753  0.2191
   7623SM  H12S10019   0.731   5.946   7.683  0.1669  2.7731  5.1774
   7623SM  H12T10020   0.597   6.051   7.664 -0.0889  0.5270  0.5821
   7623SM  C13S10021   0.546   5.843   7.602  0.0633 -0.0265 -0.2362
   7623SM  H13S10022   0.442   5.840   7.643  0.6017  0.2822  1.2067
   7623SM  H13T10023   0.595   5.745   7.619 -1.0028 -0.3936  0.9240
   7623SM  C14S10024   0.542   5.877   7.458 -0.1864 -0.8026 -0.1465
   7623SM  H14S10025   0.644   5.890   7.416  0.1059 -0.5088  0.6326
   7623SM  H14T10026   0.502   5.980   7.462 -0.5853 -0.9628  0.1070
   7623SM  C15S10027   0.452   5.793   7.366 -0.2916 -0.2813 -0.3364
   7623SM  H15S10028   0.348   5.822   7.392 -0.2442 -0.2438 -0.1874
   7623SM  H15T10029   0.460   5.685   7.390 -2.2866 -0.3774  0.0534
   7623SM  C16S10030   0.460   5.820   7.214  0.0075  0.4270 -0.3781
   7623SM  H16S10031   0.565   5.800   7.184  1.4741  0.6499  3.8651
   7623SM  H16T10032   0.424   5.924   7.200 -1.9292 -0.2015 -0.4011
   7623SM  C17S10033   0.376   5.716   7.136  0.7740  1.1405 -0.4688
   7623SM  H17S10034   0.269   5.712   7.164  1.3162  0.1413  1.6613
   7623SM  H17T10035   0.411   5.612   7.154 -1.5578  0.8661  4.1165
   7623SM  C18S10036   0.379   5.748   6.984 -0.1974 -0.6630  0.1274
   7623SM  H18S10037   0.355   5.855   6.967  0.7731 -0.3629  0.5927
   7623SM  H18T10038   0.323   5.675   6.921  1.3267 -1.1324 -0.7561
   7623SM  H18U10039   0.485   5.747   6.950  0.5545  3.7514  1.7210
   7623SM   C1F10040   1.188   5.887   8.724  0.2604  0.1388 -0.0687
   7623SM    OF10041   1.237   5.774   8.735  0.3737  0.2443  0.5736
   7623SM   C2F10042   1.275   6.004   8.700 -0.6130 -0.7827  0.2924
   7623SM   H2F10043   1.378   5.966   8.715 -0.8951 -1.6273  0.1722
   7623SM   H2G10044   1.258   6.087   8.772  2.2052 -1.8963  2.4517
   7623SM   C3F10045   1.262   6.079   8.562 -0.2472  0.0588 -0.0846
   7623SM   H3F10046   1.313   6.177   8.567 -1.7665  0.9112 -0.7314
   7623SM   H3G10047   1.154   6.101   8.551 -0.5192 -1.1947 -0.0788
   7623SM   C4F10048   1.306   5.989   8.444  0.2525  0.2316  1.0057
   7623SM   H4F10049   1.249   5.895   8.463 -2.4500  1.7889  1.2383
   7623SM   H4G10050   1.415   5.969   8.441  0.2690  0.1007  2.0464
   7623SM   C5F10051   1.268   6.039   8.301  0.4676  0.4728 -0.3322
   7623SM   H5F10052   1.322   6.136   8.291  0.0271  0.8985  1.2090
   7623SM   H5G10053   1.161   6.064   8.286  0.5966  1.7369  0.7568
   7623SM   C6F10054   1.314   5.929   8.197 -0.1325  0.3242 -0.3878
   7623SM   H6F10055   1.280   5.829   8.231 -1.7710  0.7254 -0.7513
   7623SM   H6G10056   1.425   5.926   8.196 -0.0735  1.5759 -1.4259
   7623SM   C7F10057   1.277   5.972   8.058  0.0273 -0.6447  0.5696
   7623SM   H7F10058   1.290   6.082   8.050  2.2793 -1.0081 -2.2704
   7623SM   H7G10059   1.171   5.949   8.034  0.1158  0.2817 -0.7810
   7623SM   C8F10060   1.355   5.875   7.964  0.2992 -0.3659  1.1756
   7623SM   H8F10061   1.325   5.768   7.973 -0.6892 -0.5183 -2.5066
   7623SM   H8G10062   1.465   5.886   7.973  0.4817  0.8782 -1.6963
   7623SM   C9F10063   1.312   5.900   7.816  0.3671  0.1069  0.5136
   7623SM   H9F10064   1.337   6.005   7.790  0.6163  0.1474  0.9072
   7623SM   H9G10065   1.203   5.885   7.798  0.3290  1.5202 -0.5442
   7623SM  C10F10066   1.391   5.802   7.729 -0.6207 -0.0725  0.4416
   7623SM  H10F10067   1.364   5.695   7.742  1.0588 -0.8134 -1.6532
   7623SM  H10G10068   1.496   5.812   7.765 -1.1521  1.3040  1.7824
   7623SM  C11F10069   1.382   5.845   7.580  0.3270 -0.4054  0.6229
   7623SM  H11F10070   1.469   5.810   7.520  0.7165 -0.5077  1.2352
   7623SM  H11G10071   1.366   5.951   7.553 -0.6405 -1.3291 -2.8231
   7623SM  C12F10072   1.263   5.776   7.509  0.5932  0.7948  0.3901
   7623SM  H12F10073   1.176   5.835   7.544 -1.2681 -0.9949 -1.0169
   7623SM  H12G10074   1.241   5.671   7.536 -2.4579  1.0243 -0.8191
   7623SM  C13F10075   1.252   5.794   7.352 -0.3689  0.2306 -0.0068
   7623SM  H13F10076   1.251   5.903   7.329  2.6921  0.4697  0.6220
   7623SM  H13G10077   1.154   5.750   7.322 -0.0427 -0.9220  0.5763
   7623SM  C14F10078   1.357   5.728   7.256  0.0536 -0.3776 -0.1118
   7623SM  H14F10079   1.355   5.619   7.275 -3.2055 -0.0129  2.6245
   7623SM  H14G10080   1.456   5.769   7.284 -0.1918 -0.1559  0.4409
   7623SM  C15F10081   1.344   5.760   7.108  0.3093 -0.2419  0.1626
   7623SM  H15F10082   1.432   5.726   7.049  1.2032  0.5312  1.0213
   7623SM  H15G10083   1.332   5.869   7.086  0.8539 -0.1676  0.2074
   7623SM  C16F10084   1.223   5.693   7.046  0.3071 -0.2689  0.2236
   7623SM  H16F10085   1.131   5.728   7.098  1.1347 -2.0687  3.1411
   7623SM  H16G10086   1.231   5.582   7.053 -0.1526 -0.3312 -0.1243
   7623SM  C17F10087   1.183   5.727   6.904  0.2662  0.3771  0.2048
   7623SM  H17F10088   1.249   5.673   6.834  0.2663 -0.8306  1.1102
   7623SM  H17G10089   1.193   5.838   6.895  2.0182  0.3295  1.0809
   7623SM  C18F10090   1.029   5.690   6.867 -0.4270 -0.5336 -0.4314
   7623SM  H18F10091   0.951   5.734   6.931 -0.9134 -0.0319 -1.3534
   7623SM  H18G10092   1.020   5.580   6.883  0.7473 -0.5319  0.3949
   7623SM  C19F10093   0.997   5.716   6.724 -0.3147  0.0465  0.0093
   7623SM  H19F10094   1.086   5.690   6.663 -0.0583 -0.3888  0.5622
   7623SM  H19G10095   0.978   5.824   6.710 -2.2817  0.1559  2.7558
   7623SM  C20F10096   0.882   5.629   6.676  0.8597 -1.1403  0.1543
   7623SM  H20F10097   0.888   5.525   6.716  0.6351 -1.8968 -1.6978
   7623SM  H20G10098   0.874   5.623   6.566 -2.1112  0.1751  0.2074
   7623SM  C21F10099   0.746   5.684   6.731 -0.3633 -0.4332 -0.2797
   7623SM  H21F10100   0.772   5.708   6.836  2.2026 -0.5763 -0.8068
   7623SM  H21G10101   0.658   5.617   6.736  0.2460 -1.1714  1.5826
   7623SM  C22F10102   0.699   5.809   6.655  0.2274 -0.5782 -0.6667
   7623SM  H22F10103   0.651   5.788   6.557 -2.5570  0.7214  0.3118
   7623SM  H22G10104   0.789   5.868   6.625  1.2330 -1.2061  1.0162
   7623SM  C23F10105   0.610   5.906   6.732  0.2717  0.1223  0.5013
   7623SM  H23F10106   0.506   5.866   6.733 -0.6739  2.4339  1.2528
   7623SM  H23G10107   0.614   6.004   6.680  0.8751  0.0805  0.4644
   7623SM  H23H10108   0.643   5.921   6.837  0.2788  0.9551  0.3882
   7723SM     N10109   0.928   3.543   9.074  0.0352  0.1736 -0.2133
   7723SM   C1510110   0.873   3.424   9.005  0.7215  0.0130  0.1345
   7723SM  H15A10111   0.769   3.440   8.979  0.1373 -0.5219  1.9524
   7723SM  H15B10112   0.866   3.339   9.071  0.6181 -0.3126 -0.2877
   7723SM  H15C10113   0.921   3.400   8.911 -0.2826  1.4614 -0.7823
   7723SM   C1410114   0.832   3.567   9.188  0.2745  0.4824 -0.3410
   7723SM  H14A10115   0.732   3.583   9.150  0.0689  1.4955  0.5906
   7723SM  H14B10116   0.853   3.650   9.254 -2.1628 -0.1827  1.4012
   7723SM  H14C10117   0.830   3.476   9.247 -1.9950  0.2769 -0.6316
   7723SM   C1310118   1.063   3.508   9.132  0.0081 -0.4865  0.2331
   7723SM  H13A10119   1.137   3.487   9.056  1.4619 -0.2665  1.5480
   7723SM  H13B10120   1.043   3.414   9.182 -2.0685 -0.5280 -0.5579
   7723SM  H13C10121   1.101   3.578   9.204  0.9706  1.3506 -1.9563
   7723SM   C1210122   0.944   3.663   8.976 -0.2842 -0.0062 -0.1709
   7723SM  H12A10123   0.977   3.750   9.031  0.6039  0.2813 -1.1342
   7723SM  H12B10124   0.850   3.681   8.925  0.8172  2.7313 -1.4155
   7723SM   C1110125   1.048   3.660   8.855  0.0329 -0.0739  0.0848
   7723SM  H11A10126   1.151   3.662   8.896  0.4306 -0.8844 -0.8412
   7723SM  H11B10127   1.052   3.753   8.794  3.4986  0.4506  0.8977
   7723SM     P10128   0.941   3.549   8.643 -0.2283  0.9136  0.1199
   7723SM   O1310129   0.898   3.411   8.616  0.7171 -0.3292 -0.5919
   7723SM   O1410130   0.829   3.645   8.655 -0.1390 -0.5807  0.2208
   7723SM   O1110131   1.041   3.610   8.538 -0.0442 -0.5296  0.1303
   7723SM   O1210132   1.032   3.542   8.770 -0.2787 -0.0021  0.4525
   7723SM   C1S10133   1.056   3.537   8.411  0.3520 -0.2001 -0.2869
   7723SM   H1S10134   0.957   3.522   8.362 -1.1121  0.8354  2.1670
   7723SM   H1T10135   1.097   3.435   8.430  1.7082  0.3792 -0.0597
   7723SM    NF10136   1.121   3.575   8.175 -0.6076  0.1264 -0.2802
   7723SM   HNF10137   1.169   3.497   8.137 -0.2085  0.7666 -1.1279
   7723SM   C2S10138   1.153   3.599   8.314 -0.0244 -0.0131  0.3243
   7723SM   H2S10139   1.149   3.709   8.327 -0.3852 -0.2180  2.2086
   7723SM   C3S10140   1.299   3.565   8.364  0.3056  0.2279  0.1271
   7723SM   H3S10141   1.313   3.455   8.373  0.0764  0.2872  1.4716
   7723SM    O310142   1.325   3.605   8.499 -0.0719  0.0122  0.2410
   7723SM   HO310143   1.241   3.643   8.525  0.4462  0.7230  0.9377
   7723SM   C4S10144   1.401   3.632   8.281  0.1028 -0.0227  0.5842
   7723SM   H4S10145   1.400   3.740   8.305 -0.8989 -0.2716  1.7424
   7723SM   C5S10146   1.499   3.578   8.210 -1.0066  0.5209 -0.1233
   7723SM   H5S10147   1.515   3.469   8.205  0.8400  0.7822 -0.8041
   7723SM   C6S10148   1.617   3.642   8.144 -0.1347 -0.2157 -0.0429
   7723SM   H6S10149   1.708   3.579   8.152 -1.2172 -1.7772  0.4052
   7723SM   H6T10150   1.639   3.739   8.193 -1.0143 -0.8377  1.6545
   7723SM   C7S10151   1.578   3.674   7.997  0.2079  0.5258 -0.2105
   7723SM   H7S10152   1.649   3.752   7.962  0.1321  0.9608  0.5687
   7723SM   H7T10153   1.480   3.727   7.999  0.0114  0.1470  0.8539
   7723SM   C8S10154   1.583   3.552   7.899 -0.0477  0.1921  0.2721
   7723SM   H8S10155   1.512   3.476   7.938 -0.1573 -0.7177 -1.5636
   7723SM   H8T10156   1.683   3.506   7.910 -0.1968  0.0038  0.8869
   7723SM   C9S10157   1.572   3.591   7.751  0.3240 -0.1945  0.3530
   7723SM   H9S10158   1.660   3.653   7.724 -1.2957  2.1504  0.2002
   7723SM   H9T10159   1.477   3.638   7.720  0.5427  0.4853  0.6754
   7723SM  C10S10160   1.588   3.467   7.663 -0.1324 -0.3959 -0.9742
   7723SM  H10S10161   1.506   3.399   7.694  0.1783 -0.2270  0.2702
   7723SM  H10T10162   1.678   3.409   7.692  0.6042  1.4628  0.7229
   7723SM  C11S10163   1.576   3.501   7.519  0.2111 -0.5338  0.2839
   7723SM  H11S10164   1.649   3.574   7.477 -0.8707  0.6550  0.4209
   7723SM  H11T10165   1.475   3.543   7.504  0.5704  0.4793  0.5927
   7723SM  C12S10166   1.564   3.375   7.432  0.6233 -0.6181  0.3978
   7723SM  H12S10167   1.476   3.316   7.466 -0.4839  0.3821 -0.6133
   7723SM  H12T10168   1.658   3.316   7.441 -0.1103 -1.6937  1.2431
   7723SM  C13S10169   1.549   3.407   7.281  0.7969 -0.1428 -0.2980
   7723SM  H13S10170   1.626   3.481   7.252 -1.0059  1.7209 -0.6076
   7723SM  H13T10171   1.448   3.448   7.259  0.2686  1.0215  3.4656
   7723SM  C14S10172   1.561   3.292   7.181  0.4870  0.0196  0.7421
   7723SM  H14S10173   1.487   3.214   7.208  0.9551 -0.3815  0.8895
   7723SM  H14T10174   1.667   3.257   7.184  1.1270  1.8482  0.7272
   7723SM  C15S10175   1.532   3.338   7.039 -0.0560  0.1883  0.1160
   7723SM  H15S10176   1.595   3.422   7.001  0.4279  0.4082  1.3446
   7723SM  H15T10177   1.435   3.392   7.045 -0.0531  0.0790  1.4521
   7723SM  C16S10178   1.519   3.225   6.933 -0.2874 -0.0842 -1.0218
   7723SM  H16S10179   1.475   3.270   6.842 -1.6936  1.2484  0.2489
   7723SM  H16T10180   1.447   3.148   6.968  0.8373 -1.7790 -2.2676
   7723SM  C17S10181   1.664   3.168   6.918 -0.0942 -0.1500  0.1125
   7723SM  H17S10182   1.690   3.112   7.010 -0.6121 -1.4987 -0.5252
   7723SM  H17T10183   1.738   3.247   6.895  0.2595  0.3534  2.7133
   7723SM  C18S10184   1.666   3.060   6.810 -0.3123 -0.3696 -0.7539
   7723SM  H18S10185   1.608   2.969   6.833  1.7940 -1.2031  1.7028
   7723SM  H18T10186   1.771   3.023   6.807  0.7138  2.1165  0.6706
   7723SM  H18U10187   1.622   3.091   6.713 -1.8744 -1.1548 -0.3316
   7723SM   C1F10188   1.015   3.635   8.117  0.1201  0.3107 -0.7039
   7723SM    OF10189   0.924   3.682   8.186  0.2265 -0.8003  0.1347
   7723SM   C2F10190   1.015   3.648   7.971 -0.1041 -0.1285  0.7251
   7723SM   H2F10191   1.061   3.744   7.941  1.0775 -1.7024 -3.0808
   7723SM   H2G10192   0.910   3.646   7.934 -0.3343 -0.7612  1.3835
   7723SM   C3F10193   1.088   3.538   7.896  0.1787  0.3396  0.1873
   7723SM   H3F10194   1.067   3.439   7.940  0.3793 -0.0529 -0.5812
   7723SM   H3G10195   1.196   3.557   7.912  0.5517 -1.9527  0.7204
   7723SM   C4F10196   1.046   3.549   7.746 -1.2682  0.6894 -0.4446
   7723SM   H4F10197   1.081   3.644   7.701  3.3906  1.0883  3.2739
   7723SM   H4G10198   0.935   3.539   7.737 -1.2661 -1.4487  1.0594
   7723SM   C5F10199   1.112   3.436   7.668  0.4038  0.2097  0.3177
   7723SM   H5F10200   1.077   3.337   7.703  2.4383 -1.0359 -1.0268
   7723SM   H5G10201   1.222   3.439   7.682  0.4470 -2.7726  1.2302
   7723SM   C6F10202   1.076   3.458   7.525  0.2498  0.2154  0.4827
   7723SM   H6F10203   1.118   3.548   7.477  0.9040 -1.6433 -2.7451
   7723SM   H6G10204   0.967   3.470   7.508  0.1795 -0.3570  0.4867
   7723SM   C7F10205   1.131   3.339   7.444 -0.2270  0.3542  0.4856
   7723SM   H7F10206   1.073   3.252   7.482 -0.1685  0.3112  0.4780
   7723SM   H7G10207   1.235   3.324   7.482  1.2172  2.0441 -2.4477
   7723SM   C8F10208   1.131   3.344   7.295 -0.2095 -0.5253 -0.0776
   7723SM   H8F10209   1.178   3.257   7.245 -0.0515 -0.5126  0.0476
   7723SM   H8G10210   1.181   3.439   7.267 -1.3616  0.1323  0.0399
   7723SM   C9F10211   0.988   3.361   7.235 -0.0680 -0.6037 -0.3980
   7723SM   H9F10212   0.932   3.439   7.292 -0.4138 -1.5781  0.6448
   7723SM   H9G10213   0.928   3.268   7.246  1.0726 -1.1333  2.2981
   7723SM  C10F10214   1.001   3.420   7.095 -0.0896  0.1858 -0.0522
   7723SM  H10F10215   1.076   3.501   7.104 -2.7266  2.7127  0.5421
   7723SM  H10G10216   0.899   3.460   7.079 -0.3513  0.1467  1.4293
   7723SM  C11F10217   1.054   3.323   6.988 -0.3190 -0.0929 -0.0860
   7723SM  H11F10218   1.013   3.222   7.012 -0.1906 -0.7486 -2.3014
   7723SM  H11G10219   1.165   3.319   6.981 -0.1807  1.2765  1.1471
   7723SM  C12F10220   1.018   3.358   6.847 -0.3882 -0.4720 -0.1259
   7723SM  H12F10221   1.039   3.466   6.834  1.8666 -0.5243  2.1856
   7723SM  H12G10222   0.910   3.342   6.831  0.2240 -1.9824 -3.6011
   7723SM  C13F10223   1.084   3.276   6.736 -0.3359  0.0012  0.0872
   7723SM  H13F10224   1.010   3.249   6.658 -1.3803 -3.4455  2.0844
   7723SM  H13G10225   1.105   3.177   6.782  1.3414  0.8044  1.1582
   7723SM  C14F10226   1.214   3.326   6.676  0.1035  0.3816 -0.3017
   7723SM  H14F10227   1.297   3.340   6.749 -1.4650  3.0550  1.1121
   7723SM  H14G10228   1.193   3.424   6.628 -0.5273 -0.5340 -1.9946
   7723SM  C15F10229   1.277   3.227   6.577 -1.1198 -0.0384  1.1286
   7723SM  H15F10230   1.191   3.192   6.516  0.1597  0.8181 -1.3121
   7723SM  H15G10231   1.313   3.135   6.627 -0.9854 -0.9322 -0.5638
   7723SM  C16F10232   1.395   3.286   6.490  0.2519  0.0021 -0.2251
   7723SM  H16F10233   1.477   3.319   6.557  0.5678 -0.9086 -0.1529
   7723SM  H16G10234   1.346   3.378   6.449 -0.8083 -1.1349 -1.6115
   7723SM  C17F10235   1.452   3.190   6.380  0.3390 -0.5721  0.7982
   7723SM  H17F10236   1.541   3.238   6.334  1.2897 -1.7694  1.3299
   7723SM  H17G10237   1.377   3.180   6.300  0.0883  0.4999  0.8903
   7723SM  C18F10238   1.501   3.052   6.427 -0.7623 -0.3565  0.6958
   7723SM  H18F10239   1.407   3.013   6.471 -0.5081 -0.6322  0.9921
   7723SM  H18G10240   1.579   3.066   6.504  0.9935 -1.1480 -0.8517
   7723SM  C19F10241   1.550   2.952   6.321 -0.3901  0.4269 -0.0247
   7723SM  H19F10242   1.605   3.003   6.239 -1.4009  0.8741 -0.4464
   7723SM  H19G10243   1.458   2.914   6.272 -0.2244  1.1223 -0.9021
   7723SM  C20F10244   1.641   2.846   6.379  0.0392  0.0197 -0.2546
   7723SM  H20F10245   1.738   2.893   6.405 -0.0145  0.4062 -0.7542
   7723SM  H20G10246   1.667   2.778   6.294 -3.3029 -3.7076  1.3867
   7723SM  C21F10247   1.578   2.768   6.496 -0.4943  0.3694  0.1401
   7723SM  H21F10248   1.495   2.703   6.460  2.1961 -1.6005 -3.1478
   7723SM  H21G10249   1.531   2.836   6.570 -0.6032 -1.2604  1.6568
   7723SM  C22F10250   1.681   2.684   6.576  0.6068 -0.0180 -0.1254
   7723SM  H22F10251   1.750   2.758   6.623  1.0288 -0.3613 -0.2041
   7723SM  H22G10252   1.726   2.606   6.512 -0.9227 -2.1930  1.3242
   7723SM  C23F10253   1.614   2.605   6.689 -0.3451 -0.3923  0.0303
   7723SM  H23F10254   1.579   2.674   6.769 -0.2390 -1.3528  0.9227
   7723SM  H23G10255   1.682   2.529   6.731 -1.0636 -1.5698 -0.8740
   7723SM  H23H10256   1.528   2.543   6.655  0.2500 -0.3562 -1.6459
   7823SM     N10257   0.915   0.455   9.568  0.6815 -0.3801 -0.5517
   7823SM   C1510258   0.858   0.412   9.440  0.4441 -0.0370  0.1223
   7823SM  H15A10259   0.820   0.311   9.438  0.2120  0.0531 -1.2522
   7823SM  H15B10260   0.933   0.409   9.362 -1.5655 -3.1405 -1.9010
   7823SM  H15C10261   0.776   0.477   9.415 -0.0197 -0.2487  1.0679
   7823SM   C1410262   0.798   0.452   9.669 -0.3598 -0.7032 -0.3245
   7823SM  H14A10263   0.737   0.540   9.653  1.1142  0.7442  1.4781
   7823SM  H14B10264   0.833   0.466   9.770 -2.1006 -0.3641  0.2794
   7823SM  H14C10265   0.744   0.359   9.667  0.4944 -1.2608  1.1733
   7823SM   C1310266   1.018   0.362   9.620  0.3348  0.4699 -0.3802
   7823SM  H13A10267   1.092   0.350   9.543 -0.0869  0.0110 -0.7194
   7823SM  H13B10268   0.976   0.265   9.640 -0.0137  0.8404  0.7540
   7823SM  H13C10269   1.056   0.393   9.717 -2.3831 -1.2996  1.3977
   7823SM   C1210270   0.968   0.595   9.569 -0.4779 -0.5481  0.8935
   7823SM  H12A10271   0.993   0.627   9.669  0.8953 -0.9896  0.7019
   7823SM  H12B10272   0.891   0.654   9.520  2.0542  2.3198  0.0281
   7823SM   C1110273   1.089   0.624   9.473 -0.6474  0.3479  0.3526
   7823SM  H11A10274   1.154   0.535   9.480 -1.4100 -0.2204  0.3742
   7823SM  H11B10275   1.141   0.717   9.503 -0.4005  0.5355 -0.6175
   7823SM     P10276   0.943   0.723   9.272 -0.5593 -0.3319 -0.3505
   7823SM   O1310277   0.817   0.722   9.347  0.3177 -0.5142  0.4515
   7823SM   O1410278   1.021   0.852   9.252  0.2622 -0.1164 -0.4798
   7823SM   O1110279   0.917   0.661   9.133  0.0247  0.3580  0.5716
   7823SM   O1210280   1.045   0.627   9.336  0.1678  0.3634  0.2077
   7823SM   C1S10281   1.028   0.604   9.063  0.1121  0.2746  0.2293
   7823SM   H1S10282   1.068   0.511   9.110 -1.1535  0.0137  0.8301
   7823SM   H1T10283   1.114   0.673   9.046 -1.0078  1.4900 -0.6529
   7823SM    NF10284   1.111   0.493   8.866  0.2990  0.4469  0.2269
   7823SM   HNF10285   1.177   0.543   8.811 -1.6058  0.9686 -1.7796
   7823SM   C2S10286   0.997   0.566   8.913  0.7184  0.5325 -1.1755
   7823SM   H2S10287   0.912   0.496   8.927  0.3451  1.3261  0.9417
   7823SM   C3S10288   0.958   0.691   8.835 -0.6519  0.7450  0.0955
   7823SM   H3S10289   1.039   0.766   8.850 -0.3885  0.2390  1.3609
   7823SM    O310290   0.851   0.762   8.887  0.2177  0.0004 -0.0810
   7823SM   HO310291   0.860   0.746   8.981 -3.2579 -1.6937  0.1439
   7823SM   C4S10292   0.945   0.651   8.692 -0.2599  0.5202 -0.4408
   7823SM   H4S10293   1.038   0.664   8.634 -0.5890  0.7006 -0.9427
   7823SM   C5S10294   0.837   0.605   8.625 -0.4582  0.1091  0.3244
   7823SM   H5S10295   0.743   0.592   8.680 -0.7719  1.7705  0.2057
   7823SM   C6S10296   0.826   0.576   8.474  0.2679  0.6567 -0.6310
   7823SM   H6S10297   0.754   0.651   8.434  1.3512  2.1343  0.0968
   7823SM   H6T10298   0.774   0.479   8.463  1.2526  0.0935 -0.4040
   7823SM   C7S10299   0.961   0.563   8.406 -1.0702  0.6392  0.3837
   7823SM   H7S10300   1.026   0.480   8.440 -0.2808  0.4530 -1.4309
   7823SM   H7T10301   1.022   0.654   8.427  0.7381 -0.2510 -0.7026
   7823SM   C8S10302   0.948   0.539   8.253 -0.7101  0.2320 -0.2009
   7823SM   H8S10303   0.884   0.622   8.216 -1.1675 -0.8994 -2.0628
   7823SM   H8T10304   0.888   0.449   8.225 -0.5968  0.1522 -0.1879
   7823SM   C9S10305   1.085   0.533   8.192 -0.3161  0.6284  0.4476
   7823SM   H9S10306   1.122   0.432   8.221 -1.1586 -0.0535 -0.7632
   7823SM   H9T10307   1.136   0.624   8.229  0.2301 -0.6206  3.0638
   7823SM  C10S10308   1.076   0.530   8.041 -0.3111 -0.1826  0.1084
   7823SM  H10S10309   1.046   0.627   7.996 -0.1679 -0.0749  0.2438
   7823SM  H10T10310   1.005   0.449   8.016 -2.0010  1.4759 -0.7245
   7823SM  C11S10311   1.215   0.497   7.982  0.8495 -0.5213  0.4668
   7823SM  H11S10312   1.254   0.405   8.030  1.0347 -0.7989 -0.2021
   7823SM  H11T10313   1.286   0.580   8.002 -0.0047  0.0418  1.2489
   7823SM  C12S10314   1.227   0.468   7.830  0.5804  0.2553 -0.1437
   7823SM  H12S10315   1.166   0.377   7.813  1.9645 -0.8147  0.3717
   7823SM  H12T10316   1.332   0.441   7.804  1.1502  2.4221 -0.3261
   7823SM  C13S10317   1.188   0.584   7.730  0.9203  0.0457 -0.6959
   7823SM  H13S10318   1.263   0.661   7.756  0.7220 -0.8239  2.9202
   7823SM  H13T10319   1.093   0.623   7.771  2.0474 -0.5441  2.7801
   7823SM  C14S10320   1.192   0.531   7.590 -0.0467 -0.4193  0.3237
   7823SM  H14S10321   1.109   0.458   7.582 -0.7397  0.2828  1.0237
   7823SM  H14T10322   1.282   0.479   7.550 -0.2890 -0.9574  0.4724
   7823SM  C15S10323   1.157   0.646   7.489 -0.5841 -0.0604  1.2223
   7823SM  H15S10324   1.236   0.723   7.487  0.2398 -0.6133 -4.6137
   7823SM  H15T10325   1.066   0.687   7.537  0.1660 -0.6392  3.2231
   7823SM  C16S10326   1.128   0.591   7.344  0.0091 -0.1889 -1.4471
   7823SM  H16S10327   1.083   0.673   7.284 -0.5046 -1.0904 -2.3050
   7823SM  H16T10328   1.050   0.514   7.356 -1.1142  1.1852  0.7450
   7823SM  C17S10329   1.238   0.519   7.262 -0.2853 -0.9082  0.4402
   7823SM  H17S10330   1.307   0.460   7.325 -0.1386 -3.5652 -2.0021
   7823SM  H17T10331   1.297   0.601   7.215 -1.3682 -2.0975 -3.3266
   7823SM  C18S10332   1.179   0.433   7.152  0.9649  0.5471 -0.6832
   7823SM  H18S10333   1.110   0.492   7.087 -0.6791 -0.1166  0.3761
   7823SM  H18T10334   1.132   0.348   7.206  2.3280 -0.3030 -0.7815
   7823SM  H18U10335   1.260   0.400   7.084  1.8863  0.3924  0.4679
   7823SM   C1F10336   1.133   0.367   8.897 -0.5392 -0.1716 -0.3590
   7823SM    OF10337   1.052   0.298   8.953  0.2065 -0.0661 -0.2494
   7823SM   C2F10338   1.282   0.324   8.874 -0.0054  0.0612  0.7370
   7823SM   H2F10339   1.329   0.323   8.974 -0.1741  0.3374  0.8209
   7823SM   H2G10340   1.332   0.412   8.828  0.6019 -0.4398  0.4076
   7823SM   C3F10341   1.305   0.203   8.777 -0.4633  0.1261 -0.9875
   7823SM   H3F10342   1.242   0.124   8.824 -0.1834  0.5425  0.1112
   7823SM   H3G10343   1.411   0.173   8.790 -0.5717  0.6101  1.6781
   7823SM   C4F10344   1.274   0.241   8.633 -0.6181 -0.2553 -0.7636
   7823SM   H4F10345   1.305   0.347   8.615 -1.9567  0.4286  0.7088
   7823SM   H4G10346   1.164   0.244   8.621 -0.7811  1.2579  0.7537
   7823SM   C5F10347   1.348   0.144   8.535  0.4634 -0.0293 -0.5282
   7823SM   H5F10348   1.321   0.039   8.560 -0.4451  0.4817  0.7628
   7823SM   H5G10349   1.456   0.165   8.549  0.2533  1.4719 -0.9717
   7823SM   C6F10350   1.316   0.175   8.385  0.3723 -0.4978  0.7952
   7823SM   H6F10351   1.334   0.278   8.348  1.5581 -1.2802 -0.9649
   7823SM   H6G10352   1.207   0.156   8.375  0.3890 -0.2029  0.0050
   7823SM   C7F10353   1.391   0.082   8.281 -0.2522 -0.0408  0.2817
   7823SM   H7F10354   1.348  -0.020   8.273  1.4951 -1.0950  3.0330
   7823SM   H7G10355   1.498   0.070   8.304  0.3335  1.5063 -1.3498
   7823SM   C8F10356   1.384   0.153   8.137 -0.2276  0.8500 -0.5145
   7823SM   H8F10357   1.443   0.247   8.137  0.3327  0.5357 -2.0483
   7823SM   H8G10358   1.276   0.171   8.118 -0.9105 -0.9306  1.3514
   7823SM   C9F10359   1.432   0.067   8.022  1.3687 -0.3199 -0.3764
   7823SM   H9F10360   1.363  -0.019   8.010  1.0690  0.0601 -1.5304
   7823SM   H9G10361   1.529   0.018   8.047  0.9646 -0.1272  1.7481
   7823SM  C10F10362   1.425   0.142   7.890 -0.8327 -0.0484 -0.1079
   7823SM  H10F10363   1.493   0.230   7.897 -0.4141  0.0697 -3.7465
   7823SM  H10G10364   1.319   0.176   7.890 -0.8753 -0.1602  0.7660
   7823SM  C11F10365   1.464   0.052   7.769 -0.0584  0.2782 -0.5838
   7823SM  H11F10366   1.396  -0.034   7.756 -1.8424  1.5114  0.1967
   7823SM  H11G10367   1.560   0.000   7.792  0.0838  0.4380 -0.8027
   7823SM  C12F10368   1.484   0.142   7.643 -0.4896  0.0366 -0.3238
   7823SM  H12F10369   1.448   0.245   7.668 -1.0877 -0.8564  2.8950
   7823SM  H12G10370   1.418   0.109   7.559  0.6669  0.7373 -1.5383
   7823SM  C13F10371   1.627   0.151   7.586 -0.1567  0.3348 -0.4767
   7823SM  H13F10372   1.638   0.192   7.484 -0.0243 -0.7618 -0.9233
   7823SM  H13G10373   1.668   0.047   7.577 -1.3345 -0.3539  1.4731
   7823SM  C14F10374   1.726   0.232   7.679  0.7007  0.2696  0.4662
   7823SM  H14F10375   1.734   0.165   7.767 -0.7553  0.4473  0.7650
   7823SM  H14G10376   1.685   0.332   7.706 -1.7479  0.0867 -2.1486
   7823SM  C15F10377   1.865   0.248   7.616  0.5885  0.4594  0.0854
   7823SM  H15F10378   1.854   0.329   7.541 -0.3605  0.6103  0.3842
   7823SM  H15G10379   1.901   0.157   7.562  0.4508  1.7820 -2.3614
   7823SM  C16F10380   1.968   0.278   7.725 -0.8888 -0.0552  0.5483
   7823SM  H16F10381   2.074   0.279   7.691 -0.8299  2.1480  0.6270
   7823SM  H16G10382   1.961   0.196   7.799  1.1919  0.5900  1.5422
   7823SM  C17F10383   1.952   0.403   7.804 -0.1565  0.1560 -0.2870
   7823SM  H17F10384   1.850   0.416   7.845 -0.0367 -0.2056  0.1337
   7823SM  H17G10385   1.953   0.497   7.744  1.1725  0.7379  0.5709
   7823SM  C18F10386   2.064   0.409   7.911 -0.0659 -0.1546 -0.1006
   7823SM  H18F10387   2.163   0.431   7.865 -0.5836 -0.3901 -1.3614
   7823SM  H18G10388   2.067   0.312   7.966 -0.5122 -0.6631 -0.9563
   7823SM  C19F10389   2.036   0.518   8.013 -0.3664  0.2834 -0.3389
   7823SM  H19F10390   1.927   0.514   8.034 -0.0240 -1.4219  1.4236
   7823SM  H19G10391   2.048   0.618   7.965 -0.5537 -0.1599 -1.3315
   7823SM  C20F10392   2.126   0.513   8.131  0.3306 -0.3200 -0.3397
   7823SM  H20F10393   2.234   0.515   8.104 -0.3429 -0.7697 -3.3868
   7823SM  H20G10394   2.103   0.419   8.186 -1.4607  1.1007  1.4520
   7823SM  C21F10395   2.088   0.626   8.230 -0.1046  0.2974  0.5669
   7823SM  H21F10396   1.976   0.626   8.232 -0.2198 -2.4712 -0.6047
   7823SM  H21G10397   2.124   0.723   8.191  0.7988 -0.2096  0.1263
   7823SM  C22F10398   2.140   0.584   8.370 -0.4101 -0.2786  0.0727
   7823SM  H22F10399   2.096   0.485   8.395 -1.1663  0.0642  0.1303
   7823SM  H22G10400   2.106   0.661   8.443 -1.1393 -1.0966  0.6225
   7823SM  C23F10401   2.286   0.557   8.387  0.0918 -0.3125 -0.1383
   7823SM  H23F10402   2.344   0.648   8.360  0.9141 -0.7375  0.1783
   7823SM  H23G10403   2.321   0.476   8.320  0.1181 -0.5896  0.2111
   7823SM  H23H10404   2.309   0.531   8.492 -0.8209 -0.2999  0.0739
   7923SM     N10405   5.723   2.267   8.564  0.1952  0.2529 -0.4728
   7923SM   C1510406   5.610   2.353   8.614  0.3506 -0.4452  0.2225
   7923SM  H15A10407   5.605   2.348   8.722 -1.4426  1.4027  0.2795
   7923SM  H15B10408   5.517   2.328   8.566  1.7169 -1.2676 -2.1494
   7923SM  H15C10409   5.633   2.457   8.597  0.0748 -0.6368 -1.4632
   7923SM   C1410410   5.677   2.131   8.578  0.0476  0.4223  0.2450
   7923SM  H14A10411   5.751   2.054   8.593  1.0520  1.7006  2.3280
   7923SM  H14B10412   5.629   2.100   8.487  2.6474 -2.0374 -0.4350
   7923SM  H14C10413   5.602   2.114   8.654  1.3208 -1.2496  1.2113
   7923SM   C1310414   5.754   2.292   8.418  0.2049  0.5185  0.7855
   7923SM  H13A10415   5.806   2.205   8.382 -0.0326 -0.6103  3.0292
   7923SM  H13B10416   5.802   2.388   8.406  0.1379  0.6043  1.1902
   7923SM  H13C10417   5.664   2.287   8.358  0.7883 -0.0696 -0.0566
   7923SM   C1210418   5.859   2.295   8.648 -0.2061  0.1840  0.4456
   7923SM  H12A10419   5.839   2.280   8.754  0.3365 -0.0413  0.5214
   7923SM  H12B10420   5.893   2.392   8.617  0.9770 -0.6439 -0.9517
   7923SM   C1110421   5.984   2.200   8.622 -0.0984  0.4258  0.1054
   7923SM  H11A10422   5.952   2.094   8.620 -0.8278  0.6061  1.1824
   7923SM  H11B10423   6.051   2.203   8.711  0.4419 -3.6612  0.0414
   7923SM     P10424   6.133   2.359   8.495  0.3893  0.0557  0.7364
   7923SM   O1310425   6.043   2.470   8.533 -0.2435 -0.3779 -0.4106
   7923SM   O1410426   6.256   2.344   8.575  0.8889  0.4304  0.2781
   7923SM   O1110427   6.172   2.379   8.346 -0.1289  0.1390 -0.8488
   7923SM   O1210428   6.055   2.229   8.501 -0.3774  0.3725  0.4760
   7923SM   C1S10429   6.102   2.321   8.245  0.2955 -0.3928  0.6113
   7923SM   H1S10430   5.995   2.300   8.265  0.5223 -4.7447 -1.6099
   7923SM   H1T10431   6.144   2.223   8.215 -0.4450 -0.5978  0.2444
   7923SM    NF10432   6.024   2.336   8.015  0.2268 -0.7502 -0.0345
   7923SM   HNF10433   6.077   2.275   7.957  0.1036 -3.2823  2.2864
   7923SM   C2S10434   6.104   2.404   8.114  0.4569 -0.2493 -0.1837
   7923SM   H2S10435   6.051   2.499   8.134  0.6373 -0.2166  0.1490
   7923SM   C3S10436   6.252   2.447   8.077 -0.3050 -0.6086 -0.2589
   7923SM   H3S10437   6.318   2.359   8.063  0.1262  0.0579 -3.0687
   7923SM    O310438   6.308   2.525   8.181  0.0324 -0.1739  0.2510
   7923SM   HO310439   6.263   2.495   8.261  0.7766  0.0102  0.7533
   7923SM   C4S10440   6.245   2.525   7.944 -0.0984 -0.3116 -0.0332
   7923SM   H4S10441   6.266   2.460   7.858 -2.2605 -2.2093  0.7793
   7923SM   C5S10442   6.202   2.655   7.932  0.0410  0.3663  0.1604
   7923SM   H5S10443   6.174   2.718   8.017 -0.2921  3.5257 -2.0994
   7923SM   C6S10444   6.202   2.729   7.798 -0.1903 -0.1300  0.3342
   7923SM   H6S10445   6.278   2.811   7.796 -0.5618  0.2571  1.3318
   7923SM   H6T10446   6.103   2.774   7.777  0.3342  0.7525 -0.3378
   7923SM   C7S10447   6.197   2.645   7.677  0.7522  0.0933  0.0126
   7923SM   H7S10448   6.113   2.575   7.695 -0.3751  1.7198  1.3743
   7923SM   H7T10449   6.293   2.589   7.673  0.9581  0.4037  0.5241
   7923SM   C8S10450   6.183   2.715   7.547 -0.0042 -0.5541  0.3605
   7923SM   H8S10451   6.254   2.800   7.541  0.0061 -0.5280  0.8071
   7923SM   H8T10452   6.082   2.760   7.532 -0.0052 -1.3851 -2.9429
   7923SM   C9S10453   6.195   2.627   7.421  0.3146 -0.3796  0.0759
   7923SM   H9S10454   6.118   2.547   7.431 -0.2135  0.1081 -0.0585
   7923SM   H9T10455   6.299   2.588   7.428  0.3214  0.0083  3.5672
   7923SM  C10S10456   6.161   2.706   7.295  0.0417  0.1669 -0.5636
   7923SM  H10S10457   6.228   2.792   7.272 -1.1778  1.1736 -0.4907
   7923SM  H10T10458   6.070   2.766   7.316  0.3409  0.1020  1.0382
   7923SM  C11S10459   6.133   2.625   7.162 -0.9326  0.0245 -1.2529
   7923SM  H11S10460   6.055   2.555   7.199  0.3431 -0.8283 -0.0821
   7923SM  H11T10461   6.228   2.573   7.135  0.0738  0.2581  1.5309
   7923SM  C12S10462   6.086   2.713   7.042 -0.4015 -0.0755  0.3808
   7923SM  H12S10463   6.158   2.797   7.030 -0.6244 -0.1116 -1.6201
   7923SM  H12T10464   5.987   2.747   7.078 -0.1594  0.3801  0.6286
   7923SM  C13S10465   6.078   2.639   6.915 -0.3213 -0.1581 -0.1315
   7923SM  H13S10466   6.005   2.558   6.935  0.1909 -0.6792 -0.3515
   7923SM  H13T10467   6.176   2.598   6.883 -1.3476 -1.6302 -1.5723
   7923SM  C14S10468   6.008   2.710   6.796  0.2220  1.3952 -0.2474
   7923SM  H14S10469   6.038   2.811   6.760 -0.5385  0.6648 -3.2174
   7923SM  H14T10470   5.903   2.732   6.827 -0.6776 -1.6983 -0.7733
   7923SM  C15S10471   5.988   2.610   6.683 -0.6290 -0.4540 -0.5925
   7923SM  H15S10472   5.918   2.531   6.718  0.0013 -0.0090  1.8156
   7923SM  H15T10473   6.083   2.554   6.673 -0.8600 -1.0387  0.3819
   7923SM  C16S10474   5.951   2.674   6.543  0.4464  0.1716 -0.3891
   7923SM  H16S10475   6.046   2.724   6.513  1.7533 -0.9546  1.6519
   7923SM  H16T10476   5.859   2.737   6.539 -0.3258 -0.9688 -3.5075
   7923SM  C17S10477   5.935   2.561   6.437  0.4445 -0.4494  0.1633
   7923SM  H17S10478   5.856   2.489   6.467  0.8434 -1.6520 -1.5040
   7923SM  H17T10479   6.029   2.501   6.443  0.2994 -0.7155 -0.1979
   7923SM  C18S10480   5.905   2.614   6.295  0.1163 -0.7498  0.6816
   7923SM  H18S10481   5.850   2.536   6.239 -0.3257 -1.4338  2.0126
   7923SM  H18T10482   5.999   2.648   6.246 -0.8285  1.2456  0.1547
   7923SM  H18U10483   5.850   2.711   6.295 -0.6643 -1.1824 -0.1800
   7923SM   C1F10484   5.892   2.318   8.022 -0.7408 -0.1411  0.9236
   7923SM    OF10485   5.822   2.372   8.103 -0.1703  0.3868 -0.1663
   7923SM   C2F10486   5.836   2.236   7.918  0.5388  0.7540 -0.0123
   7923SM   H2F10487   5.733   2.207   7.946  0.3725  0.1090 -1.2438
   7923SM   H2G10488   5.889   2.138   7.916 -0.9789 -0.1046  0.5583
   7923SM   C3F10489   5.835   2.305   7.781 -0.1820 -0.1731  0.5692
   7923SM   H3F10490   5.787   2.230   7.714 -2.8842  0.0165  2.1596
   7923SM   H3G10491   5.935   2.318   7.734  0.9152 -1.1686  2.5185
   7923SM   C4F10492   5.758   2.433   7.778 -0.2343  0.1740 -0.0666
   7923SM   H4F10493   5.760   2.484   7.877  1.0464  0.7672 -0.3709
   7923SM   H4G10494   5.656   2.400   7.751 -0.0383 -1.2152  0.7969
   7923SM   C5F10495   5.805   2.537   7.676 -0.7284 -0.0449 -0.2332
   7923SM   H5F10496   5.916   2.541   7.677 -0.7166 -0.2129 -0.6472
   7923SM   H5G10497   5.774   2.642   7.691  1.3050  0.5621 -0.0629
   7923SM   C6F10498   5.749   2.505   7.534 -0.0495  0.2014  0.0433
   7923SM   H6F10499   5.639   2.511   7.550 -0.5525  0.0943 -2.8239
   7923SM   H6G10500   5.764   2.403   7.494  0.0119  0.0976  0.3246
   7923SM   C7F10501   5.802   2.615   7.436  0.0799  0.2243  0.6295
   7923SM   H7F10502   5.911   2.635   7.437  0.0361  1.0761 -2.3727
   7923SM   H7G10503   5.746   2.708   7.460 -2.7059 -0.7008 -1.6526
   7923SM   C8F10504   5.766   2.584   7.289  0.2308  0.8848  0.4588
   7923SM   H8F10505   5.816   2.488   7.263 -0.7527  0.8730 -1.5948
   7923SM   H8G10506   5.814   2.663   7.227  3.1620 -0.3146  1.0147
   7923SM   C9F10507   5.619   2.553   7.249  1.0827  0.5119 -0.4160
   7923SM   H9F10508   5.557   2.644   7.262 -0.0399 -0.5115  2.0944
   7923SM   H9G10509   5.581   2.485   7.328  3.9358 -0.2750  0.3861
   7923SM  C10F10510   5.598   2.491   7.113  0.0479 -0.2414  0.2048
   7923SM  H10F10511   5.495   2.456   7.093 -0.4832  1.9468 -1.1988
   7923SM  H10G10512   5.661   2.400   7.108  0.1528 -0.3448  2.4149
   7923SM  C11F10513   5.615   2.591   6.999 -0.1632  0.3561  0.3302
   7923SM  H11F10514   5.704   2.656   7.013 -0.7680  1.4743 -0.8703
   7923SM  H11G10515   5.541   2.672   7.012 -0.3022  0.2550  0.1649
   7923SM  C12F10516   5.602   2.532   6.861 -0.6627  0.2822  0.4385
   7923SM  H12F10517   5.510   2.470   6.854  0.6278 -1.5800 -1.4763
   7923SM  H12G10518   5.685   2.467   6.826 -0.6317  1.5895 -2.1927
   7923SM  C13F10519   5.578   2.645   6.753 -0.1469 -0.0144 -1.1730
   7923SM  H13F10520   5.663   2.717   6.756 -0.4866  0.3621  0.5188
   7923SM  H13G10521   5.489   2.693   6.799 -0.0448 -2.4566  1.9218
   7923SM  C14F10522   5.559   2.575   6.616 -0.4638 -0.3758  0.2634
   7923SM  H14F10523   5.482   2.495   6.611  1.0662 -1.9197  0.6198
   7923SM  H14G10524   5.655   2.527   6.588  1.0398  3.7431 -2.5468
   7923SM  C15F10525   5.514   2.674   6.504 -0.1318  0.0900  0.7742
   7923SM  H15F10526   5.588   2.756   6.515 -1.2742  1.1049  1.1149
   7923SM  H15G10527   5.413   2.709   6.533 -0.4887 -0.6405  0.4458
   7923SM  C16F10528   5.525   2.618   6.361 -0.0147 -0.4551 -0.9140
   7923SM  H16F10529   5.433   2.562   6.335  1.7501 -2.9331 -2.1976
   7923SM  H16G10530   5.611   2.548   6.347 -0.6926 -1.0733 -2.0652
   7923SM  C17F10531   5.522   2.728   6.249 -0.1151  0.2225 -0.3665
   7923SM  H17F10532   5.619   2.779   6.266 -1.2315  1.9876  0.9289
   7923SM  H17G10533   5.456   2.816   6.264 -1.4585 -0.1669 -3.1928
   7923SM  C18F10534   5.501   2.669   6.106 -0.8355 -1.2750 -0.5320
   7923SM  H18F10535   5.393   2.648   6.088 -1.5937 -0.2723  2.3020
   7923SM  H18G10536   5.568   2.581   6.106  1.0580  0.1034  1.0039
   7923SM  C19F10537   5.552   2.759   5.990  0.6297 -0.1324  0.2621
   7923SM  H19F10538   5.658   2.781   6.017  0.2817 -0.0433  1.6140
   7923SM  H19G10539   5.494   2.854   5.982 -2.1238 -1.7802 -0.9399
   7923SM  C20F10540   5.573   2.702   5.849  0.5183 -0.1739  0.0188
   7923SM  H20F10541   5.587   2.592   5.862  0.1242 -0.2939 -0.5087
   7923SM  H20G10542   5.660   2.742   5.793  1.9786  0.0863  2.3438
   7923SM  C21F10543   5.442   2.730   5.763 -0.6572  0.0810 -0.5258
   7923SM  H21F10544   5.407   2.832   5.790  1.0858 -0.2831  3.8830
   7923SM  H21G10545   5.356   2.669   5.798  0.3656 -0.3905  1.3064
   7923SM  C22F10546   5.469   2.717   5.620 -0.3051  0.5073 -0.0642
   7923SM  H22F10547   5.502   2.613   5.600  2.3838  1.2867 -0.1175
   7923SM  H22G10548   5.549   2.787   5.587  1.0592 -0.6574  0.6955
   7923SM  C23F10549   5.343   2.736   5.526 -0.5523 -0.0773 -0.3579
   7923SM  H23F10550   5.363   2.729   5.417  0.0955 -0.6587 -0.2116
   7923SM  H23G10551   5.325   2.845   5.541  0.0311 -0.0174 -0.0520
   7923SM  H23H10552   5.259   2.677   5.568 -0.5213  0.6322  0.7693
   8023SM     N10553   0.202   1.676   8.487  0.3942 -0.0084 -0.1245
   8023SM   C1510554   0.313   1.615   8.404 -0.1161 -0.2040  0.2901
   8023SM  H15A10555   0.273   1.578   8.311 -0.1931 -0.7287  0.5276
   8023SM  H15B10556   0.349   1.526   8.454 -0.0483  0.1830  0.9366
   8023SM  H15C10557   0.392   1.682   8.374 -2.2430  1.3942 -2.2099
   8023SM   C1410558   0.077   1.583   8.485  0.3059 -0.2555  0.1350
   8023SM  H14A10559  -0.004   1.630   8.538 -0.3132 -1.5595  0.3856
   8023SM  H14B10560   0.103   1.486   8.522  1.5089 -0.0708 -0.1906
   8023SM  H14C10561   0.035   1.568   8.386  1.0265  0.8648 -0.3636
   8023SM   C1310562   0.250   1.707   8.621 -0.6362  0.8479 -0.1849
   8023SM  H13A10563   0.340   1.767   8.618  1.6833 -2.3688 -0.3905
   8023SM  H13B10564   0.282   1.620   8.677 -0.8565  1.6443  1.2283
   8023SM  H13C10565   0.178   1.759   8.683  0.6702  1.6570  0.7078
   8023SM   C1210566   0.160   1.811   8.418  0.5560  0.2385  0.1975
   8023SM  H12A10567   0.072   1.842   8.473  1.2625  0.0630  1.4841
   8023SM  H12B10568   0.124   1.788   8.319  3.9510 -2.3504 -0.6168
   8023SM   C1110569   0.269   1.925   8.407 -0.4455  0.1940 -0.1024
   8023SM  H11A10570   0.231   1.993   8.327 -2.9033  0.4539  1.1896
   8023SM  H11B10571   0.362   1.871   8.380  0.6062  1.6765  0.4500
   8023SM     P10572   0.397   2.035   8.605  0.3636 -0.1245  0.5588
   8023SM   O1310573   0.355   2.071   8.743  0.3476 -0.2343  0.4771
   8023SM   O1410574   0.491   1.922   8.593  0.1974  0.1171 -0.4868
   8023SM   O1110575   0.450   2.172   8.549  0.2501  0.2430  0.9198
   8023SM   O1210576   0.267   1.998   8.530  0.1323 -0.0531 -0.4445
   8023SM   C1S10577   0.496   2.183   8.414 -0.5469  0.0334  0.5402
   8023SM   H1S10578   0.535   2.083   8.383 -0.3867  0.5384 -0.9829
   8023SM   H1T10579   0.586   2.247   8.411 -1.8119  1.8803 -0.6442
   8023SM    NF10580   0.450   2.254   8.176  0.4649  0.3345  0.2700
   8023SM   HNF10581   0.503   2.338   8.170 -0.9591  1.3137  0.6860
   8023SM   C2S10582   0.396   2.251   8.313 -0.1615  0.2763  0.3836
   8023SM   H2S10583   0.310   2.180   8.314  1.2001 -1.4537 -0.7157
   8023SM   C3S10584   0.348   2.385   8.383 -0.5061 -0.2285  1.6198
   8023SM   H3S10585   0.431   2.459   8.378 -0.6124 -0.2169 -1.7649
   8023SM    O310586   0.296   2.369   8.519 -0.3320 -0.3800 -0.3563
   8023SM   HO310587   0.329   2.281   8.536  0.5999 -0.3098 -1.6932
   8023SM   C4S10588   0.238   2.438   8.291  0.3055  0.1789 -0.1401
   8023SM   H4S10589   0.273   2.521   8.229  1.9982  0.1055  0.6593
   8023SM   C5S10590   0.110   2.392   8.297  0.0570  0.0331  0.2831
   8023SM   H5S10591   0.082   2.299   8.348 -0.1549 -0.0558  0.0078
   8023SM   C6S10592   0.004   2.437   8.199 -0.4049 -0.9856 -0.4639
   8023SM   H6S10593   0.036   2.535   8.156  1.1213 -1.1164  0.3154
   8023SM   H6T10594  -0.089   2.450   8.258  0.3210 -0.5856  0.6184
   8023SM   C7S10595  -0.016   2.337   8.084 -0.7833 -0.1783  0.0085
   8023SM   H7S10596  -0.120   2.344   8.044 -0.2551 -2.7750 -2.1412
   8023SM   H7T10597   0.005   2.232   8.114  0.9945  0.4088  0.9078
   8023SM   C8S10598   0.086   2.367   7.959  0.1855 -0.9213  0.1313
   8023SM   H8S10599   0.185   2.346   8.004 -0.4208 -0.8584  1.5605
   8023SM   H8T10600   0.097   2.475   7.937 -3.1632 -0.7847 -1.4137
   8023SM   C9S10601   0.054   2.284   7.835  0.4999 -0.1234 -0.6599
   8023SM   H9S10602   0.033   2.178   7.859  3.0316 -0.7846 -1.1049
   8023SM   H9T10603   0.148   2.272   7.776  0.1564 -2.3779 -0.8362
   8023SM  C10S10604  -0.064   2.335   7.749 -0.4350  0.4907  0.1267
   8023SM  H10S10605  -0.044   2.443   7.732  0.2844  0.3400 -0.0012
   8023SM  H10T10606  -0.153   2.331   7.816 -1.4014  1.2185 -1.0663
   8023SM  C11S10607  -0.083   2.255   7.618  0.2835  0.0430 -0.5839
   8023SM  H11S10608  -0.091   2.151   7.654  0.3107  1.1402  2.9879
   8023SM  H11T10609   0.008   2.276   7.558  0.5028  1.5427  0.2146
   8023SM  C12S10610  -0.211   2.313   7.561 -0.0453  0.3740  1.0507
   8023SM  H12S10611  -0.211   2.424   7.568 -1.6886  0.3571  1.7621
   8023SM  H12T10612  -0.301   2.276   7.614 -0.9430 -0.5950 -1.0282
   8023SM  C13S10613  -0.227   2.280   7.412 -0.1687  0.7058 -0.4423
   8023SM  H13S10614  -0.333   2.290   7.381 -0.1434 -1.1036 -1.2421
   8023SM  H13T10615  -0.201   2.174   7.394  2.5182  1.1055  0.5161
   8023SM  C14S10616  -0.163   2.378   7.320  0.0142 -0.1473 -0.3931
   8023SM  H14S10617  -0.057   2.399   7.345 -0.1113  0.2433 -0.1822
   8023SM  H14T10618  -0.212   2.477   7.332  2.1430  0.7488  1.7865
   8023SM  C15S10619  -0.162   2.322   7.182 -0.4660  0.1927  0.3213
   8023SM  H15S10620  -0.108   2.226   7.165  0.4992  0.7814 -0.0179
   8023SM  H15T10621  -0.098   2.388   7.120  0.2341  0.3093  1.1624
   8023SM  C16S10622  -0.303   2.316   7.126  0.3270  0.3335  0.5813
   8023SM  H16S10623  -0.368   2.401   7.158 -0.2950  0.8676 -1.8690
   8023SM  H16T10624  -0.343   2.223   7.171  1.0877 -1.9554 -3.0824
   8023SM  C17S10625  -0.303   2.308   6.971  0.7609  0.5968 -0.2137
   8023SM  H17S10626  -0.242   2.394   6.935  1.3423  0.1920 -0.2028
   8023SM  H17T10627  -0.405   2.337   6.938  0.5020  0.7396  0.6764
   8023SM  C18S10628  -0.251   2.180   6.909  0.1476 -0.0674 -0.3187
   8023SM  H18S10629  -0.304   2.092   6.951  1.6982 -0.2607  1.3576
   8023SM  H18T10630  -0.144   2.173   6.936 -0.0530  0.2414  0.6053
   8023SM  H18U10631  -0.265   2.173   6.799 -0.3658 -0.4885 -0.2323
   8023SM   C1F10632   0.487   2.145   8.115  0.6526 -0.3330  0.9888
   8023SM    OF10633   0.461   2.035   8.155 -0.1986  0.0248  0.6042
   8023SM   C2F10634   0.572   2.163   7.999  0.2719  0.1535 -0.0997
   8023SM   H2F10635   0.662   2.099   8.005  0.1500 -0.0368 -0.2822
   8023SM   H2G10636   0.607   2.268   8.005 -1.1990  0.5894  2.1617
   8023SM   C3F10637   0.499   2.153   7.862 -0.1719 -0.2058  0.4139
   8023SM   H3F10638   0.413   2.224   7.866 -0.3517 -0.2987 -1.2863
   8023SM   H3G10639   0.455   2.052   7.855  0.1109 -0.2552 -0.8837
   8023SM   C4F10640   0.594   2.165   7.742  0.5327 -0.1529 -0.4017
   8023SM   H4F10641   0.688   2.108   7.756 -0.4141 -2.4962 -2.7479
   8023SM   H4G10642   0.626   2.271   7.750  1.1021 -0.1701 -2.0539
   8023SM   C5F10643   0.543   2.150   7.602  0.6800 -0.1058  0.3378
   8023SM   H5F10644   0.462   2.225   7.585 -0.0916 -1.0469 -0.2893
   8023SM   H5G10645   0.499   2.049   7.590  1.8444 -0.4616 -1.3534
   8023SM   C6F10646   0.644   2.185   7.487  0.7818 -0.3576  0.4628
   8023SM   H6F10647   0.731   2.115   7.495  1.0766 -0.0001  0.3917
   8023SM   H6G10648   0.686   2.288   7.487  1.0358 -0.4414 -0.7666
   8023SM   C7F10649   0.571   2.161   7.353  0.2423 -0.2946  0.3620
   8023SM   H7F10650   0.494   2.240   7.343  1.8234  1.5194  1.6089
   8023SM   H7G10651   0.531   2.059   7.371  1.9389 -0.6031  3.1574
   8023SM   C8F10652   0.669   2.162   7.228  0.5021  0.1672  0.4503
   8023SM   H8F10653   0.746   2.083   7.237  1.5549  1.2874  1.7783
   8023SM   H8G10654   0.724   2.258   7.233 -0.2243  0.5863  0.6391
   8023SM   C9F10655   0.604   2.147   7.091 -0.1125 -0.7127 -0.0308
   8023SM   H9F10656   0.693   2.131   7.026  1.5538  0.3798  1.8817
   8023SM   H9G10657   0.562   2.246   7.062 -1.6156 -0.8123  1.6684
   8023SM  C10F10658   0.512   2.025   7.072 -0.4005 -0.3341 -0.2380
   8023SM  H10F10659   0.413   2.033   7.123  1.0844 -0.8008  2.9490
   8023SM  H10G10660   0.569   1.945   7.124  0.7767  1.2100  0.9214
   8023SM  C11F10661   0.501   1.984   6.927  0.3022  0.3909 -0.7183
   8023SM  H11F10662   0.398   1.945   6.916  0.4296 -0.7405  1.5190
   8023SM  H11G10663   0.570   1.901   6.899 -0.5878 -0.8448  0.6145
   8023SM  C12F10664   0.512   2.102   6.823 -0.8772 -0.4286 -0.2834
   8023SM  H12F10665   0.621   2.125   6.825 -0.7076 -1.2303  0.1775
   8023SM  H12G10666   0.454   2.186   6.865  0.6955  0.2973  0.4754
   8023SM  C13F10667   0.465   2.072   6.686  0.4524  0.6680  0.1781
   8023SM  H13F10668   0.447   2.171   6.638 -0.8257 -0.8428 -2.6932
   8023SM  H13G10669   0.371   2.012   6.685  1.6710 -1.3209 -1.5332
   8023SM  C14F10670   0.552   1.986   6.593  0.0978 -0.0611  0.5654
   8023SM  H14F10671   0.567   1.886   6.637  1.9466 -0.4270 -0.7832
   8023SM  H14G10672   0.655   2.025   6.585  0.3908 -0.9125  0.1141
   8023SM  C15F10673   0.488   1.968   6.452  0.3485 -0.0952 -0.5725
   8023SM  H15F10674   0.511   2.066   6.404  2.9220 -0.9953 -1.3174
   8023SM  H15G10675   0.378   1.964   6.472  0.5729  1.1569  1.1550
   8023SM  C16F10676   0.535   1.857   6.363  0.6502  0.3167 -0.0568
   8023SM  H16F10677   0.468   1.858   6.274  1.0838  0.3838 -0.3805
   8023SM  H16G10678   0.523   1.759   6.414 -1.5160 -0.3957 -1.7309
   8023SM  C17F10679   0.674   1.874   6.313 -0.9413 -0.0360  0.2220
   8023SM  H17F10680   0.727   1.777   6.301 -2.2162 -0.7732  0.3636
   8023SM  H17G10681   0.739   1.909   6.396 -0.9173 -1.6486  0.9212
   8023SM  C18F10682   0.685   1.953   6.181  0.0903 -0.2089 -0.2087
   8023SM  H18F10683   0.639   2.052   6.199 -1.2144 -0.8549  0.1227
   8023SM  H18G10684   0.615   1.898   6.114 -0.8468  0.7194 -0.0196
   8023SM  C19F10685   0.822   1.953   6.120 -0.1892 -0.0065  0.5641
   8023SM  H19F10686   0.818   2.018   6.030  1.9015  0.5453  0.8128
   8023SM  H19G10687   0.856   1.851   6.090  2.2846  0.9798 -0.2864
   8023SM  C20F10688   0.928   1.999   6.221 -1.1129  0.3012  0.5642
   8023SM  H20F10689   0.961   1.919   6.291 -0.2834 -1.8367 -2.0799
   8023SM  H20G10690   0.891   2.080   6.288 -2.0487  1.3720 -1.1759
   8023SM  C21F10691   1.044   2.054   6.144 -0.0432 -0.0059 -0.5019
   8023SM  H21F10692   1.008   2.139   6.083  1.8320 -0.1525 -1.9094
   8023SM  H21G10693   1.089   1.974   6.081  0.0897 -0.5199  0.2356
   8023SM  C22F10694   1.153   2.102   6.245  0.2283  0.9667  0.3534
   8023SM  H22F10695   1.104   2.161   6.325  0.8394 -0.5346  1.8962
   8023SM  H22G10696   1.234   2.167   6.204  1.2060 -1.2981 -1.5470
   8023SM  C23F10697   1.225   1.992   6.316  0.0400  0.4123 -0.3730
   8023SM  H23F10698   1.295   2.037   6.390 -0.1807  0.5561 -0.2497
   8023SM  H23G10699   1.284   1.932   6.244  0.1255  1.4418 -1.1902
   8023SM  H23H10700   1.152   1.931   6.373  1.4448 -0.9106  0.0683
   8123SM     N10701   2.820   4.170   4.257  0.0094 -0.5221 -0.2198
   8123SM   C1510702   2.700   4.121   4.178  0.1214 -0.0582 -0.4820
   8123SM  H15A10703   2.704   4.013   4.177  1.3762 -0.0539  0.8212
   8123SM  H15B10704   2.690   4.162   4.079 -2.0638  0.6151 -0.0461
   8123SM  H15C10705   2.607   4.152   4.223  0.5933  2.6874 -1.2304
   8123SM   C1410706   2.821   4.106   4.394  0.2364 -0.0197  0.3007
   8123SM  H14A10707   2.888   4.158   4.462 -0.3820  2.7287 -1.0227
   8123SM  H14B10708   2.836   4.001   4.379  1.8695  0.4458 -1.7376
   8123SM  H14C10709   2.722   4.122   4.435  0.3453  1.6759 -0.0191
   8123SM   C1310710   2.945   4.114   4.198 -0.2253 -0.4086 -0.7286
   8123SM  H13A10711   2.965   4.164   4.104  0.6289 -0.0006 -0.3434
   8123SM  H13B10712   2.923   4.013   4.170 -0.4865 -0.3766 -0.6343
   8123SM  H13C10713   3.037   4.126   4.254  0.4156 -1.6491 -1.4747
   8123SM   C1210714   2.830   4.320   4.273  0.0407  0.1504 -0.6650
   8123SM  H12A10715   2.818   4.367   4.176 -0.1906  1.2367 -0.1245
   8123SM  H12B10716   2.923   4.349   4.320 -0.8817 -0.8624  1.9679
   8123SM   C1110717   2.723   4.377   4.368  0.2157 -0.2540 -0.6513
   8123SM  H11A10718   2.743   4.355   4.475 -1.7487  0.2343 -0.1266
   8123SM  H11B10719   2.629   4.325   4.339 -1.0362  1.9826 -0.8590
   8123SM     P10720   2.794   4.623   4.437  0.4825  0.0449  0.1566
   8123SM   O1310721   2.941   4.607   4.408  0.0945  0.5601  0.2136
   8123SM   O1410722   2.750   4.760   4.414 -0.6444  0.1329 -0.1457
   8123SM   O1110723   2.761   4.573   4.581 -0.2445  0.5087 -0.0580
   8123SM   O1210724   2.706   4.520   4.353 -0.5715  0.8210 -0.0325
   8123SM   C1S10725   2.798   4.655   4.684 -0.0328  0.3623 -0.9792
   8123SM   H1S10726   2.745   4.751   4.695 -0.5460  0.6103 -4.3263
   8123SM   H1T10727   2.906   4.679   4.676  0.2953 -0.0454  1.5821
   8123SM    NF10728   2.817   4.670   4.941 -0.1628 -0.7420 -0.3788
   8123SM   HNF10729   2.904   4.646   4.983 -1.0134 -0.2209  1.8266
   8123SM   C2S10730   2.775   4.589   4.827  0.3887 -0.4661 -0.1998
   8123SM   H2S10731   2.665   4.573   4.827  0.1401  1.1183  0.2677
   8123SM   C3S10732   2.846   4.450   4.831  0.4546  0.3316  1.0005
   8123SM   H3S10733   2.956   4.468   4.842  0.7506  1.2662 -2.3971
   8123SM    O310734   2.826   4.367   4.720  0.0220  0.6311 -0.2745
   8123SM   HO310735   2.764   4.411   4.662 -1.6444 -3.6983 -2.2159
   8123SM   C4S10736   2.791   4.374   4.948  0.1443  0.6081  0.4724
   8123SM   H4S10737   2.682   4.374   4.953  0.0773 -0.2977 -0.5760
   8123SM   C5S10738   2.866   4.291   5.025 -0.2438 -0.2045 -0.4294
   8123SM   H5S10739   2.974   4.281   5.006 -0.4358 -2.3616 -0.7208
   8123SM   C6S10740   2.814   4.205   5.128  0.2310  0.2268 -0.2920
   8123SM   H6S10741   2.832   4.098   5.108 -1.5488  0.3169 -2.9622
   8123SM   H6T10742   2.703   4.218   5.133  0.2332 -0.0930  1.1069
   8123SM   C7S10743   2.870   4.245   5.261 -0.0596  0.5549 -0.4418
   8123SM   H7S10744   2.846   4.352   5.282 -0.1515  0.8910 -2.1669
   8123SM   H7T10745   2.980   4.237   5.264 -0.2210 -3.6086 -0.4059
   8123SM   C8S10746   2.828   4.161   5.376 -0.4329 -0.0045 -0.0334
   8123SM   H8S10747   2.866   4.059   5.352  0.9466  0.8492 -1.6905
   8123SM   H8T10748   2.718   4.166   5.390 -0.4553 -0.3134 -0.0754
   8123SM   C9S10749   2.892   4.216   5.506 -0.0452  0.2324 -0.3271
   8123SM   H9S10750   2.849   4.316   5.529  1.0195  1.0804 -1.8194
   8123SM   H9T10751   3.000   4.243   5.500 -0.1893  0.7239 -0.9276
   8123SM  C10S10752   2.853   4.132   5.629 -0.8890  0.0536  0.6840
   8123SM  H10S10753   2.908   4.036   5.617  1.2357  1.2582  0.3500
   8123SM  H10T10754   2.742   4.129   5.641 -1.0159 -0.6681 -0.4693
   8123SM  C11S10755   2.929   4.191   5.760  0.0772  0.0522  0.4921
   8123SM  H11S10756   2.878   4.284   5.793 -0.0764  0.3452 -0.5488
   8123SM  H11T10757   3.028   4.232   5.731 -0.7057  1.2909 -0.5962
   8123SM  C12S10758   2.945   4.082   5.862  0.0216 -1.4092 -0.1626
   8123SM  H12S10759   3.012   4.007   5.814  1.8763 -0.7168  1.2127
   8123SM  H12T10760   2.843   4.049   5.890 -1.0189  2.0260  0.5383
   8123SM  C13S10761   3.008   4.136   5.990  0.0166  0.1188 -0.0093
   8123SM  H13S10762   2.955   4.222   6.035  1.6961  0.9951  0.3996
   8123SM  H13T10763   3.104   4.175   5.949 -0.5437  2.6640  0.8878
   8123SM  C14S10764   3.056   4.039   6.089  0.7303 -0.6279  0.2566
   8123SM  H14S10765   3.133   3.969   6.049  0.9319  0.0097 -0.4819
   8123SM  H14T10766   2.973   3.971   6.116  1.6276 -1.1813  1.7868
   8123SM  C15S10767   3.095   4.119   6.220  0.1336 -0.2940  0.2587
   8123SM  H15S10768   3.010   4.180   6.259  1.6242  1.6830  0.5627
   8123SM  H15T10769   3.172   4.195   6.192  0.4692 -1.5464 -2.5579
   8123SM  C16S10770   3.133   4.025   6.338  0.0443  0.1044 -0.3016
   8123SM  H16S10771   3.206   3.948   6.308 -1.2250 -1.4325  0.3912
   8123SM  H16T10772   3.044   3.965   6.369  0.4717  0.1308  1.0174
   8123SM  C17S10773   3.189   4.111   6.457 -0.2096  0.2857  0.0858
   8123SM  H17S10774   3.265   4.182   6.420 -0.0926 -0.2996 -0.8336
   8123SM  H17T10775   3.246   4.042   6.523 -0.9282  0.1092  0.5424
   8123SM  C18S10776   3.083   4.185   6.539  0.5329 -0.1678 -0.3018
   8123SM  H18S10777   3.110   4.247   6.627 -1.4585  1.4471 -0.7355
   8123SM  H18T10778   3.014   4.103   6.569  1.3980 -0.9510 -0.4299
   8123SM  H18U10779   3.021   4.256   6.480  1.6848  0.2029 -1.0925
   8123SM   C1F10780   2.767   4.791   4.972 -0.0578  0.0428  0.2434
   8123SM    OF10781   2.678   4.849   4.914 -0.1531  0.7438  0.6352
   8123SM   C2F10782   2.839   4.857   5.088 -0.4199  0.1346 -0.6254
   8123SM   H2F10783   2.845   4.966   5.065 -0.2579  0.7392  1.9306
   8123SM   H2G10784   2.940   4.811   5.089 -0.8271 -0.7603 -0.4140
   8123SM   C3F10785   2.768   4.829   5.223 -0.3209  0.1512 -0.3268
   8123SM   H3F10786   2.744   4.721   5.222  2.3252 -0.4952 -1.3806
   8123SM   H3G10787   2.671   4.883   5.234 -0.8805 -0.5452 -1.5800
   8123SM   C4F10788   2.863   4.857   5.336 -0.4066 -0.6055 -0.2123
   8123SM   H4F10789   2.922   4.950   5.326  1.7385 -1.5151  2.7698
   8123SM   H4G10790   2.929   4.771   5.359  0.7728 -0.4251 -2.5817
   8123SM   C5F10791   2.784   4.888   5.458 -0.0109  0.2027 -0.6224
   8123SM   H5F10792   2.692   4.827   5.468 -0.4175  1.0679  1.6641
   8123SM   H5G10793   2.747   4.993   5.447  1.6726  0.8940 -0.0567
   8123SM   C6F10794   2.874   4.879   5.587  0.3364 -0.0092 -0.3669
   8123SM   H6F10795   2.975   4.922   5.568 -0.9546  2.5575 -2.1048
   8123SM   H6G10796   2.897   4.771   5.596  0.3157  0.0099 -0.0827
   8123SM   C7F10797   2.805   4.931   5.710 -0.7619 -0.0998  0.3567
   8123SM   H7F10798   2.708   4.877   5.713 -0.2211 -1.1022  0.4132
   8123SM   H7G10799   2.790   5.041   5.702  1.2248  0.1962  0.2622
   8123SM   C8F10800   2.876   4.894   5.842 -0.5198 -0.3690  0.7319
   8123SM   H8F10801   2.972   4.950   5.842  0.8274 -2.5077 -1.3770
   8123SM   H8G10802   2.894   4.785   5.840  0.9013 -0.1720 -1.7393
   8123SM   C9F10803   2.799   4.925   5.963  0.2327 -0.1604  0.0130
   8123SM   H9F10804   2.696   4.883   5.961 -0.4576  1.0490  3.4722
   8123SM   H9G10805   2.775   5.033   5.971  3.4030  0.5791  0.9989
   8123SM  C10F10806   2.864   4.876   6.092  0.4582 -0.0431 -0.2015
   8123SM  H10F10807   2.963   4.921   6.117  2.5320 -1.9836 -3.9762
   8123SM  H10G10808   2.885   4.767   6.092 -0.5612 -0.2446  0.3317
   8123SM  C11F10809   2.764   4.891   6.209  0.1694  0.7697  0.1155
   8123SM  H11F10810   2.672   4.843   6.169  0.6250 -0.4285  0.4341
   8123SM  H11G10811   2.742   4.997   6.229 -0.2512  0.5835  0.6556
   8123SM  C12F10812   2.814   4.823   6.336 -0.1455  0.4104  0.3528
   8123SM  H12F10813   2.914   4.868   6.355 -0.2373  0.6525  0.2747
   8123SM  H12G10814   2.837   4.715   6.328  0.5212  0.4918  0.9986
   8123SM  C13F10815   2.726   4.849   6.457 -0.2374 -0.0366  0.4042
   8123SM  H13F10816   2.618   4.832   6.437 -0.9367  3.2325  0.7947
   8123SM  H13G10817   2.725   4.952   6.498  1.8206  0.6162 -1.0194
   8123SM  C14F10818   2.761   4.757   6.576  0.3210 -0.0206 -0.1692
   8123SM  H14F10819   2.860   4.788   6.616 -0.2935  1.8175  0.0265
   8123SM  H14G10820   2.782   4.661   6.523  1.3898  0.6005 -0.9304
   8123SM  C15F10821   2.662   4.750   6.695  0.3681 -0.1026 -0.0537
   8123SM  H15F10822   2.561   4.720   6.661  0.0344 -1.4796  2.0215
   8123SM  H15G10823   2.640   4.851   6.737 -1.5923 -1.0845  1.4385
   8123SM  C16F10824   2.697   4.648   6.815 -0.7566  0.3956  0.5230
   8123SM  H16F10825   2.678   4.693   6.915  4.1537 -0.0582  1.9229
   8123SM  H16G10826   2.808   4.637   6.821 -0.6744 -1.8787 -2.4393
   8123SM  C17F10827   2.622   4.517   6.794  0.3009  0.2716 -0.0451
   8123SM  H17F10828   2.641   4.472   6.694 -0.0672  0.4971 -0.2158
   8123SM  H17G10829   2.513   4.538   6.803 -0.1544 -1.9029  0.1131
   8123SM  C18F10830   2.657   4.401   6.891 -0.2175  0.1179  0.1597
   8123SM  H18F10831   2.763   4.368   6.888 -0.1362  0.2767  1.0674
   8123SM  H18G10832   2.585   4.318   6.873 -1.3736  1.2235 -0.4952
   8123SM  C19F10833   2.613   4.427   7.038 -0.0363  0.0881 -0.0502
   8123SM  H19F10834   2.508   4.462   7.044  0.2890  0.9990  0.5618
   8123SM  H19G10835   2.691   4.497   7.075 -0.2257 -0.9463  2.5024
   8123SM  C20F10836   2.628   4.311   7.139  0.0257  0.1263 -0.1120
   8123SM  H20F10837   2.732   4.274   7.141 -0.2876 -0.7715  1.6368
   8123SM  H20G10838   2.568   4.225   7.101  2.0336 -1.3914  0.0221
   8123SM  C21F10839   2.592   4.351   7.278  0.1456  0.1336  0.7245
   8123SM  H21F10840   2.488   4.389   7.279  0.8179  2.1844 -0.7132
   8123SM  H21G10841   2.646   4.442   7.311 -1.8201  2.1410 -1.2704
   8123SM  C22F10842   2.619   4.243   7.379 -0.6287 -0.3700 -0.6646
   8123SM  H22F10843   2.723   4.207   7.368 -1.5723 -2.7854 -2.7919
   8123SM  H22G10844   2.547   4.161   7.359  0.3117 -1.1443 -0.9554
   8123SM  C23F10845   2.592   4.284   7.522  0.2255 -0.8088 -0.0767
   8123SM  H23F10846   2.660   4.367   7.550  0.6795 -1.5743  1.1603
   8123SM  H23G10847   2.600   4.189   7.579 -0.0163 -1.4058 -1.0240
   8123SM  H23H10848   2.485   4.309   7.532  0.1803 -0.4393 -1.3724
   8223SM     N10849   3.971   4.860   4.177  0.3691 -0.2842  0.0696
   8223SM   C1510850   4.051   4.839   4.303 -0.2265  0.5941 -0.4223
   8223SM  H15A10851   4.059   4.734   4.326 -2.7166  0.1413 -1.2766
   8223SM  H15B10852   4.000   4.877   4.390 -1.4900 -3.0151  0.5518
   8223SM  H15C10853   4.146   4.890   4.294 -0.9172  1.8118 -1.2031
   8223SM   C1410854   3.928   5.001   4.159  0.1940 -0.3080 -0.5090
   8223SM  H14A10855   3.859   5.026   4.238 -0.8207  1.3999 -1.8723
   8223SM  H14B10856   3.872   5.011   4.067 -0.6001 -1.0474 -0.1216
   8223SM  H14C10857   4.014   5.066   4.155 -0.5568  0.6747 -0.8139
   8223SM   C1310858   4.057   4.821   4.057  0.4218 -0.0332 -0.0404
   8223SM  H13A10859   4.125   4.743   4.085 -0.8247 -0.8431  0.8524
   8223SM  H13B10860   4.120   4.902   4.023 -0.3988  0.7930  0.3305
   8223SM  H13C10861   4.000   4.791   3.970  0.6201  2.7876 -1.2715
   8223SM   C1210862   3.850   4.771   4.177  0.1960 -0.8290  0.5494
   8223SM  H12A10863   3.881   4.683   4.123 -0.1752 -0.9754  0.5773
   8223SM  H12B10864   3.776   4.818   4.114  0.6092  0.6943  1.1640
   8223SM   C1110865   3.783   4.730   4.313 -0.2693 -0.7672 -0.7722
   8223SM  H11A10866   3.863   4.684   4.376  1.3750  1.6194 -1.0035
   8223SM  H11B10867   3.701   4.662   4.282 -0.9216 -1.0149  1.3346
   8223SM     P10868   3.588   4.898   4.355  0.2094  0.1811 -0.2045
   8223SM   O1310869   3.575   4.980   4.229 -0.1785 -0.2133  0.0334
   8223SM   O1410870   3.494   4.784   4.365 -0.1163 -0.8016  0.1694
   8223SM   O1110871   3.553   4.996   4.478 -0.3503 -0.2287  0.1592
   8223SM   O1210872   3.736   4.849   4.383 -0.4626  0.1331  0.0426
   8223SM   C1S10873   3.548   4.947   4.608  0.0718 -0.9911  0.1532
   8223SM   H1S10874   3.619   4.864   4.628  1.0916 -0.4447 -1.0669
   8223SM   H1T10875   3.447   4.903   4.626 -0.7481 -0.0440 -1.8348
   8223SM    NF10876   3.562   5.001   4.840  0.2106 -0.2832 -0.0549
   8223SM   HNF10877   3.481   5.023   4.894 -1.2606 -1.6782 -1.5738
   8223SM   C2S10878   3.556   5.060   4.714 -0.0386  0.1431 -0.1135
   8223SM   H2S10879   3.654   5.112   4.709 -0.2192  0.6902  1.4209
   8223SM   C3S10880   3.452   5.185   4.685 -0.1939  0.1774 -0.0043
   8223SM   H3S10881   3.356   5.138   4.713 -0.9893 -0.1211 -2.9090
   8223SM    O310882   3.441   5.221   4.551 -0.2303  1.0092 -0.0043
   8223SM   HO310883   3.482   5.147   4.506 -1.6962  0.5604 -0.6625
   8223SM   C4S10884   3.487   5.303   4.779 -0.6951 -0.4520 -0.2095
   8223SM   H4S10885   3.435   5.306   4.876 -1.1190 -0.6698 -0.4283
   8223SM   C5S10886   3.587   5.390   4.754 -0.0416 -0.5758 -0.1256
   8223SM   H5S10887   3.642   5.386   4.659 -1.1856  2.7218 -1.0403
   8223SM   C6S10888   3.633   5.489   4.858 -0.5405  0.0880  0.0865
   8223SM   H6S10889   3.574   5.582   4.841  0.5235  1.1202  1.7388
   8223SM   H6T10890   3.741   5.510   4.841  0.0708 -1.0405  2.2803
   8223SM   C7S10891   3.618   5.435   5.002 -0.4709  0.0272  0.6633
   8223SM   H7S10892   3.682   5.344   5.004 -0.5217 -0.0523 -0.6737
   8223SM   H7T10893   3.511   5.416   5.022 -0.2977 -1.2185  0.4628
   8223SM   C8S10894   3.659   5.548   5.086  0.2637 -0.6456 -0.3205
   8223SM   H8S10895   3.585   5.628   5.066  1.0976  0.0205 -0.7962
   8223SM   H8T10896   3.763   5.584   5.071  0.2009 -0.4576 -0.2996
   8223SM   C9S10897   3.646   5.515   5.237  0.0243 -0.2053 -0.2435
   8223SM   H9S10898   3.710   5.426   5.257 -2.3061 -2.2823 -1.5297
   8223SM   H9T10899   3.539   5.490   5.248  0.0745  0.5250  2.7358
   8223SM  C10S10900   3.691   5.635   5.324 -0.1593 -0.0911 -0.4910
   8223SM  H10S10901   3.610   5.710   5.312 -0.0774 -0.1162 -1.2967
   8223SM  H10T10902   3.787   5.683   5.294 -1.1737  0.5928 -2.8517
   8223SM  C11S10903   3.694   5.597   5.469 -0.2488 -0.5485  0.2688
   8223SM  H11S10904   3.772   5.519   5.487  1.2333  0.7270 -0.3508
   8223SM  H11T10905   3.595   5.559   5.502 -2.1458  3.2217 -0.5771
   8223SM  C12S10906   3.729   5.702   5.574 -0.1306  0.5467  0.2412
   8223SM  H12S10907   3.693   5.799   5.533  0.4112  0.6330 -0.0414
   8223SM  H12T10908   3.839   5.709   5.559 -0.0743 -1.7302 -0.6522
   8223SM  C13S10909   3.711   5.657   5.720  0.7365 -0.1572 -0.0834
   8223SM  H13S10910   3.730   5.549   5.738 -1.1051 -0.8435 -1.8618
   8223SM  H13T10911   3.602   5.669   5.739  0.8709  0.4304  0.3456
   8223SM  C14S10912   3.790   5.746   5.809  0.3788 -0.2351 -0.0413
   8223SM  H14S10913   3.760   5.851   5.789  0.1430 -0.2648  0.1551
   8223SM  H14T10914   3.898   5.733   5.784  0.6595 -1.4313  1.6066
   8223SM  C15S10915   3.766   5.718   5.958  0.1788 -0.0401  0.3022
   8223SM  H15S10916   3.819   5.621   5.972 -0.8578 -0.7211 -0.3923
   8223SM  H15T10917   3.659   5.710   5.984 -0.0718 -0.5905 -0.8216
   8223SM  C16S10918   3.825   5.838   6.043  0.2280 -1.0848  0.0501
   8223SM  H16S10919   3.791   5.939   6.012 -0.9634 -0.8320  2.0394
   8223SM  H16T10920   3.929   5.848   6.004  0.5160  1.5501  1.2776
   8223SM  C17S10921   3.816   5.811   6.191  0.8246 -0.2613  0.2891
   8223SM  H17S10922   3.871   5.715   6.198  1.0408 -0.1019  0.8524
   8223SM  H17T10923   3.714   5.797   6.234  1.0315  0.2284  0.9514
   8223SM  C18S10924   3.879   5.919   6.284  0.4537 -0.6355 -0.4460
   8223SM  H18S10925   3.989   5.914   6.272  0.6713  1.8807 -0.1285
   8223SM  H18T10926   3.861   5.903   6.392  2.3031 -0.6088 -0.1051
   8223SM  H18U10927   3.848   6.023   6.257 -0.7251  0.1915  3.4039
   8223SM   C1F10928   3.652   4.912   4.874  0.2830  0.5361 -0.2603
   8223SM    OF10929   3.758   4.903   4.823 -0.3784  0.4057  0.3704
   8223SM   C2F10930   3.610   4.827   4.993  0.2642 -0.9083  0.5503
   8223SM   H2F10931   3.505   4.790   4.994 -0.9352  2.1596  0.1919
   8223SM   H2G10932   3.623   4.888   5.085  0.5310  0.5238 -0.4030
   8223SM   C3F10933   3.710   4.709   5.008  0.0773  0.8905 -0.5005
   8223SM   H3F10934   3.819   4.733   5.010  0.5374 -1.0716  1.5848
   8223SM   H3G10935   3.702   4.638   4.923  1.1877 -0.7568  0.7038
   8223SM   C4F10936   3.684   4.627   5.139 -0.3230 -0.8810  0.0161
   8223SM   H4F10937   3.747   4.536   5.144  1.4143  0.2655 -0.1573
   8223SM   H4G10938   3.577   4.597   5.140 -0.8439  0.7210 -1.4689
   8223SM   C5F10939   3.722   4.692   5.270  0.6428  0.6652 -0.2853
   8223SM   H5F10940   3.693   4.800   5.267 -1.3592  0.1489 -2.2622
   8223SM   H5G10941   3.827   4.678   5.302 -0.0006 -0.7540  1.3635
   8223SM   C6F10942   3.638   4.637   5.384 -0.2898  0.2111 -0.1802
   8223SM   H6F10943   3.642   4.526   5.389 -1.4847  0.1735  0.3830
   8223SM   H6G10944   3.534   4.674   5.371 -1.3516 -2.2944  0.5430
   8223SM   C7F10945   3.698   4.705   5.510  0.4838  0.4510 -0.5551
   8223SM   H7F10946   3.681   4.815   5.510 -3.4468  0.0160  0.3092
   8223SM   H7G10947   3.807   4.684   5.504  0.4169  0.1901 -0.8595
   8223SM   C8F10948   3.629   4.649   5.638  0.4896  0.4085  0.2501
   8223SM   H8F10949   3.626   4.541   5.614  0.1460  0.9826 -2.6417
   8223SM   H8G10950   3.525   4.688   5.637 -0.3729 -1.7022 -2.2999
   8223SM   C9F10951   3.708   4.676   5.765  0.4981  0.1792 -0.1069
   8223SM   H9F10952   3.720   4.786   5.778 -0.6687  0.4560 -1.2139
   8223SM   H9G10953   3.809   4.630   5.771  1.0125  1.4233  1.9468
   8223SM  C10F10954   3.626   4.628   5.887  0.0180  0.1049  0.1348
   8223SM  H10F10955   3.605   4.519   5.882 -1.4706  0.4280 -3.3804
   8223SM  H10G10956   3.526   4.675   5.883 -0.5571 -1.1469 -1.6747
   8223SM  C11F10957   3.694   4.660   6.020  0.0072  0.5696  0.3371
   8223SM  H11F10958   3.694   4.770   6.036  1.3698  0.6956 -0.3939
   8223SM  H11G10959   3.799   4.624   6.021 -0.2135 -0.2070  2.6868
   8223SM  C12F10960   3.622   4.583   6.132  0.5268 -0.3701 -0.4309
   8223SM  H12F10961   3.606   4.476   6.110 -0.2908 -0.6235  1.2172
   8223SM  H12G10962   3.522   4.633   6.137  0.2335 -0.8155 -1.4830
   8223SM  C13F10963   3.691   4.586   6.269 -0.3625  0.3468  0.4055
   8223SM  H13F10964   3.737   4.683   6.299  2.6746 -1.3921  1.7723
   8223SM  H13G10965   3.767   4.505   6.273  0.1732  0.7089 -1.3601
   8223SM  C14F10966   3.589   4.544   6.377 -0.2151  0.2858 -0.2591
   8223SM  H14F10967   3.539   4.449   6.349  1.1625 -0.7403  0.6372
   8223SM  H14G10968   3.506   4.618   6.382 -0.0404  0.4209  1.1747
   8223SM  C15F10969   3.649   4.523   6.518  0.4562 -0.8780 -0.1084
   8223SM  H15F10970   3.676   4.620   6.565 -2.4576 -0.7833  1.6069
   8223SM  H15G10971   3.737   4.455   6.520  1.8070  0.7818 -0.7158
   8223SM  C16F10972   3.563   4.450   6.622 -0.8897  0.1492  0.0572
   8223SM  H16F10973   3.468   4.506   6.640 -1.5205 -0.0243 -2.3142
   8223SM  H16G10974   3.621   4.462   6.715 -0.3198  0.6605 -0.3562
   8223SM  C17F10975   3.551   4.299   6.602 -0.0440  0.1152 -0.2515
   8223SM  H17F10976   3.651   4.264   6.568 -0.5078  1.4054 -3.3551
   8223SM  H17G10977   3.489   4.284   6.510 -1.9784  1.9601  0.6741
   8223SM  C18F10978   3.497   4.218   6.719 -0.5353 -0.5281 -0.5904
   8223SM  H18F10979   3.502   4.108   6.709 -0.9246 -1.0454  3.2912
   8223SM  H18G10980   3.390   4.238   6.739 -0.5797 -1.6853  0.4193
   8223SM  C19F10981   3.568   4.261   6.849 -0.5116  0.0127  0.1231
   8223SM  H19F10982   3.530   4.363   6.869 -0.6570 -0.0505  0.1757
   8223SM  H19G10983   3.679   4.269   6.846 -0.5363  0.0405 -1.8145
   8223SM  C20F10984   3.527   4.176   6.973 -0.1262  0.4754 -0.0079
   8223SM  H20F10985   3.578   4.079   6.955 -0.5464  0.4377 -1.1144
   8223SM  H20G10986   3.416   4.170   6.963 -0.1158  0.5546 -0.1768
   8223SM  C21F10987   3.556   4.242   7.104  0.1749  0.1712 -0.0186
   8223SM  H21F10988   3.531   4.350   7.101 -0.0441  0.1306  0.3096
   8223SM  H21G10989   3.665   4.241   7.124  0.2559 -0.4647 -0.4522
   8223SM  C22F10990   3.475   4.178   7.213 -0.4462 -0.6887  0.4096
   8223SM  H22F10991   3.496   4.071   7.232 -0.0533 -0.5713  0.6496
   8223SM  H22G10992   3.371   4.186   7.175  1.2298  0.5745 -4.5594
   8223SM  C23F10993   3.495   4.241   7.350  0.2085  0.1573 -0.1344
   8223SM  H23F10994   3.461   4.346   7.355  1.2733  0.5002  0.2574
   8223SM  H23G10995   3.599   4.239   7.390 -0.1280  0.0458  0.7718
   8223SM  H23H10996   3.432   4.196   7.430  0.0196  2.0670  0.8394
   8323SM     N10997   4.501   4.608   3.465  0.2410  0.4239  0.4350
   8323SM   C1510998   4.629   4.581   3.388  0.4327 -0.0552  0.1502
   8323SM  H15A10999   4.669   4.488   3.424 -1.0427 -0.9441 -0.3885
   8323SM  H15B11000   4.710   4.652   3.397  1.4131 -1.2582  1.2222
   8323SM  H15C11001   4.610   4.563   3.283  0.8979 -0.0391  0.0634
   8323SM   C1411002   4.451   4.738   3.415 -0.2755 -0.5146 -0.1562
   8323SM  H14A11003   4.368   4.772   3.475 -0.0316  0.1826 -0.1998
   8323SM  H14B11004   4.439   4.738   3.307  2.6971  0.6837 -0.5786
   8323SM  H14C11005   4.520   4.816   3.441 -1.3638 -0.4142  2.8078
   8323SM   C1311006   4.407   4.497   3.427 -0.0317  0.5700  0.3183
   8323SM  H13A11007   4.368   4.511   3.327 -0.6345  0.2600  0.5033
   8323SM  H13B11008   4.320   4.501   3.490 -1.0185 -0.2701 -0.9393
   8323SM  H13C11009   4.437   4.395   3.447 -1.8440  0.1360  0.9733
   8323SM   C1211010   4.512   4.595   3.611  0.1937  0.2290 -0.4653
   8323SM  H12A11011   4.579   4.513   3.633 -0.9094 -0.0771  2.0990
   8323SM  H12B11012   4.422   4.551   3.649  1.5205 -0.4111  2.1570
   8323SM   C1111013   4.544   4.710   3.695  0.1896  0.1441  0.3896
   8323SM  H11A11014   4.638   4.751   3.651  0.6528  1.0779  2.1527
   8323SM  H11B11015   4.583   4.677   3.794 -0.0149  0.3545  0.5432
   8323SM     P11016   4.295   4.786   3.759 -0.3801  0.1101 -0.1046
   8323SM   O1311017   4.217   4.904   3.733  0.1714 -0.1054 -0.1592
   8323SM   O1411018   4.241   4.657   3.722  0.5477  0.0990  0.2543
   8323SM   O1111019   4.325   4.792   3.915 -0.5129 -0.0012 -0.1703
   8323SM   O1211020   4.438   4.808   3.695 -0.2850 -0.3374  0.2613
   8323SM   C1S11021   4.413   4.882   3.985  0.1792  0.0280  0.0494
   8323SM   H1S11022   4.361   4.980   3.994 -0.5421 -0.2323 -1.0845
   8323SM   H1T11023   4.510   4.888   3.931 -0.5533 -2.3109 -1.6753
   8323SM    NF11024   4.504   4.934   4.210  0.0042  0.4533 -0.4213
   8323SM   HNF11025   4.603   4.938   4.225  0.2441 -0.4195 -1.6425
   8323SM   C2S11026   4.455   4.821   4.128  0.0355 -0.2007 -0.2860
   8323SM   H2S11027   4.358   4.783   4.167 -0.5581  0.9373 -0.6040
   8323SM   C3S11028   4.558   4.701   4.118  0.6514 -0.4780  0.1615
   8323SM   H3S11029   4.657   4.730   4.077 -0.0027 -1.0032 -1.9364
   8323SM    O311030   4.522   4.602   4.022 -0.1590 -0.5992 -0.5121
   8323SM   HO311031   4.461   4.643   3.960  0.3691  0.4512 -0.3493
   8323SM   C4S11032   4.570   4.641   4.255  0.0392  0.3611 -0.2624
   8323SM   H4S11033   4.491   4.567   4.277 -2.8596  2.8609 -1.4917
   8323SM   C5S11034   4.676   4.657   4.337  0.3226 -0.0722 -0.1060
   8323SM   H5S11035   4.761   4.719   4.305 -0.0508  1.4304  1.6447
   8323SM   C6S11036   4.685   4.587   4.468 -0.9166 -0.7394 -0.2709
   8323SM   H6S11037   4.747   4.498   4.446 -2.1153 -1.1431 -2.3245
   8323SM   H6T11038   4.584   4.554   4.499 -0.6989 -0.1956  1.0652
   8323SM   C7S11039   4.725   4.692   4.576  0.3732  0.0717  0.4640
   8323SM   H7S11040   4.642   4.766   4.573  0.0882 -0.1252  2.3024
   8323SM   H7T11041   4.827   4.734   4.558  0.4850 -0.4236 -0.0768
   8323SM   C8S11042   4.719   4.642   4.718  0.5440  0.4066  0.2495
   8323SM   H8S11043   4.776   4.554   4.754 -0.2843  0.5799  2.0890
   8323SM   H8T11044   4.614   4.614   4.738 -0.3615  2.3075 -1.5436
   8323SM   C9S11045   4.775   4.750   4.812  0.0475 -0.1623  0.0285
   8323SM   H9S11046   4.769   4.853   4.769 -0.2014 -0.0597  0.3068
   8323SM   H9T11047   4.882   4.735   4.840  0.2985  0.5564 -0.5080
   8323SM  C10S11048   4.676   4.739   4.930  0.4422  0.6009  0.4526
   8323SM  H10S11049   4.671   4.632   4.960  1.0599  0.3829 -0.2005
   8323SM  H10T11050   4.571   4.768   4.907 -0.4994 -1.3413  2.0535
   8323SM  C11S11051   4.722   4.826   5.048  0.1168  0.5413  0.4656
   8323SM  H11S11052   4.731   4.933   5.017  2.0707  0.4346  0.5634
   8323SM  H11T11053   4.827   4.794   5.067  0.3546  1.0287 -0.0042
   8323SM  C12S11054   4.632   4.803   5.166  0.1405  0.0713  0.3467
   8323SM  H12S11055   4.590   4.701   5.165  1.7307 -0.6001  0.0072
   8323SM  H12T11056   4.539   4.861   5.144  1.3717  1.0522 -2.6955
   8323SM  C13S11057   4.680   4.836   5.309  0.8552 -0.3411  0.0364
   8323SM  H13S11058   4.688   4.946   5.301  0.8526 -0.1546  2.1757
   8323SM  H13T11059   4.781   4.791   5.321  1.1697  0.4735  0.4826
   8323SM  C14S11060   4.600   4.784   5.420  0.6123 -0.1220  0.5439
   8323SM  H14S11061   4.602   4.674   5.405  1.8900 -0.1588  0.8394
   8323SM  H14T11062   4.495   4.821   5.414  0.8856  1.0292  2.2239
   8323SM  C15S11063   4.655   4.825   5.554 -0.2361  0.7144  0.0228
   8323SM  H15S11064   4.575   4.809   5.630 -0.5714 -0.6221 -0.5938
   8323SM  H15T11065   4.666   4.936   5.555 -2.1647  0.9269  0.1619
   8323SM  C16S11066   4.788   4.755   5.604  0.8059  0.1172 -0.6419
   8323SM  H16S11067   4.808   4.791   5.707 -1.2990 -0.9077  0.1842
   8323SM  H16T11068   4.860   4.795   5.529 -0.1906 -0.1954 -1.7955
   8323SM  C17S11069   4.769   4.603   5.606 -0.0568 -0.8469 -0.3916
   8323SM  H17S11070   4.749   4.565   5.504 -0.4997  1.7173 -1.3299
   8323SM  H17T11071   4.678   4.585   5.668 -1.0224  1.2470 -1.1117
   8323SM  C18S11072   4.899   4.548   5.668 -0.4892  0.1213 -0.7356
   8323SM  H18S11073   4.978   4.621   5.642 -0.7381  0.2441 -1.1674
   8323SM  H18T11074   4.925   4.449   5.625 -1.0745 -1.0374  1.4441
   8323SM  H18U11075   4.888   4.538   5.778  1.5481  2.6690 -0.2242
   8323SM   C1F11076   4.426   5.032   4.260  0.3530 -0.1737  0.6565
   8323SM    OF11077   4.306   5.018   4.254  0.6813  0.5538  0.4722
   8323SM   C2F11078   4.492   5.161   4.288 -0.6850  0.3713  0.0498
   8323SM   H2F11079   4.495   5.214   4.191  0.4339 -0.9030 -0.6573
   8323SM   H2G11080   4.599   5.155   4.317 -0.7289  3.0663  1.0609
   8323SM   C3F11081   4.425   5.243   4.414  0.0638  1.0317 -0.6369
   8323SM   H3F11082   4.316   5.251   4.394 -0.4269 -0.4136  1.1904
   8323SM   H3G11083   4.478   5.341   4.412 -1.4703  1.8852 -1.3702
   8323SM   C4F11084   4.460   5.174   4.545  1.1429  0.0725 -0.0266
   8323SM   H4F11085   4.566   5.139   4.543  0.6800 -1.3670 -0.9147
   8323SM   H4G11086   4.384   5.093   4.549  1.6958 -0.5016 -0.7097
   8323SM   C5F11087   4.426   5.262   4.671  0.1407  0.4031  0.0522
   8323SM   H5F11088   4.324   5.303   4.652  0.5378  0.8206 -1.2637
   8323SM   H5G11089   4.494   5.346   4.691  0.2512  0.2320  0.4063
   8323SM   C6F11090   4.420   5.181   4.802  0.5310 -0.3705  0.6010
   8323SM   H6F11091   4.515   5.125   4.816 -0.0959 -2.0926 -1.4148
   8323SM   H6G11092   4.336   5.108   4.798  0.2148 -0.0043  0.5485
   8323SM   C7F11093   4.402   5.252   4.935 -0.2817  0.2031  0.0685
   8323SM   H7F11094   4.311   5.315   4.931  0.3921  1.1759 -0.5180
   8323SM   H7G11095   4.489   5.321   4.936 -0.0010 -0.1388 -0.4803
   8323SM   C8F11096   4.413   5.152   5.049  0.0461  0.3069  0.0348
   8323SM   H8F11097   4.516   5.110   5.044  1.5715  3.7370 -0.1638
   8323SM   H8G11098   4.338   5.071   5.036 -0.7767  0.8457  1.2400
   8323SM   C9F11099   4.410   5.214   5.190  0.2732 -0.1095 -0.1467
   8323SM   H9F11100   4.302   5.238   5.204 -0.0321 -2.3824  2.1034
   8323SM   H9G11101   4.472   5.306   5.197 -1.2872  0.9334  0.8081
   8323SM  C10F11102   4.444   5.131   5.310  0.2726  0.7806  0.9342
   8323SM  H10F11103   4.554   5.137   5.321  0.3867  1.3597 -0.3695
   8323SM  H10G11104   4.412   5.025   5.306  0.7424  0.6605  0.3325
   8323SM  C11F11105   4.390   5.177   5.439 -0.1887 -0.4232 -0.1859
   8323SM  H11F11106   4.279   5.185   5.429 -0.2004 -0.9981 -0.6050
   8323SM  H11G11107   4.418   5.284   5.441 -0.9111 -0.2385  1.5144
   8323SM  C12F11108   4.440   5.104   5.568  0.0182  0.3647  0.3151
   8323SM  H12F11109   4.551   5.096   5.566  0.1516  1.9431  0.3627
   8323SM  H12G11110   4.391   5.005   5.563 -1.8723  1.3186 -1.3863
   8323SM  C13F11111   4.395   5.175   5.695  0.1871  0.4099 -0.4665
   8323SM  H13F11112   4.286   5.192   5.687 -0.5966 -1.7867  3.2758
   8323SM  H13G11113   4.444   5.274   5.705  0.3637  0.1008  3.2075
   8323SM  C14F11114   4.415   5.089   5.814 -0.4432  0.5942 -0.3854
   8323SM  H14F11115   4.521   5.058   5.827 -0.0521  1.8100 -0.5076
   8323SM  H14G11116   4.370   4.988   5.804  0.2247  0.1523  0.8621
   8323SM  C15F11117   4.371   5.151   5.944 -0.2270 -0.3726 -0.1590
   8323SM  H15F11118   4.268   5.192   5.935 -0.3819 -0.2550  1.7439
   8323SM  H15G11119   4.438   5.240   5.955 -0.3328 -0.1259 -1.3577
   8323SM  C16F11120   4.373   5.062   6.070 -0.9552 -0.7304  0.0997
   8323SM  H16F11121   4.321   4.968   6.042 -1.3526 -0.4626 -0.0551
   8323SM  H16G11122   4.310   5.116   6.144 -1.0743  2.1756 -1.9436
   8323SM  C17F11123   4.515   5.035   6.132  0.9068 -0.2575  0.4097
   8323SM  H17F11124   4.572   5.129   6.151 -0.7969  1.3486 -1.8122
   8323SM  H17G11125   4.580   4.974   6.066  0.6357  0.6882 -0.7657
   8323SM  C18F11126   4.498   4.949   6.255  0.1560 -0.6093 -0.0420
   8323SM  H18F11127   4.437   4.858   6.239  1.7577 -2.1437  1.9832
   8323SM  H18G11128   4.432   4.998   6.330 -0.1576 -0.0060 -0.7053
   8323SM  C19F11129   4.618   4.901   6.332 -0.2176 -0.1697  0.0107
   8323SM  H19F11130   4.585   4.860   6.430 -3.1031  1.6485 -0.1039
   8323SM  H19G11131   4.683   4.984   6.366 -1.0699  0.4303  0.1922
   8323SM  C20F11132   4.698   4.790   6.261  0.1127 -0.3349  0.1584
   8323SM  H20F11133   4.695   4.824   6.156  0.0137  1.3423  0.6865
   8323SM  H20G11134   4.628   4.703   6.257 -2.1033  1.4053 -0.7404
   8323SM  C21F11135   4.837   4.771   6.312 -1.0828  0.5007 -0.2403
   8323SM  H21F11136   4.883   4.873   6.308  0.9406 -0.2896  1.1449
   8323SM  H21G11137   4.899   4.693   6.263  0.2303  2.1459 -1.3344
   8323SM  C22F11138   4.840   4.730   6.458  0.4085 -0.4310 -0.3439
   8323SM  H22F11139   4.761   4.654   6.479  0.2528 -0.9947 -2.7453
   8323SM  H22G11140   4.812   4.818   6.520 -0.2179 -1.3127  0.6713
   8323SM  C23F11141   4.975   4.674   6.515  0.4884 -0.3627 -0.7494
   8323SM  H23F11142   5.046   4.756   6.542  0.5962 -0.9162  0.7828
   8323SM  H23G11143   5.018   4.600   6.445  1.9213 -0.7291  0.4606
   8323SM  H23H11144   4.939   4.630   6.611  0.3454  0.6030 -0.3408
   8423SM     N11145   3.310   3.886   3.651  0.5160  0.1655 -0.1423
   8423SM   C1511146   3.220   3.997   3.702 -0.2682  1.2070  0.9217
   8423SM  H15A11147   3.275   4.085   3.733  3.4529 -0.2684 -0.9438
   8423SM  H15B11148   3.164   3.952   3.783 -2.8500  0.7685 -0.9589
   8423SM  H15C11149   3.143   4.013   3.627  1.3774  0.1090 -1.0978
   8423SM   C1411150   3.233   3.756   3.640  0.5798  0.3591 -0.4995
   8423SM  H14A11151   3.141   3.775   3.587 -0.1022 -1.4787 -0.0850
   8423SM  H14B11152   3.205   3.702   3.730 -0.9496 -0.1860 -1.2717
   8423SM  H14C11153   3.286   3.678   3.587  0.5961  0.4252 -0.5811
   8423SM   C1311154   3.360   3.920   3.516 -1.1222 -0.1201 -0.3784
   8423SM  H13A11155   3.442   3.857   3.485  1.0440  2.7308 -0.9725
   8423SM  H13B11156   3.406   4.018   3.505  0.5025 -1.0285 -2.2416
   8423SM  H13C11157   3.287   3.917   3.437 -2.0910  0.3964  0.4774
   8423SM   C1211158   3.433   3.865   3.741 -0.0680  0.0340  0.0984
   8423SM  H12A11159   3.476   3.769   3.718  0.5600  0.3126  0.0881
   8423SM  H12B11160   3.398   3.862   3.843  1.0311 -1.8583  0.4668
   8423SM   C1111161   3.551   3.969   3.736 -0.0343  0.1481  0.0790
   8423SM  H11A11162   3.595   3.957   3.635  0.5039 -0.8019  0.4136
   8423SM  H11B11163   3.632   3.940   3.805 -0.2897 -0.9568 -0.0774
   8423SM     P11164   3.512   4.176   3.894 -0.2333  0.0799 -0.4218
   8423SM   O1311165   3.627   4.274   3.895  0.2141 -0.2966 -0.3432
   8423SM   O1411166   3.377   4.231   3.915  0.5870 -0.0346  0.1493
   8423SM   O1111167   3.537   4.058   4.001 -0.1657 -0.6381  0.3892
   8423SM   O1211168   3.513   4.104   3.755  0.4622  0.3303  0.1784
   8423SM   C1S11169   3.446   4.026   4.100 -0.0723 -0.5121  0.4019
   8423SM   H1S11170   3.348   4.006   4.054 -0.4654 -0.3543  1.1477
   8423SM   H1T11171   3.426   4.117   4.161 -1.6472 -0.1950 -0.5291
   8423SM    NF11172   3.380   3.872   4.297 -0.5180 -0.2453  0.3337
   8423SM   HNF11173   3.374   3.903   4.392  0.0030 -1.7225  0.8728
   8423SM   C2S11174   3.489   3.911   4.203  0.1415 -0.9377  0.7255
   8423SM   H2S11175   3.512   3.823   4.139  0.9275 -0.3076  0.1169
   8423SM   C3S11176   3.620   3.954   4.275 -0.4385 -0.5823 -0.9464
   8423SM   H3S11177   3.593   4.045   4.333  1.6316 -0.0823 -0.6862
   8423SM    O311178   3.723   4.012   4.192  0.2978  0.5566 -1.2680
   8423SM   HO311179   3.671   4.043   4.118  0.1173  1.5046 -0.7573
   8423SM   C4S11180   3.678   3.845   4.366  0.4697 -1.1577  0.1281
   8423SM   H4S11181   3.631   3.850   4.466  1.7007 -1.4272  0.7299
   8423SM   C5S11182   3.777   3.751   4.345  0.2449  0.3304 -0.3724
   8423SM   H5S11183   3.826   3.745   4.246  0.0747 -0.6930 -0.4026
   8423SM   C6S11184   3.822   3.656   4.451  0.1727  0.0692  0.4084
   8423SM   H6S11185   3.928   3.629   4.430 -0.3239 -0.9795 -0.8654
   8423SM   H6T11186   3.761   3.564   4.447  1.2035 -0.5825 -1.5849
   8423SM   C7S11187   3.802   3.712   4.590 -0.5667 -0.9404 -0.0897
   8423SM   H7S11188   3.694   3.713   4.613 -0.2617  2.0626  1.7758
   8423SM   H7T11189   3.836   3.818   4.584 -0.9139 -0.8378 -0.2569
   8423SM   C8S11190   3.884   3.639   4.700  0.0892 -0.8861  1.0082
   8423SM   H8S11191   3.980   3.599   4.661  0.0321 -0.8724  0.8528
   8423SM   H8T11192   3.825   3.547   4.718 -1.8812  0.3331  1.0642
   8423SM   C9S11193   3.900   3.723   4.823  0.6314  0.1418  0.4476
   8423SM   H9S11194   3.811   3.780   4.857  0.3960 -0.9410  1.7395
   8423SM   H9T11195   3.987   3.792   4.826  1.9811 -1.2458 -2.6835
   8423SM  C10S11196   3.904   3.632   4.947 -0.6319  0.3580  0.4867
   8423SM  H10S11197   3.984   3.555   4.943 -3.0963 -2.2780 -1.7422
   8423SM  H10T11198   3.814   3.568   4.943  0.1360 -0.7679  0.7301
   8423SM  C11S11199   3.908   3.722   5.073 -0.1053 -0.4543 -0.4358
   8423SM  H11S11200   3.822   3.792   5.061 -0.8219 -1.3139 -0.3930
   8423SM  H11T11201   4.001   3.782   5.078 -0.3410 -0.1954  1.7827
   8423SM  C12S11202   3.900   3.631   5.202  0.1053  0.1698  0.6007
   8423SM  H12S11203   3.987   3.562   5.209  0.5631  0.7416  0.6445
   8423SM  H12T11204   3.808   3.568   5.199 -0.8205  1.5085 -0.5562
   8423SM  C13S11205   3.902   3.711   5.335 -0.2649 -0.6068 -0.5151
   8423SM  H13S11206   3.810   3.774   5.341  0.4896  0.4251  1.8073
   8423SM  H13T11207   3.988   3.781   5.340 -0.9859  0.3178 -0.7451
   8423SM  C14S11208   3.898   3.621   5.460  0.4331  0.2272 -0.2023
   8423SM  H14S11209   3.990   3.559   5.461 -1.5182 -2.9489 -1.6403
   8423SM  H14T11210   3.807   3.557   5.455 -1.0623  1.9432  2.7961
   8423SM  C15S11211   3.876   3.693   5.596 -0.2931 -1.0880  0.4266
   8423SM  H15S11212   3.780   3.748   5.596 -0.8621 -2.0672  1.3637
   8423SM  H15T11213   3.952   3.774   5.605 -0.2477 -1.0105 -0.5120
   8423SM  C16S11214   3.877   3.603   5.715  0.4321  0.8806 -0.3590
   8423SM  H16S11215   3.960   3.532   5.693 -0.8985 -0.6811 -0.5193
   8423SM  H16T11216   3.786   3.541   5.728 -0.1637  1.6222 -0.9265
   8423SM  C17S11217   3.910   3.661   5.858  0.5516  0.1327  0.5232
   8423SM  H17S11218   3.856   3.758   5.861  0.9092  0.3328  0.5279
   8423SM  H17T11219   4.019   3.682   5.855  0.7561 -0.8905 -1.5304
   8423SM  C18S11220   3.876   3.574   5.978 -0.5126  0.1018  0.3106
   8423SM  H18S11221   3.782   3.608   6.026 -0.0270  1.4378  0.3480
   8423SM  H18T11222   3.955   3.584   6.055 -1.5959  1.7891  1.2807
   8423SM  H18U11223   3.883   3.465   5.956 -2.9483  0.1215 -0.9384
   8423SM   C1F11224   3.283   3.792   4.251  0.1689 -0.6935 -0.2833
   8423SM    OF11225   3.268   3.763   4.131 -0.4380 -0.0284  0.0398
   8423SM   C2F11226   3.179   3.737   4.349 -0.6468  0.3112  0.3051
   8423SM   H2F11227   3.129   3.648   4.303  0.8667 -1.7398  2.3943
   8423SM   H2G11228   3.096   3.810   4.361 -2.1091 -0.9845 -1.3168
   8423SM   C3F11229   3.236   3.696   4.487  0.2413  0.5665 -0.3759
   8423SM   H3F11230   3.305   3.778   4.516  3.1021 -1.9154  0.3897
   8423SM   H3G11231   3.300   3.608   4.464  0.3989  0.9063 -1.2729
   8423SM   C4F11232   3.137   3.658   4.600 -0.2798  0.4038 -0.1354
   8423SM   H4F11233   3.061   3.597   4.547 -1.2891  1.8209 -0.3786
   8423SM   H4G11234   3.101   3.757   4.635 -0.7584  1.3126 -2.8967
   8423SM   C5F11235   3.206   3.587   4.719 -0.4107 -0.2377  0.0731
   8423SM   H5F11236   3.275   3.507   4.684 -2.0744 -1.4424 -0.6162
   8423SM   H5G11237   3.126   3.557   4.790 -2.1612 -1.1684 -2.1594
   8423SM   C6F11238   3.306   3.677   4.795 -0.0514 -0.0331  0.4741
   8423SM   H6F11239   3.246   3.766   4.824 -0.4276  1.0711 -3.1580
   8423SM   H6G11240   3.379   3.721   4.723 -0.2057  1.0023  0.9304
   8423SM   C7F11241   3.386   3.619   4.909 -0.2011 -0.3078 -0.1089
   8423SM   H7F11242   3.453   3.538   4.873 -0.1203  0.3442 -1.5111
   8423SM   H7G11243   3.316   3.585   4.988 -1.0814  0.0076 -0.7300
   8423SM   C8F11244   3.464   3.738   4.976 -0.3010 -0.1886 -0.7260
   8423SM   H8F11245   3.408   3.831   5.000  0.4723 -0.4649  2.6529
   8423SM   H8G11246   3.557   3.762   4.921  0.4967  0.0212  0.6601
   8423SM   C9F11247   3.529   3.693   5.111  0.0150  0.1912 -0.2036
   8423SM   H9F11248   3.597   3.773   5.151  0.1756 -1.0330  2.1793
   8423SM   H9G11249   3.590   3.601   5.103 -0.6068 -0.3564  1.0245
   8423SM  C10F11250   3.436   3.675   5.229 -0.0841 -0.7508  0.1006
   8423SM  H10F11251   3.355   3.613   5.186  0.4167  0.2470 -2.4348
   8423SM  H10G11252   3.389   3.770   5.262 -1.5220 -0.8532 -1.5268
   8423SM  C11F11253   3.491   3.606   5.353  0.1527 -0.2688  0.5036
   8423SM  H11F11254   3.588   3.657   5.374  1.1813 -0.9093 -2.2695
   8423SM  H11G11255   3.515   3.501   5.328 -0.3615  0.3650 -3.3250
   8423SM  C12F11256   3.397   3.616   5.469  0.0786  0.2581 -1.2592
   8423SM  H12F11257   3.300   3.565   5.449  0.1109  0.0194 -0.8217
   8423SM  H12G11258   3.374   3.724   5.486 -1.3840 -0.1173 -0.7162
   8423SM  C13F11259   3.446   3.565   5.606  0.5066  0.6618 -0.4161
   8423SM  H13F11260   3.548   3.602   5.626  1.5493 -1.9482 -0.5194
   8423SM  H13G11261   3.466   3.456   5.598 -0.0571  0.5282 -0.1014
   8423SM  C14F11262   3.343   3.588   5.711  0.2299 -0.2373 -0.9027
   8423SM  H14F11263   3.259   3.516   5.699 -0.9119  0.7367  0.8482
   8423SM  H14G11264   3.293   3.686   5.699 -0.6131 -0.4425  0.7335
   8423SM  C15F11265   3.396   3.562   5.853  0.4387 -0.1304 -0.0898
   8423SM  H15F11266   3.484   3.628   5.870 -1.1184  2.0207  0.0180
   8423SM  H15G11267   3.413   3.452   5.860  0.0623 -0.4052 -2.4297
   8423SM  C16F11268   3.299   3.612   5.960 -0.0378  0.1494 -0.7653
   8423SM  H16F11269   3.270   3.720   5.954 -0.3953  0.1447  0.5838
   8423SM  H16G11270   3.355   3.618   6.056 -0.1407  1.8682 -0.7667
   8423SM  C17F11271   3.173   3.520   5.973 -0.7510  0.3876 -0.4059
   8423SM  H17F11272   3.114   3.528   5.879 -1.5166  1.4558  0.1510
   8423SM  H17G11273   3.111   3.561   6.056  1.3268  1.5179  0.6909
   8423SM  C18F11274   3.198   3.373   5.990 -0.2094  0.3292  0.3131
   8423SM  H18F11275   3.275   3.371   6.071  0.3941  0.6539 -0.2517
   8423SM  H18G11276   3.230   3.321   5.898  0.4208  1.0343  0.1340
   8423SM  C19F11277   3.079   3.288   6.054 -0.3987 -0.3407 -0.0670
   8423SM  H19F11278   2.993   3.283   5.985 -0.5706 -0.8788  0.1794
   8423SM  H19G11279   3.044   3.351   6.138  0.3573  0.9177 -0.6689
   8423SM  C20F11280   3.108   3.146   6.103 -0.0331 -0.3195  0.1407
   8423SM  H20F11281   3.198   3.146   6.168 -0.4047 -0.7859  0.6637
   8423SM  H20G11282   3.120   3.084   6.012 -0.3411  1.4684 -1.1629
   8423SM  C21F11283   2.995   3.088   6.194  0.1980  1.2363 -0.2026
   8423SM  H21F11284   2.976   3.163   6.275  2.4558 -0.2370  1.8393
   8423SM  H21G11285   3.031   2.995   6.243 -0.2174  1.0197 -0.3053
   8423SM  C22F11286   2.861   3.042   6.132  0.3486 -0.4286  0.0535
   8423SM  H22F11287   2.865   2.985   6.037  1.6792 -0.0103 -0.1617
   8423SM  H22G11288   2.809   3.134   6.098 -0.8437 -1.3285 -0.6561
   8423SM  C23F11289   2.769   2.978   6.238  0.0993  0.1027  0.2942
   8423SM  H23F11290   2.773   3.054   6.319  2.1069  1.5602 -1.0852
   8423SM  H23G11291   2.811   2.883   6.276  0.5838  0.4671  0.6728
   8423SM  H23H11292   2.666   2.945   6.210  0.3995  0.5222 -1.4052
   8523SM     N11293   5.011   5.030   3.158 -0.4575  0.4508  0.2034
   8523SM   C1511294   5.070   5.081   3.037  0.3568  0.0440 -0.5399
   8523SM  H15A11295   5.105   5.182   3.056  0.2859 -0.2850  1.5857
   8523SM  H15B11296   4.995   5.102   2.962 -0.3400  2.8574  0.8092
   8523SM  H15C11297   5.150   5.020   2.998 -1.2901 -2.5125 -0.1739
   8523SM   C1411298   4.887   5.110   3.190  0.2598  0.3757  0.0195
   8523SM  H14A11299   4.821   5.088   3.107  0.9346  1.2266 -0.7585
   8523SM  H14B11300   4.902   5.217   3.189  3.2463  0.0392  0.1074
   8523SM  H14C11301   4.831   5.077   3.277 -1.7181  0.1599 -1.2636
   8523SM   C1311302   4.969   4.886   3.135 -0.0533  0.0909  0.0919
   8523SM  H13A11303   5.052   4.818   3.133  0.7765  1.0929 -0.2673
   8523SM  H13B11304   4.928   4.880   3.036  0.4859  1.6786 -0.2529
   8523SM  H13C11305   4.895   4.855   3.208  0.4034 -0.7985  0.1939
   8523SM   C1211306   5.106   5.035   3.276  0.0772  0.6316  0.0212
   8523SM  H12A11307   5.142   5.135   3.298  1.1869 -0.0358  1.4105
   8523SM  H12B11308   5.194   4.984   3.242 -2.2309 -1.9790 -2.5044
   8523SM   C1111309   5.057   4.963   3.408  0.4938 -0.5260  0.4693
   8523SM  H11A11310   5.146   4.969   3.473  0.4190 -1.5006  0.6738
   8523SM  H11B11311   5.039   4.854   3.398  1.0780 -0.7407  1.6371
   8523SM     P11312   4.810   4.957   3.514 -0.3242 -0.1279  0.1380
   8523SM   O1311313   4.734   5.042   3.599 -0.1284 -0.0276 -0.3498
   8523SM   O1411314   4.743   4.892   3.397 -0.3748 -0.2862 -0.3195
   8523SM   O1111315   4.862   4.843   3.609 -0.5522 -0.5374 -0.0837
   8523SM   O1211316   4.944   5.033   3.466  0.9795 -0.5662 -0.1893
   8523SM   C1S11317   4.963   4.878   3.709 -0.3136 -0.1612 -0.3704
   8523SM   H1S11318   4.945   4.978   3.756  0.0484  0.1657 -0.9162
   8523SM   H1T11319   5.067   4.875   3.670 -0.7325  1.3799 -1.7180
   8523SM    NF11320   5.039   4.811   3.937 -0.2242  0.1786 -0.1046
   8523SM   HNF11321   5.127   4.765   3.930 -1.2354 -1.7713 -0.8009
   8523SM   C2S11322   4.946   4.775   3.828 -0.5820  0.3074  0.5227
   8523SM   H2S11323   4.841   4.786   3.860 -0.3924 -1.1969  1.7553
   8523SM   C3S11324   4.976   4.635   3.768 -0.3684  0.2546 -0.3690
   8523SM   H3S11325   5.082   4.636   3.734 -1.1252 -2.2236 -3.2283
   8523SM    O311326   4.910   4.601   3.648 -0.3422  0.3022  0.3729
   8523SM   HO311327   4.871   4.681   3.614 -0.3445  0.4253  0.6678
   8523SM   C4S11328   4.968   4.527   3.879  0.1012 -0.5114  0.0275
   8523SM   H4S11329   5.058   4.491   3.932  1.0383  0.7911 -0.6129
   8523SM   C5S11330   4.853   4.464   3.910 -0.0422  0.1859  0.3843
   8523SM   H5S11331   4.771   4.495   3.843  2.3392 -0.0708 -2.9271
   8523SM   C6S11332   4.836   4.362   4.018 -0.1116 -0.3614  0.4925
   8523SM   H6S11333   4.837   4.265   3.965 -0.5171  0.1326 -0.4474
   8523SM   H6T11334   4.741   4.372   4.075 -1.5272  0.1848 -1.8614
   8523SM   C7S11335   4.951   4.369   4.125 -0.0941 -0.0345 -0.3544
   8523SM   H7S11336   4.962   4.475   4.156 -1.8527  0.3998 -1.1101
   8523SM   H7T11337   5.049   4.336   4.084 -0.4943  0.2377 -1.5619
   8523SM   C8S11338   4.921   4.285   4.250 -0.2120  0.0064  0.1634
   8523SM   H8S11339   4.949   4.179   4.235  2.7170  0.6206  0.6587
   8523SM   H8T11340   4.812   4.291   4.272 -1.0230 -1.2033 -2.9963
   8523SM   C9S11341   5.004   4.327   4.370  0.1447 -0.4801 -0.4967
   8523SM   H9S11342   4.987   4.435   4.390 -0.0393 -0.2717 -1.7087
   8523SM   H9T11343   5.110   4.314   4.340  0.0128 -0.8286 -0.8131
   8523SM  C10S11344   4.982   4.243   4.493 -0.0831 -0.1496  0.3605
   8523SM  H10S11345   4.991   4.135   4.467 -0.5269 -0.4092  1.2571
   8523SM  H10T11346   4.874   4.264   4.511 -0.3716  0.0946 -1.4288
   8523SM  C11S11347   5.066   4.287   4.617 -0.8133 -0.4942 -0.0408
   8523SM  H11S11348   5.058   4.397   4.613 -1.2345 -0.5533 -1.2853
   8523SM  H11T11349   5.169   4.249   4.600 -0.1939  0.6613  1.0127
   8523SM  C12S11350   5.014   4.234   4.757  0.0162 -0.2375 -0.5751
   8523SM  H12S11351   5.032   4.124   4.758  1.0695 -0.1600 -3.0648
   8523SM  H12T11352   4.907   4.262   4.760  0.9611  3.8107 -0.0596
   8523SM  C13S11353   5.090   4.315   4.859  0.4093 -0.9556  0.7269
   8523SM  H13S11354   5.069   4.423   4.842  0.1868 -0.8984  1.3393
   8523SM  H13T11355   5.200   4.309   4.842  0.0975 -1.4835 -1.3125
   8523SM  C14S11356   5.064   4.278   5.005  0.2153 -0.4568 -0.0395
   8523SM  H14S11357   5.073   4.170   5.029 -2.5605 -0.7473 -0.0726
   8523SM  H14T11358   4.957   4.294   5.030 -0.3451 -1.2379 -1.8052
   8523SM  C15S11359   5.160   4.358   5.102 -0.5126 -0.1359 -0.3290
   8523SM  H15S11360   5.132   4.465   5.094  1.0394  0.2874 -0.4151
   8523SM  H15T11361   5.263   4.329   5.071 -1.3105 -2.8834 -0.6665
   8523SM  C16S11362   5.136   4.327   5.252  0.3774  0.8572 -0.5916
   8523SM  H16S11363   5.031   4.357   5.275  0.1829  0.7441 -1.3047
   8523SM  H16T11364   5.205   4.396   5.304  1.0748  0.5494 -1.0954
   8523SM  C17S11365   5.156   4.187   5.303 -0.0964 -0.6053 -0.5172
   8523SM  H17S11366   5.257   4.161   5.264  0.7331  0.4310  0.8178
   8523SM  H17T11367   5.091   4.111   5.255 -1.6060  0.7499 -0.7030
   8523SM  C18S11368   5.159   4.181   5.461 -0.0682 -0.6038  0.9509
   8523SM  H18S11369   5.227   4.259   5.500  1.0827 -1.4041  0.6031
   8523SM  H18T11370   5.202   4.084   5.493  1.1738 -0.1065  0.8139
   8523SM  H18U11371   5.055   4.184   5.501 -0.3201  1.1625  0.2560
   8523SM   C1F11372   5.026   4.927   4.008 -0.4796 -0.3742 -0.5477
   8523SM    OF11373   4.920   4.981   4.008  0.7933  0.4825  0.0578
   8523SM   C2F11374   5.144   4.968   4.081  0.1386  0.1546 -0.2151
   8523SM   H2F11375   5.228   4.945   4.011 -0.2880  1.2197 -1.0993
   8523SM   H2G11376   5.175   4.907   4.169 -1.1434  0.6015  0.5721
   8523SM   C3F11377   5.149   5.121   4.120  0.4859 -0.0277  0.7218
   8523SM   H3F11378   5.086   5.127   4.211 -0.4559  2.0085  0.0055
   8523SM   H3G11379   5.108   5.184   4.038 -1.4535 -2.6695 -0.5065
   8523SM   C4F11380   5.291   5.167   4.149 -0.4965 -0.2705 -0.2348
   8523SM   H4F11381   5.303   5.277   4.146 -2.5210 -0.0058  0.1070
   8523SM   H4G11382   5.352   5.125   4.066  1.5123 -2.1668  2.0373
   8523SM   C5F11383   5.347   5.106   4.275 -0.8960  0.5726 -0.1176
   8523SM   H5F11384   5.457   5.119   4.273 -0.3156 -2.7220  1.6829
   8523SM   H5G11385   5.333   4.996   4.263  0.2714  0.1669  1.8078
   8523SM   C6F11386   5.293   5.147   4.413 -0.3342  1.1072  0.0523
   8523SM   H6F11387   5.356   5.081   4.476 -0.6220 -0.6587 -1.4205
   8523SM   H6G11388   5.187   5.115   4.421  0.3951 -1.2694  0.8456
   8523SM   C7F11389   5.308   5.289   4.458 -0.0517  0.5389  0.2369
   8523SM   H7F11390   5.236   5.359   4.408  1.4091  2.0853  0.2061
   8523SM   H7G11391   5.410   5.321   4.427 -0.6614  2.0390 -0.3347
   8523SM   C8F11392   5.293   5.318   4.613  0.0658 -0.2401 -0.8728
   8523SM   H8F11393   5.363   5.267   4.682 -0.2593 -1.6660 -1.5680
   8523SM   H8G11394   5.195   5.276   4.644 -0.0372  2.1476  2.8248
   8523SM   C9F11395   5.296   5.468   4.641 -0.7448 -0.2039 -0.4356
   8523SM   H9F11396   5.204   5.500   4.587 -1.7954 -0.8087  0.9372
   8523SM   H9G11397   5.384   5.514   4.592 -0.2134  2.3700  2.5930
   8523SM  C10F11398   5.303   5.504   4.785  0.3441  0.6110 -0.6135
   8523SM  H10F11399   5.327   5.612   4.777  0.9220  0.3789 -2.4146
   8523SM  H10G11400   5.384   5.450   4.838  0.3075 -0.3026 -1.4625
   8523SM  C11F11401   5.170   5.495   4.863  1.1025  0.1781  0.0064
   8523SM  H11F11402   5.140   5.388   4.868  1.9439 -0.0667  0.0839
   8523SM  H11G11403   5.093   5.541   4.797  1.2193  1.3452  0.6624
   8523SM  C12F11404   5.158   5.556   5.000 -0.3881  0.5870  0.0129
   8523SM  H12F11405   5.054   5.537   5.034 -0.3797  0.5532  0.0212
   8523SM  H12G11406   5.172   5.666   4.990  1.1493  0.7612  2.8834
   8523SM  C13F11407   5.257   5.490   5.095 -0.7537 -0.3716 -0.4020
   8523SM  H13F11408   5.363   5.520   5.080 -1.3162  1.5757 -0.8102
   8523SM  H13G11409   5.251   5.379   5.088  2.4121 -0.7389  0.8921
   8523SM  C14F11410   5.228   5.532   5.242  1.4044 -0.2486  0.6037
   8523SM  H14F11411   5.136   5.482   5.277  0.9178 -0.5815 -1.0485
   8523SM  H14G11412   5.204   5.640   5.238  1.7201 -0.2074 -0.4957
   8523SM  C15F11413   5.349   5.505   5.326 -0.1977 -0.2569  0.4904
   8523SM  H15F11414   5.442   5.543   5.278 -0.3899  0.8263  0.9560
   8523SM  H15G11415   5.350   5.394   5.335 -2.2391 -0.3930 -0.4944
   8523SM  C16F11416   5.354   5.570   5.467 -0.5689  0.6141  0.0116
   8523SM  H16F11417   5.364   5.680   5.455 -0.2291  0.5166 -0.6914
   8523SM  H16G11418   5.450   5.535   5.510 -1.5806 -2.1941  0.1739
   8523SM  C17F11419   5.244   5.523   5.551 -0.3647 -0.4736 -0.2111
   8523SM  H17F11420   5.228   5.415   5.531 -0.2437 -0.4360 -0.5214
   8523SM  H17G11421   5.156   5.584   5.522  1.0129  2.1961  0.8685
   8523SM  C18F11422   5.279   5.534   5.705 -0.0470 -0.3307 -0.0768
   8523SM  H18F11423   5.330   5.629   5.731 -1.0512  0.0185  0.6715
   8523SM  H18G11424   5.351   5.451   5.723 -1.6774 -1.6076  0.8711
   8523SM  C19F11425   5.154   5.533   5.796  0.1376 -0.0336  0.0935
   8523SM  H19F11426   5.103   5.434   5.794 -0.8861  0.3886  2.1577
   8523SM  H19G11427   5.093   5.620   5.765  2.3424  0.8525 -2.0825
   8523SM  C20F11428   5.184   5.563   5.950 -0.0302 -0.4289  0.4049
   8523SM  H20F11429   5.284   5.521   5.975 -1.0495 -2.3304  1.5432
   8523SM  H20G11430   5.101   5.517   6.008 -1.5488  1.0364 -0.5101
   8523SM  C21F11431   5.174   5.717   5.979  0.4975 -0.4376 -0.9234
   8523SM  H21F11432   5.066   5.732   6.002  0.1250 -0.3442 -2.6248
   8523SM  H21G11433   5.205   5.777   5.891  1.7668  1.0015  0.4405
   8523SM  C22F11434   5.256   5.760   6.100 -0.9180  0.3419 -0.1569
   8523SM  H22F11435   5.272   5.670   6.164 -1.0021  1.2433  1.1762
   8523SM  H22G11436   5.199   5.837   6.156 -1.3263 -1.2901  1.8129
   8523SM  C23F11437   5.392   5.809   6.059  0.2454 -0.1407 -1.3839
   8523SM  H23F11438   5.454   5.718   6.048 -2.5831 -2.1473 -2.1087
   8523SM  H23G11439   5.430   5.874   6.140  1.2143 -0.5032 -1.5408
   8523SM  H23H11440   5.385   5.868   5.965  0.8057  1.7336 -0.2924
   8623SM     N11441   3.885   3.560   3.193  0.3624 -0.0862 -0.3432
   8623SM   C1511442   3.951   3.658   3.104 -0.3825  1.2723 -0.3314
   8623SM  H15A11443   4.056   3.630   3.097 -0.3169  0.9412  1.5369
   8623SM  H15B11444   3.945   3.756   3.147  0.9842  1.4248 -0.4386
   8623SM  H15C11445   3.912   3.662   3.004 -1.9587 -0.7222  0.1340
   8623SM   C1411446   3.886   3.417   3.141  0.1287  0.1425 -0.2015
   8623SM  H14A11447   3.822   3.401   3.055  0.3694  0.1087 -0.3744
   8623SM  H14B11448   3.851   3.347   3.215  0.7297  0.9924  0.9095
   8623SM  H14C11449   3.986   3.391   3.111  0.2146 -0.2329  0.3909
   8623SM   C1311450   3.954   3.557   3.329 -0.5831  0.0365 -0.4090
   8623SM  H13A11451   3.893   3.496   3.394 -0.9239  1.1369  0.3357
   8623SM  H13B11452   3.969   3.656   3.369  1.9996 -0.7429  0.7677
   8623SM  H13C11453   4.053   3.516   3.317  0.9444  3.1693  0.3912
   8623SM   C1211454   3.740   3.604   3.219  0.0687 -0.1502 -0.1675
   8623SM  H12A11455   3.692   3.609   3.122 -0.0328 -0.0431 -0.1133
   8623SM  H12B11456   3.742   3.705   3.257  0.7194  0.3260 -1.3978
   8623SM   C1111457   3.644   3.516   3.306 -0.1292  0.0121 -0.2383
   8623SM  H11A11458   3.630   3.415   3.262 -1.6701 -0.0540  0.3432
   8623SM  H11B11459   3.550   3.573   3.296  0.1480  1.0334  2.1707
   8623SM     P11460   3.679   3.641   3.539 -0.1778  0.4577 -0.1809
   8623SM   O1311461   3.812   3.673   3.598 -0.1280 -0.8934  0.0586
   8623SM   O1411462   3.600   3.743   3.475  0.3134 -0.0959  0.0770
   8623SM   O1111463   3.604   3.577   3.659 -0.4735  0.2151 -0.0313
   8623SM   O1211464   3.698   3.522   3.430  0.1486 -0.9190 -0.1513
   8623SM   C1S11465   3.655   3.470   3.738  0.0547 -0.9793  0.4504
   8623SM   H1S11466   3.766   3.475   3.730  0.1954  3.4891  2.4532
   8623SM   H1T11467   3.625   3.371   3.697  0.5440 -0.1613 -2.0992
   8623SM    NF11468   3.704   3.399   3.970 -0.0718  0.7192 -0.3095
   8623SM   HNF11469   3.668   3.316   4.012  1.1838 -0.2897 -1.1515
   8623SM   C2S11470   3.610   3.478   3.890  0.3364 -0.6277  0.5900
   8623SM   H2S11471   3.618   3.584   3.924 -3.1404 -0.3477  0.8464
   8623SM   C3S11472   3.459   3.450   3.891  0.6923 -0.4111 -0.4404
   8623SM   H3S11473   3.447   3.354   3.837  1.0640 -1.1377  0.7397
   8623SM    O311474   3.386   3.549   3.824  0.2176  0.1896  0.4512
   8623SM   HO311475   3.455   3.596   3.775  0.7800 -0.8446  0.2278
   8623SM   C4S11476   3.403   3.445   4.030  0.3587  0.1807 -0.6678
   8623SM   H4S11477   3.437   3.525   4.096  0.8862 -0.7593  0.2371
   8623SM   C5S11478   3.327   3.345   4.080  0.1189  0.6981 -0.4497
   8623SM   H5S11479   3.305   3.254   4.022 -1.6925  2.1889 -2.2339
   8623SM   C6S11480   3.295   3.355   4.225 -0.5328 -0.3783  0.2316
   8623SM   H6S11481   3.332   3.447   4.276 -1.1780  0.1098 -0.1662
   8623SM   H6T11482   3.352   3.270   4.268  2.8328  1.3058 -0.5446
   8623SM   C7S11483   3.147   3.341   4.260  0.0147  0.5653  0.2064
   8623SM   H7S11484   3.099   3.260   4.202  0.5932  1.4029 -1.5154
   8623SM   H7T11485   3.094   3.437   4.242  0.3984  1.0237  1.4503
   8623SM   C8S11486   3.122   3.314   4.415 -0.4526  0.1816 -0.6177
   8623SM   H8S11487   3.021   3.345   4.452 -0.4306 -0.1292 -0.2952
   8623SM   H8T11488   3.189   3.380   4.475 -2.0264 -0.2644  1.7989
   8623SM   C9S11489   3.146   3.161   4.454  0.3340 -0.0264 -0.1516
   8623SM   H9S11490   3.250   3.129   4.434  0.7380 -1.0148  2.9968
   8623SM   H9T11491   3.104   3.092   4.377  1.2186 -0.7088 -0.0378
   8623SM  C10S11492   3.113   3.114   4.594  0.1174 -0.4781 -0.7679
   8623SM  H10S11493   3.159   3.016   4.615 -0.5925 -1.1218 -2.0967
   8623SM  H10T11494   3.003   3.098   4.601  0.0529  0.4693  1.0537
   8623SM  C11S11495   3.146   3.221   4.696 -0.2876  0.6031  0.0835
   8623SM  H11S11496   3.092   3.317   4.689 -0.6224  0.2809 -2.4224
   8623SM  H11T11497   3.250   3.255   4.673  1.3189 -1.9028  2.8166
   8623SM  C12S11498   3.158   3.182   4.849 -0.0505  0.3995 -0.2082
   8623SM  H12S11499   3.214   3.089   4.874  0.4591  0.9020  0.5760
   8623SM  H12T11500   3.056   3.163   4.888  0.4346 -0.9646  0.4736
   8623SM  C13S11501   3.229   3.298   4.920 -0.7763  0.1000 -0.9330
   8623SM  H13S11502   3.167   3.389   4.904 -0.6890  0.4919  0.8363
   8623SM  H13T11503   3.328   3.307   4.870  0.4746 -0.8647  1.2615
   8623SM  C14S11504   3.236   3.275   5.070  0.3994 -0.5503 -0.1171
   8623SM  H14S11505   3.300   3.359   5.104  0.5955 -1.4411  1.8748
   8623SM  H14T11506   3.291   3.180   5.087 -1.2178 -1.4748  0.1299
   8623SM  C15S11507   3.108   3.263   5.147  0.0410 -0.0051  0.8523
   8623SM  H15S11508   3.066   3.161   5.136 -0.8482  0.4527 -0.1837
   8623SM  H15T11509   3.035   3.343   5.125 -1.7075 -1.4976  0.9901
   8623SM  C16S11510   3.138   3.296   5.296 -0.2248  0.1788 -0.7335
   8623SM  H16S11511   3.196   3.391   5.296  1.5525 -0.8252  1.2993
   8623SM  H16T11512   3.194   3.210   5.337  0.6531  0.8383 -0.5139
   8623SM  C17S11513   3.012   3.313   5.377  0.1074 -0.8205 -0.2607
   8623SM  H17S11514   2.933   3.242   5.346  0.1448 -1.2760  0.6401
   8623SM  H17T11515   2.981   3.413   5.340  0.4792 -1.3892 -2.1834
   8623SM  C18S11516   3.031   3.323   5.531  0.5529  0.1850  0.9472
   8623SM  H18S11517   3.107   3.398   5.561  0.3270  0.7396  0.1568
   8623SM  H18T11518   3.053   3.229   5.587 -0.2059  1.0971  2.8818
   8623SM  H18U11519   2.937   3.372   5.566 -0.1577  0.8392 -1.6425
   8623SM   C1F11520   3.835   3.427   3.976  0.3283  0.0609 -0.4035
   8623SM    OF11521   3.882   3.529   3.929 -0.3882  0.7806  0.0306
   8623SM   C2F11522   3.919   3.337   4.058  0.6471 -0.1602 -0.2508
   8623SM   H2F11523   3.923   3.242   4.001  0.3084 -0.9505  1.0031
   8623SM   H2G11524   3.878   3.305   4.156  0.0950 -0.6109 -0.6242
   8623SM   C3F11525   4.062   3.391   4.075 -0.1884  0.7380 -0.3405
   8623SM   H3F11526   4.063   3.469   4.154  1.4665  1.1526 -0.7459
   8623SM   H3G11527   4.106   3.441   3.986  1.2831 -0.8566 -0.5538
   8623SM   C4F11528   4.168   3.290   4.121  0.0204  0.3915 -0.3063
   8623SM   H4F11529   4.267   3.340   4.121 -0.3282  1.5158  4.2088
   8623SM   H4G11530   4.177   3.214   4.040  1.4090  2.5579 -2.3000
   8623SM   C5F11531   4.134   3.223   4.257  0.2086 -0.3510  0.6671
   8623SM   H5F11532   4.194   3.130   4.268  2.0047  0.8627  1.6801
   8623SM   H5G11533   4.028   3.192   4.252  0.1300 -0.6851  3.2333
   8623SM   C6F11534   4.170   3.313   4.376  0.0823  0.5659  0.6493
   8623SM   H6F11535   4.116   3.410   4.366 -2.4205 -0.4598  2.9014
   8623SM   H6G11536   4.277   3.342   4.383  0.9041 -1.9953 -0.1361
   8623SM   C7F11537   4.119   3.245   4.504 -0.4424 -0.4119 -0.3548
   8623SM   H7F11538   4.143   3.136   4.505  2.0387  0.0646 -0.4592
   8623SM   H7G11539   4.009   3.250   4.492 -0.4572 -1.3384 -0.7472
   8623SM   C8F11540   4.164   3.312   4.636 -0.3946  0.2368  0.4022
   8623SM   H8F11541   4.136   3.418   4.648  0.0798  0.2635  1.3785
   8623SM   H8G11542   4.275   3.316   4.644 -0.3762  0.1163  0.2144
   8623SM   C9F11543   4.110   3.241   4.764  0.0595  0.1200  0.0886
   8623SM   H9F11544   4.128   3.132   4.753  2.7497  0.4764  0.2105
   8623SM   H9G11545   4.001   3.254   4.779  0.4994  2.0114  2.2435
   8623SM  C10F11546   4.179   3.294   4.889  0.3254 -0.5205  0.4542
   8623SM  H10F11547   4.180   3.404   4.883 -0.7361 -0.3813  2.0324
   8623SM  H10G11548   4.281   3.252   4.881  0.7174  0.5180 -0.0605
   8623SM  C11F11549   4.117   3.245   5.021  0.7253 -0.1902  0.1399
   8623SM  H11F11550   4.115   3.134   5.018 -0.9373 -0.1731 -0.2691
   8623SM  H11G11551   4.008   3.268   5.016  0.5785 -0.7668  0.5324
   8623SM  C12F11552   4.189   3.308   5.136  0.0850 -0.4025  0.1042
   8623SM  H12F11553   4.178   3.419   5.134 -1.5097 -0.4693  1.7627
   8623SM  H12G11554   4.298   3.287   5.138  0.4975  1.5311  0.8875
   8623SM  C13F11555   4.133   3.258   5.267  0.2844 -0.4733 -0.3886
   8623SM  H13F11556   4.131   3.147   5.263  0.2049 -0.4758 -0.2450
   8623SM  H13G11557   4.034   3.307   5.279  0.9594  1.5645 -2.2277
   8623SM  C14F11558   4.220   3.293   5.387  0.4358  0.2826 -0.8008
   8623SM  H14F11559   4.245   3.400   5.372 -0.1252  0.0979 -3.6519
   8623SM  H14G11560   4.321   3.245   5.390  0.4878  0.4514  1.6126
   8623SM  C15F11561   4.149   3.272   5.523 -0.9255  0.1377 -0.8813
   8623SM  H15F11562   4.138   3.163   5.537  0.4286  0.1301  0.3962
   8623SM  H15G11563   4.044   3.305   5.533 -0.8849  0.0196  0.0210
   8623SM  C16F11564   4.224   3.332   5.644  0.6489 -0.2043  0.0526
   8623SM  H16F11565   4.237   3.440   5.624  1.0803 -0.0742  1.0142
   8623SM  H16G11566   4.322   3.281   5.641 -0.5691 -2.7129  0.0807
   8623SM  C17F11567   4.158   3.300   5.777  0.1071 -0.4636  0.0410
   8623SM  H17F11568   4.142   3.190   5.785  0.2877 -0.6646 -1.7372
   8623SM  H17G11569   4.057   3.344   5.789  0.4697 -0.0469  1.7392
   8623SM  C18F11570   4.240   3.333   5.897 -0.0181 -0.6708 -0.2893
   8623SM  H18F11571   4.247   3.444   5.897 -0.6961 -0.6275  0.1214
   8623SM  H18G11572   4.342   3.293   5.915  0.7790  1.8510  1.3660
   8623SM  C19F11573   4.154   3.300   6.019  0.8138  0.0383 -0.2100
   8623SM  H19F11574   4.128   3.194   6.035  1.5357 -0.1612 -0.3043
   8623SM  H19G11575   4.060   3.358   6.024 -0.2878 -1.8178  2.1378
   8623SM  C20F11576   4.236   3.330   6.146  0.0268  0.7028  0.4892
   8623SM  H20F11577   4.280   3.431   6.131  1.0492  0.2559  0.3417
   8623SM  H20G11578   4.318   3.257   6.166  1.3101  1.8126 -0.5377
   8623SM  C21F11579   4.148   3.343   6.274 -0.4797 -0.3147 -0.6842
   8623SM  H21F11580   4.102   3.243   6.294  0.9175 -1.0215 -0.8913
   8623SM  H21G11581   4.073   3.425   6.268  0.3795  0.6944  1.4032
   8623SM  C22F11582   4.237   3.388   6.393  0.7057 -0.2291  0.3748
   8623SM  H22F11583   4.278   3.485   6.359 -1.9023  1.3857  1.5034
   8623SM  H22G11584   4.317   3.312   6.410  0.6601 -0.0377  1.5416
   8623SM  C23F11585   4.139   3.416   6.516  0.1946  0.5502  0.2535
   8623SM  H23F11586   4.054   3.482   6.488 -0.6771 -0.9889 -0.8069
   8623SM  H23G11587   4.209   3.456   6.592  1.3075 -0.3989 -0.2458
   8623SM  H23H11588   4.091   3.328   6.564 -0.3883  0.2346 -0.8694
   8723SM     N11589   4.545   3.054   3.259 -0.3591  0.8282 -0.0904
   8723SM   C1511590   4.630   2.970   3.163 -0.1861  0.1309  0.1854
   8723SM  H15A11591   4.578   2.962   3.069 -1.5208  0.9547  0.8388
   8723SM  H15B11592   4.644   2.875   3.213  0.8847  0.7001  1.0340
   8723SM  H15C11593   4.731   3.005   3.147  0.1696 -0.9865 -0.1164
   8723SM   C1411594   4.468   3.142   3.177  0.6786 -0.6853  0.3466
   8723SM  H14A11595   4.408   3.212   3.234  1.9044 -0.9785  2.0840
   8723SM  H14B11596   4.405   3.088   3.108  0.2381  1.7376 -1.2839
   8723SM  H14C11597   4.529   3.202   3.111 -0.1378 -0.6467 -0.3886
   8723SM   C1311598   4.453   2.966   3.339 -0.7269 -0.3284  1.0993
   8723SM  H13A11599   4.394   3.016   3.414 -0.0947  0.9811  0.7632
   8723SM  H13B11600   4.511   2.897   3.399  1.3115  2.6524  2.8527
   8723SM  H13C11601   4.381   2.916   3.277 -1.0978 -0.1477  1.3806
   8723SM   C1211602   4.635   3.136   3.345 -0.7079  0.3003 -1.1755
   8723SM  H12A11603   4.711   3.065   3.378  0.2845  1.7571 -0.1935
   8723SM  H12B11604   4.576   3.172   3.428 -0.3489 -1.5167 -0.0616
   8723SM   C1111605   4.717   3.264   3.282  0.4656  0.7189 -0.2304
   8723SM  H11A11606   4.760   3.229   3.186 -0.3655 -0.7370 -0.0999
   8723SM  H11B11607   4.801   3.284   3.353  0.3331  2.2968 -0.5037
   8723SM     P11608   4.556   3.465   3.363  0.1459 -0.1494 -0.1338
   8723SM   O1311609   4.556   3.606   3.319  0.0015 -0.1563  0.4872
   8723SM   O1411610   4.427   3.401   3.383 -0.0514 -0.0523 -0.2736
   8723SM   O1111611   4.631   3.463   3.495  0.1926  0.3315 -0.1959
   8723SM   O1211612   4.638   3.376   3.260 -0.3415 -0.3043  0.3811
   8723SM   C1S11613   4.613   3.574   3.583 -0.5318  0.4301 -0.2580
   8723SM   H1S11614   4.505   3.598   3.599 -0.8412 -1.1039  0.0459
   8723SM   H1T11615   4.655   3.669   3.542 -1.6940  1.8512  1.6239
   8723SM    NF11616   4.603   3.617   3.824  0.1199 -0.4577  0.6990
   8723SM   HNF11617   4.647   3.705   3.843 -1.0414  0.5785 -1.1347
   8723SM   C2S11618   4.672   3.542   3.722 -0.1520  0.2364 -0.2658
   8723SM   H2S11619   4.639   3.438   3.743 -0.8167 -0.0330 -2.3555
   8723SM   C3S11620   4.830   3.543   3.726 -0.2420  0.4115 -0.6365
   8723SM   H3S11621   4.855   3.650   3.712 -0.7878  0.5696 -0.4538
   8723SM    O311622   4.889   3.471   3.619  0.1964  0.0897 -0.2396
   8723SM   HO311623   4.821   3.462   3.553  0.1453  0.0359 -0.1800
   8723SM   C4S11624   4.884   3.489   3.860 -0.1587  0.6699  0.1424
   8723SM   H4S11625   4.852   3.385   3.877 -0.2649  0.8774  1.2288
   8723SM   C5S11626   4.977   3.544   3.941  0.3903  0.5801 -0.0507
   8723SM   H5S11627   5.019   3.645   3.928  0.0754  0.6891 -0.2453
   8723SM   C6S11628   5.023   3.462   4.065 -0.1422 -0.2121 -0.1235
   8723SM   H6S11629   5.132   3.445   4.057 -0.1281  0.2690 -1.1797
   8723SM   H6T11630   4.961   3.370   4.072  1.4541 -1.2451  1.0014
   8723SM   C7S11631   4.998   3.536   4.199 -0.3766 -0.1129  0.4950
   8723SM   H7S11632   4.902   3.591   4.213  0.0671  0.6825  0.4872
   8723SM   H7T11633   5.079   3.609   4.217  0.1249 -1.3348  3.8663
   8723SM   C8S11634   5.010   3.432   4.313 -0.1796 -0.1232 -0.6477
   8723SM   H8S11635   5.090   3.363   4.280 -0.0085 -0.7297  0.9212
   8723SM   H8T11636   4.921   3.367   4.329  2.0711 -2.6829  3.1829
   8723SM   C9S11637   5.050   3.488   4.447 -0.0479 -0.4468 -0.4456
   8723SM   H9S11638   4.964   3.550   4.478  0.3280 -0.2741  0.2853
   8723SM   H9T11639   5.147   3.542   4.436  0.3366 -0.6865  1.3625
   8723SM  C10S11640   5.060   3.372   4.549 -0.3117  0.0093 -0.0065
   8723SM  H10S11641   5.130   3.297   4.506  0.7136  0.9267  0.0015
   8723SM  H10T11642   4.962   3.323   4.564  0.6508 -1.8760  0.3562
   8723SM  C11S11643   5.109   3.411   4.690  1.3310 -0.1033 -0.0634
   8723SM  H11S11644   5.043   3.494   4.723  0.3605 -0.6018 -0.7031
   8723SM  H11T11645   5.214   3.449   4.690  1.4102 -0.2151  1.8087
   8723SM  C12S11646   5.106   3.295   4.795 -0.0025 -0.0170  0.5208
   8723SM  H12S11647   5.151   3.208   4.742 -1.5797 -0.4692 -0.1152
   8723SM  H12T11648   5.000   3.266   4.810 -0.0773  0.2452  0.5118
   8723SM  C13S11649   5.171   3.334   4.926 -0.8661 -0.6421 -0.1303
   8723SM  H13S11650   5.140   3.437   4.952 -1.2229 -0.9684  0.7648
   8723SM  H13T11651   5.280   3.335   4.903 -0.9966  0.9013 -0.7522
   8723SM  C14S11652   5.134   3.251   5.050 -0.1672  0.4148  0.4986
   8723SM  H14S11653   5.172   3.147   5.039  1.2673  0.9824 -0.2876
   8723SM  H14T11654   5.025   3.234   5.061 -0.2904  1.7549  1.5391
   8723SM  C15S11655   5.193   3.298   5.189  1.0228 -0.0906  0.5189
   8723SM  H15S11656   5.162   3.404   5.202  0.8582 -0.1776  0.8386
   8723SM  H15T11657   5.303   3.298   5.199  1.2352 -1.2612 -1.2391
   8723SM  C16S11658   5.138   3.216   5.305 -0.5473  0.2711  0.4976
   8723SM  H16S11659   5.163   3.110   5.281  1.0984  0.6637  0.3908
   8723SM  H16T11660   5.028   3.220   5.315 -0.7321 -0.2585 -0.9696
   8723SM  C17S11661   5.198   3.244   5.442 -0.6259  0.0838  0.0437
   8723SM  H17S11662   5.306   3.225   5.430 -0.6928 -0.5230  0.3619
   8723SM  H17T11663   5.150   3.169   5.508 -0.4819  0.1314  0.2017
   8723SM  C18S11664   5.173   3.384   5.504  0.4218  0.4777  0.4580
   8723SM  H18S11665   5.224   3.405   5.600  1.8510  0.9245 -0.3569
   8723SM  H18T11666   5.067   3.410   5.489 -0.1321 -0.9317  1.6849
   8723SM  H18U11667   5.228   3.459   5.443 -0.9610  1.6236  0.5917
   8723SM   C1F11668   4.475   3.585   3.860  0.3300 -0.1438  0.0007
   8723SM    OF11669   4.420   3.481   3.833 -0.4850 -0.5358  0.0489
   8723SM   C2F11670   4.407   3.692   3.934  0.0845  0.2120 -0.2276
   8723SM   H2F11671   4.325   3.731   3.870 -0.6352  1.9735  1.6683
   8723SM   H2G11672   4.469   3.780   3.959 -2.3001  2.0521 -0.3836
   8723SM   C3F11673   4.351   3.641   4.066  0.2866 -0.2997 -0.0665
   8723SM   H3F11674   4.433   3.604   4.132  0.2326 -1.2186 -0.5041
   8723SM   H3G11675   4.281   3.555   4.065 -1.3944  1.0163 -0.4230
   8723SM   C4F11676   4.260   3.754   4.129  0.5124 -0.0785 -0.4645
   8723SM   H4F11677   4.183   3.768   4.049  1.1931 -0.8147 -1.2752
   8723SM   H4G11678   4.315   3.850   4.136 -1.7329  1.2090  1.1232
   8723SM   C5F11679   4.203   3.715   4.266 -0.2350  0.3967  0.1326
   8723SM   H5F11680   4.166   3.611   4.255  1.1706 -0.0442 -0.8236
   8723SM   H5G11681   4.125   3.788   4.298 -0.1279  1.0028 -0.9230
   8723SM   C6F11682   4.316   3.720   4.374  1.2083  0.4247  0.2180
   8723SM   H6F11683   4.334   3.829   4.385  2.5516  0.2229  0.2454
   8723SM   H6G11684   4.409   3.667   4.343 -0.2698 -1.5222 -1.1442
   8723SM   C7F11685   4.277   3.653   4.511 -0.1278  0.3071 -0.3404
   8723SM   H7F11686   4.299   3.544   4.510 -0.2838  0.0073  4.7096
   8723SM   H7G11687   4.167   3.663   4.518 -0.0606 -0.3344  2.7664
   8723SM   C8F11688   4.351   3.709   4.635 -0.8958  0.0099 -0.0392
   8723SM   H8F11689   4.342   3.819   4.626 -0.9836  0.0689  0.7462
   8723SM   H8G11690   4.458   3.682   4.616 -0.1393  1.2481  2.1268
   8723SM   C9F11691   4.304   3.656   4.767 -0.0609 -0.5232  0.4646
   8723SM   H9F11692   4.282   3.548   4.763  0.6664 -0.7006  1.0280
   8723SM   H9G11693   4.205   3.698   4.795  1.5139  2.7067  1.7312
   8723SM  C10F11694   4.398   3.691   4.876  0.2500  0.4773 -0.5031
   8723SM  H10F11695   4.412   3.802   4.878 -0.1967  0.5242  0.7450
   8723SM  H10G11696   4.502   3.652   4.870  0.8676  1.4823  2.2396
   8723SM  C11F11697   4.331   3.669   5.015 -0.4305  0.8590  0.0120
   8723SM  H11F11698   4.304   3.561   5.024 -2.1917  1.1383 -1.4428
   8723SM  H11G11699   4.245   3.738   5.028 -1.6136 -0.9011  2.0664
   8723SM  C12F11700   4.417   3.710   5.128 -0.3219  0.1566  0.1886
   8723SM  H12F11701   4.431   3.821   5.128  0.0541  0.1527  2.2616
   8723SM  H12G11702   4.518   3.665   5.117 -0.3979 -0.1566  0.7289
   8723SM  C13F11703   4.343   3.680   5.261 -0.2363 -0.0844  0.3507
   8723SM  H13F11704   4.330   3.570   5.263  2.1552 -0.4434 -0.5614
   8723SM  H13G11705   4.248   3.738   5.253 -0.4444 -0.5519 -0.8500
   8723SM  C14F11706   4.420   3.732   5.387  0.4974  0.2197  0.1420
   8723SM  H14F11707   4.457   3.833   5.360 -3.2407  1.0510 -2.7250
   8723SM  H14G11708   4.504   3.659   5.399  0.2614 -0.1612 -0.4951
   8723SM  C15F11709   4.329   3.748   5.509  0.4432 -0.1632 -0.6641
   8723SM  H15F11710   4.312   3.646   5.549 -2.0820 -0.2862 -1.8576
   8723SM  H15G11711   4.230   3.781   5.472  0.0075 -0.1106  0.5028
   8723SM  C16F11712   4.381   3.853   5.602  0.4591 -0.1148  0.5020
   8723SM  H16F11713   4.399   3.950   5.552  0.6937 -1.5117 -2.2918
   8723SM  H16G11714   4.477   3.809   5.639 -0.6221 -2.0854  1.0987
   8723SM  C17F11715   4.301   3.882   5.733 -0.0828 -0.2624  0.4106
   8723SM  H17F11716   4.314   3.784   5.783  0.3948 -1.0982 -1.2517
   8723SM  H17G11717   4.194   3.888   5.704  0.5638 -1.5938 -2.6558
   8723SM  C18F11718   4.349   3.993   5.822  0.1106 -0.3274 -0.9733
   8723SM  H18F11719   4.280   4.025   5.903  0.9531 -1.3862  0.1946
   8723SM  H18G11720   4.349   4.089   5.766  1.2457  1.0375  1.2302
   8723SM  C19F11721   4.489   3.976   5.892 -0.1053  0.2387  0.3501
   8723SM  H19F11722   4.513   4.075   5.937  2.7261 -0.4702  0.6010
   8723SM  H19G11723   4.563   3.939   5.818 -0.0233  0.5356  0.2820
   8723SM  C20F11724   4.473   3.889   6.018 -0.0712  0.5287  0.0061
   8723SM  H20F11725   4.473   3.782   5.990  0.5627  0.3363  0.7305
   8723SM  H20G11726   4.383   3.902   6.083 -1.1075 -1.0895 -1.0418
   8723SM  C21F11727   4.604   3.893   6.106 -0.1801 -0.4439  0.6297
   8723SM  H21F11728   4.598   3.992   6.157  0.1770  0.1646 -0.4728
   8723SM  H21G11729   4.688   3.906   6.035 -0.7056 -0.1618  0.0465
   8723SM  C22F11730   4.623   3.766   6.185  0.3523  0.3528  0.2161
   8723SM  H22F11731   4.645   3.680   6.118  0.5660 -2.0887  3.2189
   8723SM  H22G11732   4.525   3.741   6.231 -0.1615  0.6764 -0.6751
   8723SM  C23F11733   4.732   3.767   6.292  0.2065 -0.2241  0.1815
   8723SM  H23F11734   4.700   3.697   6.373  1.1002 -0.4057  0.3829
   8723SM  H23G11735   4.733   3.868   6.339  2.4439  0.4583 -1.1911
   8723SM  H23H11736   4.832   3.750   6.248 -0.5388  3.0897 -3.2755
   8823SM     N11737   2.780   1.980   3.578 -0.2322 -0.0833  0.4276
   8823SM   C1511738   2.927   1.997   3.572 -0.2393  0.3953 -0.3619
   8823SM  H15A11739   2.956   2.101   3.583  1.3094  0.2164 -2.1822
   8823SM  H15B11740   2.955   1.972   3.471  0.1838 -0.0289 -0.1442
   8823SM  H15C11741   2.982   1.935   3.642 -1.3717  0.3705  0.5290
   8823SM   C1411742   2.727   2.078   3.473  0.2157 -0.4114  0.2531
   8823SM  H14A11743   2.763   2.178   3.488  0.0488  0.0246 -1.9817
   8823SM  H14B11744   2.621   2.087   3.487 -0.3453 -1.6476 -2.4816
   8823SM  H14C11745   2.757   2.054   3.372  0.1772  1.5449 -0.2540
   8823SM   C1311746   2.735   1.840   3.548 -0.3665  0.5894 -0.2202
   8823SM  H13A11747   2.630   1.843   3.527 -0.3217  2.0061 -0.3572
   8823SM  H13B11748   2.768   1.773   3.626 -0.6982 -0.3551 -0.8692
   8823SM  H13C11749   2.776   1.809   3.453  0.4487 -0.0706  0.3234
   8823SM   C1211750   2.730   2.007   3.716  0.4312 -0.2557  0.6029
   8823SM  H12A11751   2.781   1.939   3.783  0.2629 -0.4158  0.5701
   8823SM  H12B11752   2.626   1.978   3.726 -0.0001  1.6302  2.1328
   8823SM   C1111753   2.745   2.155   3.772  0.5352 -0.6035  0.3581
   8823SM  H11A11754   2.849   2.185   3.746  1.1451 -1.8223  1.2793
   8823SM  H11B11755   2.726   2.150   3.882  0.7848 -2.0195  0.3656
   8823SM     P11756   2.503   2.247   3.733 -0.2951 -0.0341 -0.1218
   8823SM   O1311757   2.437   2.366   3.676  0.1442 -0.2390  0.5459
   8823SM   O1411758   2.438   2.121   3.700  0.3600  0.2040  1.1971
   8823SM   O1111759   2.511   2.281   3.885  0.4461  0.1057  0.2472
   8823SM   O1211760   2.661   2.249   3.701  0.1470 -0.4961 -0.2129
   8823SM   C1S11761   2.442   2.204   3.985 -0.9152  0.3945 -0.6034
   8823SM   H1S11762   2.469   2.097   3.971 -1.2357 -0.0173  1.5663
   8823SM   H1T11763   2.331   2.215   3.981 -0.9416  0.8922  0.8469
   8823SM    NF11764   2.390   2.191   4.229  0.2438 -0.2373  0.1556
   8823SM   HNF11765   2.314   2.237   4.274 -0.3068 -0.6855 -0.2989
   8823SM   C2S11766   2.464   2.258   4.132  0.1595 -1.1355  0.7048
   8823SM   H2S11767   2.572   2.246   4.156  0.2241 -0.7742  0.6087
   8823SM   C3S11768   2.441   2.412   4.125 -0.1498 -0.3614  0.1551
   8823SM   H3S11769   2.340   2.430   4.083 -0.0791  1.3147  0.6094
   8823SM    O311770   2.533   2.485   4.042 -0.6003 -0.0829 -0.7609
   8823SM   HO311771   2.567   2.410   3.993 -1.6265 -1.2853  0.2787
   8823SM   C4S11772   2.457   2.470   4.264 -0.5885 -0.1445  1.0206
   8823SM   H4S11773   2.543   2.434   4.323 -0.0310 -0.1537  0.2190
   8823SM   C5S11774   2.373   2.550   4.332  0.6642  0.3264  0.3229
   8823SM   H5S11775   2.279   2.573   4.279  0.4309  0.4930  0.8099
   8823SM   C6S11776   2.370   2.598   4.466 -0.3158  0.3994 -0.6269
   8823SM   H6S11777   2.283   2.556   4.520  0.6707  0.1441  0.8370
   8823SM   H6T11778   2.371   2.709   4.459  0.7788  0.5221  0.9250
   8823SM   C7S11779   2.503   2.569   4.552  0.2276 -0.1891  0.5517
   8823SM   H7S11780   2.589   2.612   4.495  0.0068 -2.4407 -1.6657
   8823SM   H7T11781   2.521   2.459   4.556  0.9676 -0.1283 -0.4801
   8823SM   C8S11782   2.496   2.624   4.692 -0.0718 -0.3246 -0.0746
   8823SM   H8S11783   2.510   2.733   4.707 -0.3362 -0.3217  0.1614
   8823SM   H8T11784   2.578   2.572   4.745 -0.1261 -2.4654 -1.9584
   8823SM   C9S11785   2.376   2.577   4.768 -0.0155 -0.3985 -0.7804
   8823SM   H9S11786   2.352   2.471   4.748  0.1435 -0.0701 -3.0068
   8823SM   H9T11787   2.287   2.635   4.735  0.2344  0.9131  0.7033
   8823SM  C10S11788   2.388   2.583   4.922 -0.4780  0.4142 -0.2902
   8823SM  H10S11789   2.398   2.689   4.957  2.8922  0.0133  0.3658
   8823SM  H10T11790   2.480   2.530   4.954 -1.8830 -0.4125  2.7942
   8823SM  C11S11791   2.267   2.527   4.990  0.5839 -0.5726 -0.7168
   8823SM  H11S11792   2.291   2.535   5.099 -3.1409  2.1873  0.0850
   8823SM  H11T11793   2.243   2.420   4.975 -2.4896 -0.3574  1.6441
   8823SM  C12S11794   2.129   2.593   4.964 -0.1082  0.3476  0.9908
   8823SM  H12S11795   2.104   2.587   4.856  1.9588  2.8801  0.2646
   8823SM  H12T11796   2.127   2.704   4.977 -2.8172  0.6731 -1.1955
   8823SM  C13S11797   2.012   2.537   5.047 -0.1174  0.5246  0.4623
   8823SM  H13S11798   1.993   2.431   5.019  1.1324  0.5148 -0.4072
   8823SM  H13T11799   1.922   2.596   5.018  1.1934  1.8597 -1.0353
   8823SM  C14S11800   2.027   2.556   5.200  0.1115  0.2022 -0.2453
   8823SM  H14S11801   2.026   2.663   5.230  1.2550 -0.1230  1.0842
   8823SM  H14T11802   2.121   2.515   5.243  1.2022  3.1976  0.5277
   8823SM  C15S11803   1.903   2.495   5.275 -0.0953  0.2157 -0.4384
   8823SM  H15S11804   1.891   2.390   5.242  0.6395  0.4046 -1.3480
   8823SM  H15T11805   1.814   2.550   5.239  1.1369  3.0133  0.4711
   8823SM  C16S11806   1.913   2.497   5.423  0.0321  0.5032  0.1146
   8823SM  H16S11807   1.996   2.428   5.448  0.3454  0.3667 -1.2284
   8823SM  H16T11808   1.814   2.457   5.456 -1.3519  0.8023 -3.2059
   8823SM  C17S11809   1.941   2.641   5.475  0.4014  0.0190 -1.0179
   8823SM  H17S11810   1.877   2.721   5.431  1.1048  0.7608 -0.7179
   8823SM  H17T11811   2.045   2.666   5.445  0.4678 -2.5240 -3.2373
   8823SM  C18S11812   1.910   2.645   5.625  0.2314 -0.1832 -0.0657
   8823SM  H18S11813   1.805   2.612   5.643  0.2908 -0.2255  0.2094
   8823SM  H18T11814   1.922   2.742   5.678 -0.1334 -1.0025  1.5905
   8823SM  H18U11815   1.964   2.570   5.687 -0.6275  0.4165  1.4534
   8823SM   C1F11816   2.419   2.066   4.259  0.4235 -0.5577  0.9574
   8823SM    OF11817   2.535   2.021   4.236  0.0096 -0.0389  0.0818
   8823SM   C2F11818   2.306   1.994   4.335 -0.4006  0.7217  0.1830
   8823SM   H2F11819   2.231   2.070   4.364  0.3832  1.8203 -0.5837
   8823SM   H2G11820   2.344   1.934   4.421 -2.0747 -0.1200  0.3659
   8823SM   C3F11821   2.227   1.906   4.238  0.1070  0.3064  0.4408
   8823SM   H3F11822   2.303   1.836   4.198  2.3680  2.4192  0.8060
   8823SM   H3G11823   2.191   1.963   4.149 -1.7276  0.6096  1.3218
   8823SM   C4F11824   2.103   1.828   4.286 -0.2691  0.7216  1.2059
   8823SM   H4F11825   2.052   1.784   4.198 -2.5263 -1.1508  3.3026
   8823SM   H4G11826   2.018   1.881   4.333 -1.3117  0.5983 -0.4638
   8823SM   C5F11827   2.146   1.708   4.377 -0.6051 -0.4718 -0.4397
   8823SM   H5F11828   2.187   1.759   4.467 -1.1171  0.4952 -0.7383
   8823SM   H5G11829   2.219   1.646   4.322 -0.0137 -0.5409  0.4010
   8823SM   C6F11830   2.034   1.610   4.408 -0.3021 -0.6637 -0.5857
   8823SM   H6F11831   2.071   1.517   4.458 -0.8533 -0.9065 -0.6190
   8823SM   H6G11832   1.993   1.563   4.316  1.4585 -1.5056 -0.9784
   8823SM   C7F11833   1.913   1.672   4.474  0.4048  0.2217  0.3285
   8823SM   H7F11834   1.834   1.594   4.479 -0.3291  0.6251 -2.8822
   8823SM   H7G11835   1.882   1.742   4.393  1.2926 -0.0977 -0.3120
   8823SM   C8F11836   1.931   1.735   4.610 -0.8072 -0.5703  0.0843
   8823SM   H8F11837   1.832   1.779   4.635  0.4679  1.4092  2.0403
   8823SM   H8G11838   1.999   1.820   4.588 -1.9764  0.1799 -0.7323
   8823SM   C9F11839   1.978   1.648   4.727 -0.0171 -0.3605  0.0870
   8823SM   H9F11840   2.059   1.587   4.682 -0.5709 -0.2674 -1.0643
   8823SM   H9G11841   1.899   1.571   4.740  0.1043 -0.6535 -0.8752
   8823SM  C10F11842   2.006   1.730   4.855 -0.2114 -0.1920 -0.3440
   8823SM  H10F11843   1.923   1.795   4.890 -0.1570  1.3636 -2.8810
   8823SM  H10G11844   2.087   1.804   4.839 -0.0061  0.2959  2.4748
   8823SM  C11F11845   2.048   1.641   4.979  0.2212  0.0144  0.1932
   8823SM  H11F11846   2.153   1.616   4.956  0.5901  1.7594 -0.1412
   8823SM  H11G11847   1.976   1.558   4.998  0.8645 -0.6194 -0.1186
   8823SM  C12F11848   2.052   1.733   5.108 -0.7345 -0.1378  0.1664
   8823SM  H12F11849   1.959   1.783   5.141 -1.0293  0.0452 -0.8885
   8823SM  H12G11850   2.121   1.818   5.090 -0.0708 -0.3701  1.5455
   8823SM  C13F11851   2.093   1.653   5.234 -0.2396 -0.3282  0.5226
   8823SM  H13F11852   2.189   1.598   5.221  0.4726  0.2185  2.9551
   8823SM  H13G11853   2.011   1.583   5.263 -0.7083  0.1555  0.3971
   8823SM  C14F11854   2.130   1.750   5.349  0.0153  0.0103  0.9575
   8823SM  H14F11855   2.051   1.828   5.365 -1.6013 -1.3144 -0.2123
   8823SM  H14G11856   2.222   1.805   5.319 -0.3959  0.3111  0.2173
   8823SM  C15F11857   2.153   1.672   5.474  0.6733 -0.5028 -0.7696
   8823SM  H15F11858   2.237   1.600   5.473 -0.9537 -2.4932 -1.0044
   8823SM  H15G11859   2.059   1.616   5.494  0.5607  0.3030  1.2488
   8823SM  C16F11860   2.176   1.760   5.602  0.1912 -0.1353  0.5817
   8823SM  H16F11861   2.100   1.840   5.589  0.8579  0.3510 -0.4714
   8823SM  H16G11862   2.273   1.814   5.594 -0.2954  0.6421 -0.2035
   8823SM  C17F11863   2.155   1.707   5.750  0.1458  0.2427  0.7616
   8823SM  H17F11864   2.166   1.793   5.820 -0.6701  0.8304  0.1828
   8823SM  H17G11865   2.233   1.629   5.763  1.8363  1.7528  0.1633
   8823SM  C18F11866   2.012   1.653   5.774  0.0075 -0.1752 -0.1153
   8823SM  H18F11867   1.995   1.561   5.714 -0.5038  0.6140 -1.2245
   8823SM  H18G11868   1.946   1.730   5.729  1.4186  1.2952  0.2291
   8823SM  C19F11869   1.970   1.637   5.914 -0.3233  0.0163  0.0280
   8823SM  H19F11870   2.050   1.600   5.982 -0.9537 -0.0802  0.7348
   8823SM  H19G11871   1.902   1.550   5.917  0.7184 -0.8328 -0.4008
   8823SM  C20F11872   1.914   1.768   5.979  0.2716  0.3361  0.2082
   8823SM  H20F11873   1.882   1.837   5.898 -0.4467 -0.7559 -0.4814
   8823SM  H20G11874   2.000   1.823   6.022  0.7215 -0.0557 -0.1721
   8823SM  C21F11875   1.816   1.744   6.092  0.4859  0.1538 -0.1791
   8823SM  H21F11876   1.842   1.664   6.164  0.2860  0.4401  0.2097
   8823SM  H21G11877   1.721   1.714   6.044 -0.0327 -0.7810  1.3586
   8823SM  C22F11878   1.791   1.874   6.164 -0.1513 -0.2782 -0.4469
   8823SM  H22F11879   1.851   1.958   6.123 -0.2634 -0.4135 -0.8854
   8823SM  H22G11880   1.820   1.847   6.268  2.2290  0.9947 -0.7024
   8823SM  C23F11881   1.647   1.928   6.154 -0.8887 -0.1798 -0.5547
   8823SM  H23F11882   1.649   2.038   6.167  2.2272 -0.2907  0.9711
   8823SM  H23G11883   1.584   1.881   6.233  0.6257  0.2938  1.0031
   8823SM  H23H11884   1.603   1.898   6.057 -3.3809  0.3227  0.3494
   8923SM     N11885   6.525   3.392   3.548 -0.0455 -0.1279  0.0760
   8923SM   C1511886   6.579   3.503   3.462 -0.2163  0.0732 -0.4265
   8923SM  H15A11887   6.563   3.471   3.361 -0.3854 -1.6592  0.1152
   8923SM  H15B11888   6.685   3.510   3.478  0.1717 -0.8814 -2.3424
   8923SM  H15C11889   6.536   3.599   3.489  0.3101  0.2929 -0.3566
   8923SM   C1411890   6.390   3.352   3.502 -0.2321 -0.4601 -0.2241
   8923SM  H14A11891   6.320   3.433   3.518 -0.1424 -0.6449  1.2163
   8923SM  H14B11892   6.349   3.269   3.558  0.2390 -0.1861  0.5328
   8923SM  H14C11893   6.388   3.328   3.397  1.5535  0.5461 -0.5257
   8923SM   C1311894   6.619   3.281   3.531 -0.4424  0.0220 -0.0111
   8923SM  H13A11895   6.710   3.296   3.588 -0.2671 -1.2020  0.0452
   8923SM  H13B11896   6.630   3.258   3.426  1.9430  0.7465  0.0286
   8923SM  H13C11897   6.570   3.200   3.583 -1.2709  1.0215  0.8064
   8923SM   C1211898   6.517   3.433   3.694 -0.2897 -0.2563  0.0335
   8923SM  H12A11899   6.602   3.493   3.722  0.5039  0.0411 -2.6479
   8923SM  H12B11900   6.529   3.347   3.758  1.4618  0.3411  0.5545
   8923SM   C1111901   6.400   3.530   3.732  0.2352  0.1154 -0.2884
   8923SM  H11A11902   6.406   3.546   3.842  0.0583 -0.3234 -0.2136
   8923SM  H11B11903   6.301   3.484   3.711 -0.2703  1.4987 -1.0933
   8923SM     P11904   6.518   3.769   3.712 -0.1765 -0.1050 -0.1907
   8923SM   O1311905   6.655   3.719   3.712 -0.2164  0.0686 -1.1651
   8923SM   O1411906   6.493   3.895   3.640 -0.0078 -0.4626 -0.3420
   8923SM   O1111907   6.486   3.798   3.869  0.1582 -0.4013 -0.2684
   8923SM   O1211908   6.417   3.650   3.668 -0.1721  0.4064  0.1346
   8923SM   C1S11909   6.369   3.867   3.902  0.1303 -0.1695  0.5893
   8923SM   H1S11910   6.284   3.836   3.837  1.4318 -0.3514 -1.1147
   8923SM   H1T11911   6.385   3.976   3.893 -1.6593  0.0081 -1.5034
   8923SM    NF11912   6.206   3.907   4.066  0.2460  0.0630  0.2640
   8923SM   HNF11913   6.202   3.993   4.115  0.7741  0.5653 -0.5573
   8923SM   C2S11914   6.336   3.855   4.039  1.1978 -0.5234  0.1447
   8923SM   H2S11915   6.334   3.749   4.074  1.4110 -0.6138 -0.1137
   8923SM   C3S11916   6.434   3.922   4.134 -0.2684  0.6261  0.1520
   8923SM   H3S11917   6.427   4.032   4.122  0.0539  0.6796  0.4336
   8923SM    O311918   6.576   3.895   4.107 -0.0559  0.0486 -0.1024
   8923SM   HO311919   6.574   3.855   4.020  1.0766 -0.6684  0.1801
   8923SM   C4S11920   6.399   3.908   4.284  0.5388 -0.2637 -0.7709
   8923SM   H4S11921   6.353   3.999   4.324  3.8678  0.4657  1.8496
   8923SM   C5S11922   6.446   3.812   4.370  0.0128 -0.2244 -0.0790
   8923SM   H5S11923   6.510   3.730   4.334  0.7911 -0.8122  2.4513
   8923SM   C6S11924   6.412   3.791   4.518 -0.0950  0.9285 -0.5154
   8923SM   H6S11925   6.501   3.769   4.581  1.6848  0.0905 -3.1383
   8923SM   H6T11926   6.344   3.705   4.533 -0.0323  1.3861  3.2850
   8923SM   C7S11927   6.334   3.910   4.578  0.1061 -0.1609  0.2115
   8923SM   H7S11928   6.239   3.930   4.524  0.3049  1.8021  0.5053
   8923SM   H7T11929   6.396   4.001   4.560  3.3301 -1.9569  1.4266
   8923SM   C8S11930   6.331   3.915   4.731 -0.6937  0.4819 -0.1282
   8923SM   H8S11931   6.297   4.018   4.755  1.6607  1.0794  0.9787
   8923SM   H8T11932   6.434   3.902   4.772 -1.1614 -2.7411  0.2825
   8923SM   C9S11933   6.252   3.805   4.802 -0.1940 -0.3458  0.7449
   8923SM   H9S11934   6.305   3.708   4.814  0.3196 -0.2400 -0.5081
   8923SM   H9T11935   6.155   3.778   4.754  0.2256 -2.9479  1.2127
   8923SM  C10S11936   6.207   3.860   4.932 -0.5490 -0.0077 -0.3877
   8923SM  H10S11937   6.147   3.781   4.983 -1.6596  0.0044 -1.6138
   8923SM  H10T11938   6.149   3.952   4.907  0.3590  1.3723  2.2713
   8923SM  C11S11939   6.316   3.905   5.026 -0.0378 -0.2568  0.4619
   8923SM  H11S11940   6.358   3.998   4.982  0.8436 -1.9119 -2.4559
   8923SM  H11T11941   6.395   3.827   5.028  0.4489  0.2249  0.2627
   8923SM  C12S11942   6.263   3.926   5.171  0.2736  0.4643  0.0724
   8923SM  H12S11943   6.222   3.830   5.209  0.7998  0.3507  0.3730
   8923SM  H12T11944   6.170   3.987   5.171 -0.0760 -0.0474  1.4552
   8923SM  C13S11945   6.362   3.988   5.272  0.1038 -0.2354  0.5434
   8923SM  H13S11946   6.386   4.094   5.248 -2.4171  0.3930  0.5172
   8923SM  H13T11947   6.459   3.933   5.275  1.0060  1.1670 -1.1631
   8923SM  C14S11948   6.303   3.989   5.411 -0.1997 -0.6579 -0.4830
   8923SM  H14S11949   6.255   3.894   5.441  0.2688 -0.0379  2.5153
   8923SM  H14T11950   6.223   4.067   5.407  0.6569  0.2282 -0.7066
   8923SM  C15S11951   6.401   4.018   5.531 -0.9872 -0.7439 -0.2356
   8923SM  H15S11952   6.483   4.092   5.517 -1.8177  0.5537  1.3240
   8923SM  H15T11953   6.455   3.923   5.547  2.4489  1.1437  0.4252
   8923SM  C16S11954   6.318   4.037   5.652  0.1938 -0.4867 -0.5244
   8923SM  H16S11955   6.221   3.984   5.645 -0.5190  0.6723  0.2026
   8923SM  H16T11956   6.306   4.147   5.667 -0.0902 -0.6658  0.7276
   8923SM  C17S11957   6.384   3.981   5.780 -0.4511  0.7363 -0.0944
   8923SM  H17S11958   6.493   3.988   5.760 -0.2624 -1.1436  0.0443
   8923SM  H17T11959   6.370   3.873   5.804 -0.6968  0.9849  0.9206
   8923SM  C18S11960   6.349   4.060   5.913 -0.0548 -0.0560 -0.2482
   8923SM  H18S11961   6.390   4.162   5.905  0.0423  0.0387  1.1701
   8923SM  H18T11962   6.378   4.011   6.009 -0.3154  1.3062  0.5516
   8923SM  H18U11963   6.240   4.080   5.915 -0.2988 -1.2897  0.3600
   8923SM   C1F11964   6.099   3.842   4.017  0.0370 -0.5767 -0.1853
   8923SM    OF11965   6.107   3.740   3.952  0.0675 -0.0946  0.6038
   8923SM   C2F11966   5.967   3.905   4.047  0.4602 -0.3025  0.2337
   8923SM   H2F11967   5.925   3.950   3.954 -0.1012  2.7052  1.8039
   8923SM   H2G11968   5.990   3.994   4.109  1.0531  0.2500 -0.7567
   8923SM   C3F11969   5.865   3.816   4.109 -0.1167  0.7270 -0.2997
   8923SM   H3F11970   5.844   3.727   4.046  0.9099  0.9698 -1.0086
   8923SM   H3G11971   5.767   3.867   4.111 -1.2503 -1.3192 -0.5585
   8923SM   C4F11972   5.899   3.751   4.249  0.4133  0.0518  0.4033
   8923SM   H4F11973   5.987   3.684   4.243  1.1126  0.9661  0.2160
   8923SM   H4G11974   5.809   3.697   4.287 -0.6914  1.1351 -0.5936
   8923SM   C5F11975   5.929   3.858   4.358 -0.2168 -0.0481  0.6649
   8923SM   H5F11976   6.006   3.933   4.329 -0.1627  0.3733  1.8337
   8923SM   H5G11977   5.968   3.799   4.443  1.3471  1.1471  0.8223
   8923SM   C6F11978   5.806   3.946   4.402 -0.1827  0.9068  0.6115
   8923SM   H6F11979   5.725   3.953   4.326 -1.9090  0.5115  2.3135
   8923SM   H6G11980   5.845   4.048   4.422  1.7130  0.6048 -1.2358
   8923SM   C7F11981   5.752   3.892   4.539  0.2780  0.1530  0.4715
   8923SM   H7F11982   5.719   3.786   4.546 -2.3606  0.9846  2.2641
   8923SM   H7G11983   5.659   3.951   4.554  0.4368  0.7464 -0.7598
   8923SM   C8F11984   5.845   3.903   4.665  0.2150  0.6307  0.6275
   8923SM   H8F11985   5.889   4.004   4.653  2.5159 -0.3088  0.7674
   8923SM   H8G11986   5.926   3.827   4.666 -0.9344 -0.7696 -1.9793
   8923SM   C9F11987   5.758   3.897   4.792 -0.9993 -0.1644  0.3947
   8923SM   H9F11988   5.713   3.798   4.811 -0.4187  0.0106  2.9994
   8923SM   H9G11989   5.675   3.970   4.781 -1.7465 -1.1957 -1.2059
   8923SM  C10F11990   5.846   3.914   4.913  0.1582 -0.1224  0.0123
   8923SM  H10F11991   5.906   4.007   4.915  0.7372 -0.4924  0.5238
   8923SM  H10G11992   5.923   3.833   4.912  0.8642  0.5459 -0.2929
   8923SM  C11F11993   5.773   3.899   5.046 -0.0032  0.3688  0.0438
   8923SM  H11F11994   5.729   3.797   5.045  0.6408  0.0508 -2.5133
   8923SM  H11G11995   5.689   3.968   5.024  0.6332  0.9762 -0.5163
   8923SM  C12F11996   5.853   3.930   5.182 -0.3176 -0.2850  1.1096
   8923SM  H12F11997   5.871   4.038   5.193  0.2719 -0.4424  1.7426
   8923SM  H12G11998   5.953   3.888   5.159 -1.3575 -1.8130 -1.0092
   8923SM  C13F11999   5.798   3.859   5.305 -0.2470 -0.1897  0.8695
   8923SM  H13F12000   5.787   3.749   5.297 -1.8739 -0.0025  0.0710
   8923SM  H13G12001   5.694   3.897   5.315 -0.8746 -0.5236 -2.9333
   8923SM  C14F12002   5.887   3.874   5.424  0.6320 -0.1956 -0.1245
   8923SM  H14F12003   5.896   3.983   5.441 -1.3469 -0.0624  0.3253
   8923SM  H14G12004   5.991   3.836   5.414  1.4020  1.6079  0.6225
   8923SM  C15F12005   5.821   3.819   5.550  0.6523  0.9946 -0.3572
   8923SM  H15F12006   5.809   3.709   5.542  3.6288  0.5971 -0.1352
   8923SM  H15G12007   5.724   3.872   5.560 -0.3296 -0.9204  0.9168
   8923SM  C16F12008   5.902   3.854   5.678  0.5994 -0.1125  0.4108
   8923SM  H16F12009   5.911   3.964   5.688 -0.4780 -0.0887  1.2230
   8923SM  H16G12010   6.008   3.823   5.662  1.5005  2.8065 -0.0232
   8923SM  C17F12011   5.856   3.783   5.810  0.1877 -0.7578  0.7389
   8923SM  H17F12012   5.860   3.676   5.781 -2.0647 -0.7324  0.1545
   8923SM  H17G12013   5.751   3.811   5.834 -0.1084 -0.4466 -0.8027
   8923SM  C18F12014   5.958   3.809   5.925  0.1409 -0.1634  0.1393
   8923SM  H18F12015   6.062   3.787   5.892 -0.4773 -0.2114 -1.8811
   8923SM  H18G12016   5.930   3.736   6.004 -0.9711 -1.1096 -1.0711
   8923SM  C19F12017   5.937   3.946   5.984  0.4223 -0.0850  0.9022
   8923SM  H19F12018   5.826   3.954   5.982  0.2528 -1.6553 -2.2068
   8923SM  H19G12019   5.974   4.017   5.907 -0.2482  0.1134  0.7591
   8923SM  C20F12020   5.999   3.960   6.118  0.5658  0.0977 -0.6275
   8923SM  H20F12021   6.096   3.908   6.102  0.6718  0.0065  0.2965
   8923SM  H20G12022   5.943   3.905   6.196 -1.5309 -0.2214 -2.2495
   8923SM  C21F12023   6.031   4.109   6.158  0.3096 -0.0592  0.6950
   8923SM  H21F12024   5.941   4.165   6.192 -1.4897 -1.8498 -0.8694
   8923SM  H21G12025   6.083   4.168   6.080  0.8871  0.4713  1.4642
   8923SM  C22F12026   6.137   4.104   6.269  0.1764 -0.4763  0.0101
   8923SM  H22F12027   6.217   4.039   6.227  1.3195  0.3718  0.7800
   8923SM  H22G12028   6.106   4.052   6.362  2.4842  1.0798  1.7763
   8923SM  C23F12029   6.204   4.235   6.304 -0.9972  0.6575  0.0524
   8923SM  H23F12030   6.279   4.271   6.229 -1.0204  2.1088  0.6904
   8923SM  H23G12031   6.263   4.224   6.397  1.0250 -0.2857 -1.2693
   8923SM  H23H12032   6.133   4.318   6.324 -0.7300  0.4921  1.8249
   9023SM     N12033   6.099   3.804   3.437 -0.1279  0.5341  0.4992
   9023SM   C1512034   6.006   3.794   3.551 -0.2058  0.1769  0.1786
   9023SM  H15A12035   5.905   3.820   3.522  0.2656  1.8466 -0.0660
   9023SM  H15B12036   6.037   3.862   3.629 -1.5976 -1.0581  1.8924
   9023SM  H15C12037   6.017   3.700   3.603 -2.4090  0.3489  1.0434
   9023SM   C1412038   6.097   3.932   3.370  0.1187 -0.7966  0.2364
   9023SM  H14A12039   6.175   3.938   3.296 -1.4040  0.1518 -1.3673
   9023SM  H14B12040   6.108   4.017   3.436 -3.9746  0.5783 -0.5780
   9023SM  H14C12041   6.002   3.934   3.318 -1.2286 -0.6315  2.5715
   9023SM   C1312042   6.238   3.780   3.489  0.0493  0.9708 -0.2138
   9023SM  H13A12043   6.309   3.766   3.409  0.5754  1.4155  0.1720
   9023SM  H13B12044   6.231   3.689   3.547  0.7578 -0.6001 -2.4514
   9023SM  H13C12045   6.269   3.866   3.546 -1.9559  1.4919  0.1708
   9023SM   C1212046   6.077   3.691   3.334 -0.6057  0.3064 -0.8208
   9023SM  H12A12047   6.088   3.600   3.392 -0.9031  0.2377 -0.8730
   9023SM  H12B12048   6.160   3.696   3.266 -0.2786 -1.9205 -0.6872
   9023SM   C1112049   5.944   3.692   3.265 -0.3699  0.2335 -0.4771
   9023SM  H11A12050   5.976   3.631   3.178  1.3668  0.0947  0.2177
   9023SM  H11B12051   5.914   3.793   3.230 -1.7787 -0.2805 -0.8001
   9023SM     P12052   5.810   3.481   3.320 -0.1476 -0.0630 -0.1384
   9023SM   O1312053   5.762   3.458   3.186 -0.4777  0.4325 -0.5490
   9023SM   O1412054   5.926   3.405   3.361  0.3135 -0.0831 -0.1588
   9023SM   O1112055   5.702   3.445   3.433  0.3647  0.1345 -0.0017
   9023SM   O1212056   5.839   3.634   3.342 -0.0434 -0.5843  0.5398
   9023SM   C1S12057   5.739   3.384   3.559 -0.4231 -0.0009  0.1237
   9023SM   H1S12058   5.794   3.458   3.621  0.6422 -0.9976  0.3945
   9023SM   H1T12059   5.800   3.294   3.539 -0.2876  0.2548 -0.6874
   9023SM    NF12060   5.656   3.256   3.755  0.0284  0.1547 -0.6828
   9023SM   HNF12061   5.666   3.161   3.728 -0.0944  0.8797 -3.5640
   9023SM   C2S12062   5.618   3.340   3.644 -0.2590  0.5683 -0.4838
   9023SM   H2S12063   5.575   3.432   3.690  0.5923  1.0666 -0.6747
   9023SM   C3S12064   5.504   3.273   3.558  0.0648 -0.7983 -0.4213
   9023SM   H3S12065   5.551   3.194   3.495  0.3809  0.3207 -1.6316
   9023SM    O312066   5.439   3.361   3.457 -0.5563  0.0501 -0.5767
   9023SM   HO312067   5.511   3.423   3.442  0.9885 -0.3705  3.7605
   9023SM   C4S12068   5.407   3.221   3.665 -1.0880  0.2267  0.5841
   9023SM   H4S12069   5.433   3.119   3.697  0.4832  1.2532  2.7963
   9023SM   C5S12070   5.305   3.278   3.723  0.0549 -1.1989  0.2559
   9023SM   H5S12071   5.288   3.382   3.691  1.5000 -1.5227 -1.6951
   9023SM   C6S12072   5.206   3.214   3.822  0.2035  0.3175 -0.1576
   9023SM   H6S12073   5.132   3.175   3.749  0.7937  0.7032 -0.9808
   9023SM   H6T12074   5.158   3.292   3.886  0.5096 -0.6257  1.2675
   9023SM   C7S12075   5.251   3.097   3.905 -0.3253  0.4902  0.2859
   9023SM   H7S12076   5.312   3.021   3.851 -0.2466  0.9844 -0.3248
   9023SM   H7T12077   5.162   3.036   3.934  0.4964 -0.6395  0.5298
   9023SM   C8S12078   5.326   3.145   4.034 -0.3637  0.7692 -0.0784
   9023SM   H8S12079   5.258   3.219   4.082  0.3037  0.4023  1.4926
   9023SM   H8T12080   5.420   3.198   4.010  1.3698 -2.0589  0.0407
   9023SM   C9S12081   5.369   3.033   4.120 -0.6144 -0.1662 -0.4767
   9023SM   H9S12082   5.472   3.003   4.094  0.7235  1.5903  2.2620
   9023SM   H9T12083   5.296   2.949   4.108  1.8719 -2.4973 -0.1839
   9023SM  C10S12084   5.369   3.086   4.263  0.0003  0.0108 -1.0477
   9023SM  H10S12085   5.276   3.140   4.288  0.5734  0.7434 -0.4519
   9023SM  H10T12086   5.447   3.164   4.274 -1.0534  1.1420 -1.4686
   9023SM  C11S12087   5.384   2.985   4.382 -0.1745  0.3347  0.2550
   9023SM  H11S12088   5.485   2.947   4.355  0.6793  2.3065  0.4251
   9023SM  H11T12089   5.300   2.914   4.368  0.6671 -0.2713 -2.2857
   9023SM  C12S12090   5.386   3.053   4.518 -0.2743 -0.2557 -0.5202
   9023SM  H12S12091   5.283   3.078   4.550 -0.0675  1.6311 -1.2169
   9023SM  H12T12092   5.452   3.143   4.522 -0.9848  0.2525  0.0444
   9023SM  C13S12093   5.432   2.958   4.625  0.1326  0.6208 -0.1325
   9023SM  H13S12094   5.541   2.937   4.623 -0.3958 -3.1849  1.8574
   9023SM  H13T12095   5.378   2.861   4.615  1.4797  0.0798 -2.8911
   9023SM  C14S12096   5.405   3.021   4.762 -0.1633 -0.6698  0.2683
   9023SM  H14S12097   5.298   3.048   4.775 -0.2498 -0.5756 -0.6130
   9023SM  H14T12098   5.464   3.114   4.774 -1.3734  0.4211 -1.6687
   9023SM  C15S12099   5.449   2.928   4.872 -0.2481 -1.1532  0.0697
   9023SM  H15S12100   5.541   2.867   4.861  0.6106 -0.1513  1.2803
   9023SM  H15T12101   5.382   2.842   4.892  0.3719 -1.4374  1.0200
   9023SM  C16S12102   5.455   2.998   5.010 -0.4040  0.2516  0.0511
   9023SM  H16S12103   5.374   3.074   5.020 -0.7548 -0.0957 -0.1341
   9023SM  H16T12104   5.552   3.051   5.015 -0.7596  0.8151  1.3341
   9023SM  C17S12105   5.440   2.911   5.135 -0.7833  0.6713  0.3436
   9023SM  H17S12106   5.512   2.829   5.115 -0.5178  1.2059 -1.0647
   9023SM  H17T12107   5.341   2.860   5.133  1.0103 -3.1406 -1.2277
   9023SM  C18S12108   5.474   2.977   5.265  0.7140 -0.4229 -0.6089
   9023SM  H18S12109   5.422   3.075   5.273 -1.4515 -1.6248  0.8165
   9023SM  H18T12110   5.584   2.995   5.264  0.7836 -0.7963 -0.1366
   9023SM  H18U12111   5.449   2.909   5.349  1.5944 -0.6922 -0.5469
   9023SM   C1F12112   5.725   3.300   3.860 -0.5283 -0.0568  0.3274
   9023SM    OF12113   5.764   3.418   3.865 -0.1614 -0.0834 -0.0116
   9023SM   C2F12114   5.771   3.198   3.958 -0.2680 -0.3708 -0.2516
   9023SM   H2F12115   5.876   3.166   3.943 -0.1084  0.0462 -0.0299
   9023SM   H2G12116   5.706   3.109   3.947  1.2477 -1.6062  0.3869
   9023SM   C3F12117   5.746   3.260   4.102 -0.5543  0.0561 -0.2136
   9023SM   H3F12118   5.638   3.282   4.114 -0.2533  0.9341  0.9223
   9023SM   H3G12119   5.788   3.362   4.106 -0.6058  0.2653 -2.8090
   9023SM   C4F12120   5.785   3.168   4.219 -0.3604  0.0071 -0.7752
   9023SM   H4F12121   5.895   3.162   4.208 -0.5106 -2.9831 -1.4923
   9023SM   H4G12122   5.749   3.065   4.200  2.4312 -0.8507 -1.9002
   9023SM   C5F12123   5.748   3.213   4.360  0.1867  0.0974 -0.6380
   9023SM   H5F12124   5.638   3.212   4.373  0.3716  0.2006  1.2190
   9023SM   H5G12125   5.782   3.318   4.374 -0.6669  0.3359 -0.3103
   9023SM   C6F12126   5.802   3.124   4.473  0.8594  0.2384  0.1626
   9023SM   H6F12127   5.910   3.112   4.450  0.8947 -1.1207  0.8920
   9023SM   H6G12128   5.761   3.020   4.470  1.2694 -0.0255  2.0636
   9023SM   C7F12129   5.779   3.171   4.618  0.0865  0.0915 -0.3792
   9023SM   H7F12130   5.671   3.192   4.638  0.1990  0.1379  0.1939
   9023SM   H7G12131   5.830   3.268   4.640 -1.1296  0.3081  1.8366
   9023SM   C8F12132   5.842   3.080   4.725  0.8382  0.3377  0.0818
   9023SM   H8F12133   5.952   3.065   4.715  0.6044 -3.0743  1.3215
   9023SM   H8G12134   5.788   2.984   4.712  0.3025  0.4591  1.2845
   9023SM   C9F12135   5.811   3.119   4.873 -1.1393  0.0937 -0.2553
   9023SM   H9F12136   5.712   3.165   4.889 -2.2609 -2.6387  1.4435
   9023SM   H9G12137   5.878   3.201   4.905  1.3920 -2.6644  2.1873
   9023SM  C10F12138   5.838   2.997   4.973 -0.5699 -0.0929  0.2788
   9023SM  H10F12139   5.930   2.946   4.936 -0.6668 -0.9206  1.1305
   9023SM  H10G12140   5.753   2.925   4.962 -0.0093 -0.5482 -1.3935
   9023SM  C11F12141   5.876   3.027   5.116  1.2085 -0.1348  0.4336
   9023SM  H11F12142   5.795   3.098   5.143  0.7222  0.2047 -1.7454
   9023SM  H11G12143   5.971   3.085   5.118  2.8436 -2.6516  0.8295
   9023SM  C12F12144   5.893   2.910   5.212  0.0267  0.0370 -0.9207
   9023SM  H12F12145   5.965   2.846   5.155 -1.0236 -3.7418  1.5860
   9023SM  H12G12146   5.814   2.834   5.232  0.3927 -0.6118 -1.8625
   9023SM  C13F12147   5.947   2.959   5.352  0.8430  0.2076  0.1762
   9023SM  H13F12148   5.848   2.980   5.399 -0.1740 -2.2890 -0.6547
   9023SM  H13G12149   6.008   3.050   5.335  0.7629  0.5158  1.4328
   9023SM  C14F12150   6.016   2.856   5.442  0.5463 -0.6373  0.1665
   9023SM  H14F12151   6.125   2.854   5.422  0.6098  4.1081 -1.2707
   9023SM  H14G12152   5.975   2.757   5.413 -3.1474  1.0356 -0.9924
   9023SM  C15F12153   5.993   2.892   5.586  0.1503  0.8819 -0.1759
   9023SM  H15F12154   5.896   2.849   5.620 -0.3739  0.0505 -2.5140
   9023SM  H15G12155   5.982   3.001   5.607 -1.1083  0.6200  0.6879
   9023SM  C16F12156   6.109   2.836   5.675  0.0547 -0.1597 -0.8734
   9023SM  H16F12157   6.196   2.898   5.643  0.2419  0.2533  0.3620
   9023SM  H16G12158   6.136   2.731   5.653 -0.4405 -0.4851  0.0196
   9023SM  C17F12159   6.095   2.842   5.827  0.0289  0.1601 -0.1194
   9023SM  H17F12160   5.985   2.841   5.847 -0.1714  1.9353 -0.9805
   9023SM  H17G12161   6.137   2.940   5.857 -0.1349  0.1606  0.1118
   9023SM  C18F12162   6.189   2.748   5.911 -0.4765 -0.4350 -0.7986
   9023SM  H18F12163   6.167   2.783   6.014  0.0173  0.5576 -1.0268
   9023SM  H18G12164   6.298   2.761   5.897 -0.4092 -0.9131 -0.7239
   9023SM  C19F12165   6.165   2.598   5.908 -0.4182  0.5483 -0.1169
   9023SM  H19F12166   6.183   2.550   5.810 -0.4010  1.8547 -0.7768
   9023SM  H19G12167   6.059   2.576   5.935 -0.2165 -2.5264 -1.3914
   9023SM  C20F12168   6.241   2.526   6.016  0.2722  0.3881  0.7556
   9023SM  H20F12169   6.217   2.575   6.113  0.2527  1.1923  0.3578
   9023SM  H20G12170   6.349   2.549   6.004 -0.0833  1.5325 -0.6331
   9023SM  C21F12171   6.216   2.377   6.028  0.2748 -0.3828  0.3917
   9023SM  H21F12172   6.110   2.343   6.032  0.6580 -1.4554  1.7008
   9023SM  H21G12173   6.270   2.339   6.116  1.4246  0.5326  0.1091
   9023SM  C22F12174   6.280   2.287   5.919 -0.3322  0.2107  0.3538
   9023SM  H22F12175   6.387   2.316   5.918 -0.6230  1.3142 -0.2909
   9023SM  H22G12176   6.248   2.319   5.818 -1.1524 -1.0780  0.1868
   9023SM  C23F12177   6.266   2.136   5.933 -0.5573 -0.0859  0.3984
   9023SM  H23F12178   6.172   2.096   5.889  0.3104 -0.8830 -0.8036
   9023SM  H23G12179   6.272   2.114   6.042 -1.7514 -0.3424  0.4319
   9023SM  H23H12180   6.347   2.078   5.883  0.4397  2.5078 -1.1772
   9123SM     N12181   0.919   4.024   3.555 -1.0252 -0.4876 -0.8714
   9123SM   C1512182   1.018   4.127   3.511  0.1366  0.2365 -0.1643
   9123SM  H15A12183   1.041   4.116   3.406 -0.2956  1.5582 -0.4038
   9123SM  H15B12184   1.114   4.115   3.559 -0.5406 -1.1860  0.9179
   9123SM  H15C12185   0.984   4.225   3.539 -0.8095  0.2246 -1.2136
   9123SM   C1412186   0.983   3.899   3.534 -0.0041 -0.1594  0.1058
   9123SM  H14A12187   0.993   3.881   3.428  0.9157  1.5419 -0.1400
   9123SM  H14B12188   0.917   3.817   3.561 -0.4574  0.3759  0.6574
   9123SM  H14C12189   1.079   3.884   3.581 -0.7851  0.1109  1.8743
   9123SM   C1312190   0.880   4.043   3.702 -0.3099 -0.1420  0.4272
   9123SM  H13A12191   0.816   3.959   3.726 -1.0787  0.2214 -0.2873
   9123SM  H13B12192   0.817   4.130   3.716  1.3671  1.0770  0.6358
   9123SM  H13C12193   0.961   4.035   3.773  0.6933 -3.1555 -0.8906
   9123SM   C1212194   0.801   4.049   3.464  0.3612 -0.1462  0.1224
   9123SM  H12A12195   0.836   4.033   3.363 -1.5545 -2.4360 -0.2839
   9123SM  H12B12196   0.768   4.152   3.468  0.0520 -0.2298 -0.1604
   9123SM   C1112197   0.677   3.963   3.470  0.1525  0.0881 -0.1473
   9123SM  H11A12198   0.712   3.866   3.429 -0.6500  0.0894 -0.8591
   9123SM  H11B12199   0.612   4.018   3.399  1.3388  2.2941  0.3784
   9123SM     P12200   0.492   3.842   3.608 -0.7013 -0.0059 -0.1057
   9123SM   O1312201   0.373   3.893   3.541 -0.3431  0.4234 -0.4600
   9123SM   O1412202   0.541   3.717   3.556 -0.1309  0.0046  0.0301
   9123SM   O1112203   0.464   3.829   3.758 -0.9072 -0.6453 -0.2664
   9123SM   O1212204   0.609   3.952   3.595 -1.0223 -0.2657 -0.4128
   9123SM   C1S12205   0.569   3.866   3.851  0.3289  0.5152  0.0570
   9123SM   H1S12206   0.587   3.975   3.852  2.4023  0.2770 -2.1656
   9123SM   H1T12207   0.667   3.822   3.823  0.6946  1.4360 -0.1410
   9123SM    NF12208   0.611   3.883   4.091 -0.3712 -0.0841 -0.2845
   9123SM   HNF12209   0.686   3.823   4.117  0.5280  1.2215  0.2108
   9123SM   C2S12210   0.525   3.816   3.992  0.2765  0.2493 -1.0263
   9123SM   H2S12211   0.417   3.834   4.008  0.4653  0.1451  0.5002
   9123SM   C3S12212   0.543   3.665   4.015  0.2753 -0.0565  0.0699
   9123SM   H3S12213   0.649   3.633   4.009  0.0552 -0.8781  0.4551
   9123SM    O312214   0.482   3.589   3.906 -0.1287 -0.0979 -0.1983
   9123SM   HO312215   0.440   3.647   3.843 -0.4991 -0.6982 -0.5173
   9123SM   C4S12216   0.489   3.619   4.151  0.3468  0.1777 -0.3600
   9123SM   H4S12217   0.574   3.616   4.222  0.9341  0.4875 -1.0407
   9123SM   C5S12218   0.363   3.575   4.178 -0.4736 -0.2409  0.4065
   9123SM   H5S12219   0.286   3.579   4.099  1.1087  2.2681 -1.1387
   9123SM   C6S12220   0.318   3.524   4.315  0.3994  0.1935  0.6911
   9123SM   H6S12221   0.321   3.413   4.309  1.2494  0.1644  1.4578
   9123SM   H6T12222   0.220   3.570   4.337  0.0360 -0.1398 -0.1546
   9123SM   C7S12223   0.406   3.560   4.437 -0.3873 -0.7384 -0.2319
   9123SM   H7S12224   0.414   3.671   4.437 -1.1519 -0.6689  0.4554
   9123SM   H7T12225   0.505   3.511   4.426 -0.0968  0.0489 -1.2933
   9123SM   C8S12226   0.340   3.527   4.571 -1.2578  0.0764  0.5213
   9123SM   H8S12227   0.310   3.420   4.569 -2.2300  0.3423  0.0046
   9123SM   H8T12228   0.244   3.584   4.578 -0.5439  1.3972  0.0061
   9123SM   C9S12229   0.431   3.542   4.692 -0.2482  0.2048  0.5134
   9123SM   H9S12230   0.487   3.638   4.689  0.7925 -0.2970  2.2976
   9123SM   H9T12231   0.518   3.476   4.671 -0.3232 -0.0332  0.9475
   9123SM  C10S12232   0.361   3.518   4.824  0.0314 -0.4539  0.4434
   9123SM  H10S12233   0.313   3.418   4.823 -0.4028 -0.2433 -0.0559
   9123SM  H10T12234   0.289   3.602   4.836  0.4219 -0.4209  3.3814
   9123SM  C11S12235   0.441   3.540   4.959 -0.7587 -0.2762  0.3121
   9123SM  H11S12236   0.477   3.646   4.964 -0.7243 -0.2600 -0.2516
   9123SM  H11T12237   0.527   3.470   4.954 -0.5127 -0.1832  2.3135
   9123SM  C12S12238   0.351   3.514   5.080 -0.4186 -0.0583 -0.1222
   9123SM  H12S12239   0.294   3.420   5.068 -0.1154 -0.8423  3.4649
   9123SM  H12T12240   0.289   3.605   5.062 -0.1357  0.3885  1.0295
   9123SM  C13S12241   0.423   3.502   5.210 -0.6747 -0.1435  0.5524
   9123SM  H13S12242   0.504   3.577   5.203 -0.7085 -0.2272 -1.1789
   9123SM  H13T12243   0.482   3.407   5.210  1.5448  1.0967 -2.0288
   9123SM  C14S12244   0.319   3.516   5.321  0.2859  0.3614 -0.4154
   9123SM  H14S12245   0.249   3.430   5.311 -0.5073  0.4858  2.7976
   9123SM  H14T12246   0.270   3.614   5.307  0.3112  0.3894 -0.3061
   9123SM  C15S12247   0.398   3.516   5.452  0.0618 -0.7880 -0.6455
   9123SM  H15S12248   0.475   3.596   5.462  0.0203 -0.8843  0.6350
   9123SM  H15T12249   0.457   3.422   5.459  1.5087  0.1199  0.0268
   9123SM  C16S12250   0.315   3.536   5.581  0.2342  0.3108 -0.0426
   9123SM  H16S12251   0.232   3.464   5.598 -0.6144  1.1235 -0.6909
   9123SM  H16T12252   0.270   3.637   5.573 -0.5114 -0.1080 -1.6958
   9123SM  C17S12253   0.419   3.532   5.697  0.0999 -0.3761 -0.7757
   9123SM  H17S12254   0.520   3.554   5.657 -0.2775  1.8576 -0.6444
   9123SM  H17T12255   0.425   3.426   5.732  0.9691 -0.2574 -0.5251
   9123SM  C18S12256   0.406   3.616   5.821  0.4028  0.2332 -0.2656
   9123SM  H18S12257   0.305   3.595   5.864  0.1792 -1.2031 -1.4123
   9123SM  H18T12258   0.417   3.726   5.812  2.7757  0.0839  0.2887
   9123SM  H18U12259   0.482   3.580   5.893  1.1676 -0.0047 -1.1810
   9123SM   C1F12260   0.595   4.015   4.118  0.0714  0.7567  0.2352
   9123SM    OF12261   0.496   4.077   4.096 -0.0142  0.3869  0.2603
   9123SM   C2F12262   0.716   4.081   4.175  0.0276  0.3977  0.4701
   9123SM   H2F12263   0.738   4.160   4.100  0.4924  0.9252  1.1449
   9123SM   H2G12264   0.798   4.007   4.180  0.5439  0.9860  0.9308
   9123SM   C3F12265   0.678   4.154   4.309 -0.2261 -0.1469  0.2425
   9123SM   H3F12266   0.643   4.087   4.391  1.5324 -0.0542  1.1184
   9123SM   H3G12267   0.602   4.232   4.285  0.6084  0.0507 -1.9355
   9123SM   C4F12268   0.799   4.227   4.368  0.2661  0.3128 -0.5660
   9123SM   H4F12269   0.855   4.277   4.286  1.1839 -1.9493 -1.3934
   9123SM   H4G12270   0.882   4.163   4.408 -0.2758 -0.7179 -1.0609
   9123SM   C5F12271   0.769   4.326   4.473 -0.2342 -0.0579 -0.1281
   9123SM   H5F12272   0.699   4.405   4.438 -0.4342 -0.5936 -0.9745
   9123SM   H5G12273   0.868   4.371   4.501  1.1332 -1.9608 -1.6373
   9123SM   C6F12274   0.711   4.271   4.608 -0.1709 -0.1988  0.9163
   9123SM   H6F12275   0.785   4.207   4.661 -0.1312 -0.0321  1.0623
   9123SM   H6G12276   0.627   4.200   4.589 -0.3020  0.1082  0.3229
   9123SM   C7F12277   0.655   4.383   4.701 -0.1061 -0.2690 -0.5842
   9123SM   H7F12278   0.557   4.411   4.656  0.2848  4.1827  0.8327
   9123SM   H7G12279   0.721   4.472   4.699  0.4640 -0.6932 -1.4112
   9123SM   C8F12280   0.635   4.325   4.841 -0.1481 -0.1043 -0.2057
   9123SM   H8F12281   0.630   4.215   4.829 -0.8012 -0.0765 -0.2080
   9123SM   H8G12282   0.532   4.351   4.872  0.3986  0.2321  1.4460
   9123SM   C9F12283   0.738   4.363   4.950  0.0867 -0.0832  0.2057
   9123SM   H9F12284   0.732   4.473   4.969  0.5989  0.7353 -3.5492
   9123SM   H9G12285   0.836   4.348   4.902 -0.2766  1.0951 -0.9755
   9123SM  C10F12286   0.737   4.288   5.087 -0.7074 -0.3026  0.4218
   9123SM  H10F12287   0.833   4.320   5.134 -1.1237  0.8082  0.5376
   9123SM  H10G12288   0.722   4.179   5.071  0.8786 -0.5825  0.6259
   9123SM  C11F12289   0.631   4.350   5.179 -0.2350 -0.0119  0.7916
   9123SM  H11F12290   0.527   4.326   5.148  0.2709 -3.0110  1.1460
   9123SM  H11G12291   0.645   4.459   5.195  2.5398 -0.1055 -0.4745
   9123SM  C12F12292   0.644   4.287   5.318  0.5004 -0.2911  0.2721
   9123SM  H12F12293   0.747   4.294   5.358  0.9219 -0.6096 -0.7264
   9123SM  H12G12294   0.630   4.177   5.312  1.8437 -0.3751 -2.2748
   9123SM  C13F12295   0.540   4.354   5.412  0.0438  1.0791 -0.8260
   9123SM  H13F12296   0.434   4.349   5.377  0.6081  2.0767 -2.8501
   9123SM  H13G12297   0.565   4.461   5.422  2.5643  0.4090  0.9122
   9123SM  C14F12298   0.549   4.293   5.552  0.4165 -0.7312 -0.3049
   9123SM  H14F12299   0.653   4.297   5.591  0.0561 -1.3344  0.7536
   9123SM  H14G12300   0.523   4.185   5.551 -0.1147 -0.6061 -0.1796
   9123SM  C15F12301   0.455   4.368   5.646  0.3272  0.0861  0.2662
   9123SM  H15F12302   0.350   4.340   5.625  0.1143 -1.0216  2.4782
   9123SM  H15G12303   0.455   4.479   5.643 -1.2703  0.1081  0.3240
   9123SM  C16F12304   0.482   4.328   5.792 -0.3349 -0.2155  0.2343
   9123SM  H16F12305   0.592   4.318   5.804 -0.1093  2.5717  1.1825
   9123SM  H16G12306   0.444   4.225   5.810 -0.6868 -0.2479 -0.6088
   9123SM  C17F12307   0.429   4.419   5.899  0.3678  0.1927 -0.3999
   9123SM  H17F12308   0.318   4.420   5.887  0.2521 -2.0414  0.0725
   9123SM  H17G12309   0.457   4.526   5.884 -2.7871  1.1054 -0.6211
   9123SM  C18F12310   0.471   4.374   6.038 -0.0745 -0.1745  0.2486
   9123SM  H18F12311   0.562   4.431   6.065 -0.1446 -0.1746  0.4890
   9123SM  H18G12312   0.497   4.266   6.035  0.4863 -0.0700  1.0754
   9123SM  C19F12313   0.363   4.374   6.143 -0.4507  0.7134 -0.0814
   9123SM  H19F12314   0.380   4.293   6.218  1.0969  0.9088 -0.1773
   9123SM  H19G12315   0.265   4.350   6.098 -0.1387 -2.5649  0.7044
   9123SM  C20F12316   0.330   4.506   6.212  0.5233 -0.4585 -0.7238
   9123SM  H20F12317   0.302   4.490   6.318 -1.3990 -1.2631 -1.3060
   9123SM  H20G12318   0.250   4.552   6.151 -0.0821 -0.7041 -0.1251
   9123SM  C21F12319   0.439   4.611   6.222 -0.5566 -0.3979 -0.4936
   9123SM  H21F12320   0.388   4.699   6.267  0.1482 -0.3883  0.3052
   9123SM  H21G12321   0.472   4.634   6.118 -0.2297 -0.1856 -0.3443
   9123SM  C22F12322   0.569   4.578   6.307 -0.3889 -0.1812  0.0327
   9123SM  H22F12323   0.608   4.483   6.265  2.3601  0.3746  1.0929
   9123SM  H22G12324   0.532   4.555   6.409  1.7334  0.7464  1.0850
   9123SM  C23F12325   0.688   4.678   6.321  0.3518 -0.1080 -0.4094
   9123SM  H23F12326   0.745   4.698   6.228  1.1755 -0.5790 -0.0125
   9123SM  H23G12327   0.753   4.646   6.405 -0.3465  1.6077  0.8500
   9123SM  H23H12328   0.650   4.776   6.357 -0.7579 -0.3723 -0.8140
   9223SM     N12329   3.510   1.319   3.778 -0.0192  0.4285  1.0263
   9223SM   C1512330   3.615   1.420   3.808 -0.1807  0.6144 -0.2180
   9223SM  H15A12331   3.677   1.439   3.721  1.5890  2.7191  1.3781
   9223SM  H15B12332   3.676   1.372   3.884 -0.1854  1.5114  0.3679
   9223SM  H15C12333   3.574   1.510   3.850 -1.0234  0.1719 -0.0753
   9223SM   C1412334   3.429   1.376   3.666  0.1252 -0.1199  0.8092
   9223SM  H14A12335   3.347   1.311   3.640 -0.4512  1.7808 -2.7879
   9223SM  H14B12336   3.492   1.392   3.579 -0.9148 -1.0158 -0.1440
   9223SM  H14C12337   3.388   1.470   3.700 -0.9242 -0.5381  0.7213
   9223SM   C1312338   3.585   1.196   3.732 -0.0261 -0.4479 -0.2177
   9223SM  H13A12339   3.647   1.166   3.816 -0.1462  2.3688  1.0004
   9223SM  H13B12340   3.651   1.215   3.649 -0.2464 -0.0149 -0.2964
   9223SM  H13C12341   3.522   1.114   3.702  0.1806 -0.1516 -1.5055
   9223SM   C1212342   3.411   1.289   3.889  0.2388 -0.0560  0.9194
   9223SM  H12A12343   3.336   1.219   3.855  2.7795 -5.1541  4.3623
   9223SM  H12B12344   3.365   1.384   3.908  0.1195 -0.0398  0.5610
   9223SM   C1112345   3.466   1.235   4.028 -0.1010  0.2420  0.5262
   9223SM  H11A12346   3.376   1.211   4.088 -0.0969 -0.7680  0.1505
   9223SM  H11B12347   3.525   1.323   4.062 -0.0740 -0.1344  1.4833
   9223SM     P12348   3.494   0.977   4.005 -0.0655 -0.2884  0.0854
   9223SM   O1312349   3.358   0.976   3.945  0.1712 -0.1246 -0.0683
   9223SM   O1412350   3.599   0.887   3.939  0.3165  0.1772  0.4135
   9223SM   O1112351   3.493   0.935   4.154 -0.3097  0.3998 -0.5329
   9223SM   O1212352   3.554   1.124   4.010  0.1435  0.2978 -0.3547
   9223SM   C1S12353   3.606   0.958   4.246 -0.1717  0.1886 -0.1055
   9223SM   H1S12354   3.690   1.013   4.199 -0.3293  0.3479 -0.1994
   9223SM   H1T12355   3.648   0.863   4.285  0.0840  1.1884  2.2304
   9223SM    NF12356   3.665   1.033   4.478  0.0905 -0.2345 -0.0616
   9223SM   HNF12357   3.636   0.991   4.564  1.6956 -0.2477  0.5152
   9223SM   C2S12358   3.572   1.046   4.373 -0.1559  0.5325  1.0434
   9223SM   H2S12359   3.561   1.156   4.358 -1.4223  0.4329  1.0933
   9223SM   C3S12360   3.429   1.005   4.428 -0.1351 -0.8201 -0.4809
   9223SM   H3S12361   3.441   0.898   4.457  0.9260 -0.4537  0.5137
   9223SM    O312362   3.327   1.007   4.329 -0.3749 -0.4554  0.0772
   9223SM   HO312363   3.378   0.994   4.248  2.9351 -0.4468  1.9586
   9223SM   C4S12364   3.392   1.077   4.559  0.2574  0.3746  0.0575
   9223SM   H4S12365   3.399   1.007   4.643  0.9942 -0.6823 -0.8465
   9223SM   C5S12366   3.350   1.200   4.582 -0.8659  0.1827 -0.0555
   9223SM   H5S12367   3.367   1.269   4.498  1.3527 -0.2883 -0.0434
   9223SM   C6S12368   3.294   1.260   4.708  0.8023 -0.3379  0.3432
   9223SM   H6S12369   3.184   1.255   4.695  0.8607 -1.1018  0.0933
   9223SM   H6T12370   3.319   1.368   4.715  0.7188 -0.2729 -0.2701
   9223SM   C7S12371   3.325   1.184   4.837 -0.7240  0.1045 -0.2872
   9223SM   H7S12372   3.436   1.189   4.844 -0.4431 -3.0332 -0.9251
   9223SM   H7T12373   3.279   1.083   4.842 -0.9317  0.2328  0.6519
   9223SM   C8S12374   3.260   1.257   4.960  0.1581 -0.8338  0.0275
   9223SM   H8S12375   3.150   1.268   4.947  0.3307 -1.1653 -2.0617
   9223SM   H8T12376   3.295   1.362   4.964  1.4724 -1.2512  0.0463
   9223SM   C9S12377   3.308   1.194   5.089 -0.1280  0.3893  0.1616
   9223SM   H9S12378   3.419   1.196   5.086 -0.1329  0.3431 -0.0473
   9223SM   H9T12379   3.284   1.087   5.103 -0.4675  0.6647  2.1042
   9223SM  C10S12380   3.270   1.263   5.222 -0.2697 -0.7858  1.0502
   9223SM  H10S12381   3.163   1.240   5.235 -0.8061  1.2938  0.6295
   9223SM  H10T12382   3.272   1.374   5.219 -1.5495 -0.6751  3.0243
   9223SM  C11S12383   3.344   1.222   5.346 -0.4571 -0.0796 -0.0444
   9223SM  H11S12384   3.453   1.239   5.327  0.2805 -2.7072  1.2912
   9223SM  H11T12385   3.337   1.111   5.342  1.3846 -0.1928 -1.7689
   9223SM  C12S12386   3.278   1.289   5.470 -0.2254  0.3091  0.1261
   9223SM  H12S12387   3.173   1.254   5.464 -0.4373  0.8965  0.3426
   9223SM  H12T12388   3.261   1.399   5.460  0.1651  0.4077  0.4892
   9223SM  C13S12389   3.353   1.246   5.597 -0.1173 -0.1298 -0.0872
   9223SM  H13S12390   3.460   1.266   5.577 -0.5294  0.5379 -1.7721
   9223SM  H13T12391   3.344   1.136   5.608 -1.5924 -0.1044 -0.7454
   9223SM  C14S12392   3.312   1.331   5.715  0.1719 -0.2354 -0.1382
   9223SM  H14S12393   3.209   1.310   5.751  0.4423  0.6593  1.2434
   9223SM  H14T12394   3.310   1.437   5.683 -0.3532  0.3180  1.6011
   9223SM  C15S12395   3.405   1.321   5.831  0.4097 -0.0702  0.0392
   9223SM  H15S12396   3.502   1.375   5.821 -0.9839  2.2852 -2.0373
   9223SM  H15T12397   3.428   1.212   5.838 -1.1950 -0.3770  0.9847
   9223SM  C16S12398   3.336   1.365   5.962 -0.3119 -0.0663  0.1673
   9223SM  H16S12399   3.245   1.302   5.969  0.7139 -1.6175  0.1010
   9223SM  H16T12400   3.315   1.473   5.952 -2.1689 -0.2844  1.1198
   9223SM  C17S12401   3.432   1.340   6.083 -0.1542  0.2473  0.6135
   9223SM  H17S12402   3.407   1.400   6.174 -1.1003  0.1796  0.4056
   9223SM  H17T12403   3.535   1.378   6.066 -0.1491 -0.0859 -0.1011
   9223SM  C18S12404   3.439   1.194   6.119  0.0015 -0.0332  0.2184
   9223SM  H18S12405   3.336   1.169   6.152  0.5607 -0.1124  1.9959
   9223SM  H18T12406   3.520   1.173   6.192  1.0870  0.5461 -0.7811
   9223SM  H18U12407   3.472   1.124   6.039  1.0671 -0.2032  0.7929
   9223SM   C1F12408   3.792   1.074   4.461 -0.3003 -0.1076 -0.9611
   9223SM    OF12409   3.830   1.123   4.359 -0.3328 -0.2251  0.0976
   9223SM   C2F12410   3.892   1.035   4.573 -0.0409  0.0257 -0.7165
   9223SM   H2F12411   3.996   1.062   4.547 -0.8288  1.9723 -2.0460
   9223SM   H2G12412   3.892   0.926   4.594 -0.7588  0.4542  1.8417
   9223SM   C3F12413   3.850   1.111   4.700 -0.0924  0.3293  0.2688
   9223SM   H3F12414   3.748   1.085   4.735  0.1804  0.2673  1.0413
   9223SM   H3G12415   3.855   1.222   4.700 -0.1436  0.3545  1.9443
   9223SM   C4F12416   3.929   1.071   4.827  0.0535  0.0046 -0.0203
   9223SM   H4F12417   4.033   1.053   4.794 -0.9416 -1.9720 -2.4150
   9223SM   H4G12418   3.899   0.968   4.855 -1.9883  0.9624  1.6140
   9223SM   C5F12419   3.928   1.168   4.941 -0.2866  0.1310 -0.0267
   9223SM   H5F12420   3.835   1.225   4.962 -0.5188  0.9823 -2.9740
   9223SM   H5G12421   4.001   1.244   4.907 -2.7231  1.2838 -3.1229
   9223SM   C6F12422   3.973   1.081   5.062 -0.5260  0.3631 -0.4203
   9223SM   H6F12423   4.073   1.035   5.047  0.1433  0.5138  2.9173
   9223SM   H6G12424   3.898   1.003   5.088  1.0165 -1.1668 -0.4388
   9223SM   C7F12425   4.000   1.165   5.189 -0.7294  0.3579 -0.5675
   9223SM   H7F12426   3.896   1.188   5.222 -0.6268  1.5463 -1.0166
   9223SM   H7G12427   4.052   1.261   5.167  0.9475 -0.2013  0.7776
   9223SM   C8F12428   4.079   1.084   5.297 -0.1725 -0.1855  0.5266
   9223SM   H8F12429   4.175   1.043   5.259 -0.1784  0.6794 -0.4625
   9223SM   H8G12430   4.015   0.997   5.323  0.3651 -1.2198 -1.4391
   9223SM   C9F12431   4.102   1.164   5.423  0.6827 -0.0021 -0.2836
   9223SM   H9F12432   4.008   1.195   5.474  0.4990 -3.4038  1.7183
   9223SM   H9G12433   4.168   1.250   5.399 -1.6870  2.2551  0.7898
   9223SM  C10F12434   4.188   1.089   5.528  0.7673  1.2103 -0.0740
   9223SM  H10F12435   4.275   1.041   5.479 -0.2169 -0.3888 -0.3159
   9223SM  H10G12436   4.125   1.007   5.568  0.2152  0.6531 -1.9850
   9223SM  C11F12437   4.248   1.173   5.641  0.0677  0.2535  0.5509
   9223SM  H11F12438   4.160   1.224   5.685  0.9583  1.9421  0.4481
   9223SM  H11G12439   4.316   1.252   5.601  1.4872 -0.8714  0.6779
   9223SM  C12F12440   4.300   1.084   5.761  0.4643  0.0625  0.4422
   9223SM  H12F12441   4.399   1.047   5.727  0.7081 -0.5334  1.7343
   9223SM  H12G12442   4.244   0.990   5.777 -1.4816  1.0306 -0.2896
   9223SM  C13F12443   4.312   1.161   5.889 -0.0006 -0.3649  0.2647
   9223SM  H13F12444   4.224   1.226   5.908  0.6797  0.8900 -0.7402
   9223SM  H13G12445   4.401   1.227   5.895 -0.5782  0.5069 -0.5594
   9223SM  C14F12446   4.306   1.074   6.015 -0.2366  0.6732 -0.4677
   9223SM  H14F12447   4.238   0.987   6.003  1.5350 -0.7999 -0.2777
   9223SM  H14G12448   4.265   1.137   6.097 -0.0518 -0.3666  0.4617
   9223SM  C15F12449   4.447   1.024   6.049  0.6481  0.1624  0.3512
   9223SM  H15F12450   4.487   1.099   6.121 -2.4071  1.2564  1.0761
   9223SM  H15G12451   4.504   1.016   5.955 -1.8191  2.3912 -1.5118
   9223SM  C16F12452   4.458   0.895   6.133  0.0286  0.4068  0.4657
   9223SM  H16F12453   4.420   0.809   6.074 -1.2273  1.5693 -0.4933
   9223SM  H16G12454   4.385   0.900   6.216 -0.0995  3.8939  0.3065
   9223SM  C17F12455   4.591   0.876   6.186 -0.3188 -0.0861 -0.3542
   9223SM  H17F12456   4.619   0.955   6.260  1.7361 -0.2612 -0.8753
   9223SM  H17G12457   4.665   0.874   6.103 -0.2592  1.3536 -0.3604
   9223SM  C18F12458   4.603   0.744   6.266  0.0977  0.5341  0.8101
   9223SM  H18F12459   4.574   0.653   6.209 -0.0508 -0.0558  1.8123
   9223SM  H18G12460   4.516   0.755   6.334 -0.6340  1.0861 -0.1840
   9223SM  C19F12461   4.736   0.731   6.336  0.1434 -0.2592 -0.2601
   9223SM  H19F12462   4.716   0.661   6.419 -0.4987 -2.5912 -2.2797
   9223SM  H19G12463   4.774   0.829   6.373  1.2196 -0.1479 -1.5390
   9223SM  C20F12464   4.843   0.669   6.241 -0.4444  0.4007 -0.3596
   9223SM  H20F12465   4.862   0.741   6.159  1.2858  1.7493  1.1463
   9223SM  H20G12466   4.795   0.583   6.188 -0.3901  1.3537 -2.0052
   9223SM  C21F12467   4.972   0.626   6.313 -0.0738  0.5534  0.1968
   9223SM  H21F12468   5.034   0.567   6.243 -0.7408  0.2842 -0.1838
   9223SM  H21G12469   4.948   0.557   6.397  1.6969  0.7608  0.9158
   9223SM  C22F12470   5.057   0.738   6.377 -0.6740 -0.5411 -0.1924
   9223SM  H22F12471   5.012   0.772   6.473  0.2073  2.0513 -0.6103
   9223SM  H22G12472   5.072   0.824   6.308  0.6531  0.4342  1.2513
   9223SM  C23F12473   5.202   0.688   6.409 -0.2197 -0.3323  0.1848
   9223SM  H23F12474   5.256   0.643   6.323  1.7162  1.0603  0.6004
   9223SM  H23G12475   5.214   0.618   6.495 -0.3908 -0.1065  0.3930
   9223SM  H23H12476   5.271   0.770   6.440  0.7741 -1.0843  0.0380
   9323SM     N12477   0.538   4.761   3.542 -0.0345  0.4202  0.1791
   9323SM   C1512478   0.528   4.659   3.427 -0.1422 -0.0173  0.2976
   9323SM  H15A12479   0.504   4.558   3.455  0.2310 -0.0293  0.5845
   9323SM  H15B12480   0.624   4.665   3.377 -2.0496  1.2296 -3.6729
   9323SM  H15C12481   0.457   4.692   3.353 -0.1338  0.1786  0.3760
   9323SM   C1412482   0.606   4.691   3.657 -0.1087 -0.3814  0.2959
   9323SM  H14A12483   0.533   4.630   3.706 -0.6073 -1.1611 -1.3564
   9323SM  H14B12484   0.643   4.762   3.730  1.0106  0.0705 -0.6738
   9323SM  H14C12485   0.687   4.621   3.643  0.3377  0.2046 -0.1064
   9323SM   C1312486   0.617   4.875   3.501 -0.2121  0.5592  0.3040
   9323SM  H13A12487   0.638   4.941   3.584  1.5447 -2.2544  2.2646
   9323SM  H13B12488   0.569   4.929   3.421 -0.2460 -0.7220 -0.5633
   9323SM  H13C12489   0.716   4.845   3.468 -0.1930 -0.2271  1.0498
   9323SM   C1212490   0.395   4.801   3.577  0.0959  1.0247  1.2438
   9323SM  H12A12491   0.330   4.715   3.562  0.8271  0.6210  0.2731
   9323SM  H12B12492   0.364   4.873   3.502 -1.6618  0.6200  1.5438
   9323SM   C1112493   0.370   4.874   3.703  0.3731 -0.8910  0.2898
   9323SM  H11A12494   0.402   4.822   3.796 -2.6734  0.3059  2.1471
   9323SM  H11B12495   0.260   4.883   3.715  0.4055 -0.7601  0.4852
   9323SM     P12496   0.545   5.058   3.791  0.1250  0.4646 -0.0345
   9323SM   O1312497   0.600   4.944   3.866  0.3207 -0.4160 -0.2200
   9323SM   O1412498   0.642   5.128   3.704  0.6403 -0.1789 -0.2584
   9323SM   O1112499   0.472   5.156   3.880  0.2798 -0.9031 -1.3457
   9323SM   O1212500   0.423   5.010   3.697 -0.1440  0.5288  0.5000
   9323SM   C1S12501   0.371   5.102   3.976  0.0701  0.2977  0.0267
   9323SM   H1S12502   0.328   5.003   3.947  1.2318 -0.0028 -0.7610
   9323SM   H1T12503   0.289   5.176   3.988  0.8614  0.9149  1.9356
   9323SM    NF12504   0.310   5.017   4.193  0.5718  0.0366 -0.1628
   9323SM   HNF12505   0.244   5.078   4.237 -2.5496 -2.7471 -0.6427
   9323SM   C2S12506   0.424   5.077   4.117  0.9785 -0.7772 -0.6703
   9323SM   H2S12507   0.508   5.005   4.106  1.6539 -0.2321  0.6542
   9323SM   C3S12508   0.481   5.210   4.179 -0.4256  0.1418 -1.2615
   9323SM   H3S12509   0.413   5.298   4.172 -0.8915 -0.1343 -0.2715
   9323SM    O312510   0.603   5.242   4.115 -0.2555  0.4645  0.1227
   9323SM   HO312511   0.595   5.173   4.049 -0.3143 -0.2727  0.8799
   9323SM   C4S12512   0.513   5.182   4.329 -0.3535 -0.3603 -0.8426
   9323SM   H4S12513   0.595   5.110   4.340 -0.6836 -1.1541 -3.0573
   9323SM   C5S12514   0.435   5.234   4.434 -0.3107  0.6271 -0.0437
   9323SM   H5S12515   0.345   5.281   4.392  0.2717 -0.1943 -2.3633
   9323SM   C6S12516   0.438   5.215   4.580  0.1322 -0.2667 -0.3903
   9323SM   H6S12517   0.399   5.310   4.621 -0.4307 -0.1779 -1.1084
   9323SM   H6T12518   0.537   5.190   4.623  0.2029  1.6696  0.7009
   9323SM   C7S12519   0.339   5.104   4.628  0.7366 -0.3411  0.2638
   9323SM   H7S12520   0.380   5.004   4.600  0.9841  0.1868 -1.3751
   9323SM   H7T12521   0.245   5.118   4.569  0.4787  0.7560  0.9135
   9323SM   C8S12522   0.294   5.121   4.768  0.1263 -0.0662  0.1502
   9323SM   H8S12523   0.204   5.059   4.792  0.6290 -0.4818  0.9943
   9323SM   H8T12524   0.253   5.224   4.780  2.9745  1.0062  1.3530
   9323SM   C9S12525   0.417   5.113   4.864 -0.0147  0.2969  0.6124
   9323SM   H9S12526   0.472   5.209   4.847  2.3842 -0.9765  0.7213
   9323SM   H9T12527   0.489   5.041   4.821  0.9115  1.1950  0.6111
   9323SM  C10S12528   0.384   5.086   5.008  0.4975  0.3583  0.5211
   9323SM  H10S12529   0.484   5.063   5.053  1.2939  1.1801 -0.7609
   9323SM  H10T12530   0.320   4.997   5.026 -1.5387  1.6799  0.0813
   9323SM  C11S12531   0.324   5.210   5.076 -0.2597 -0.5012  0.8581
   9323SM  H11S12532   0.234   5.235   5.015  0.7761  0.4194 -0.3256
   9323SM  H11T12533   0.399   5.288   5.056  0.9811 -1.8991 -0.1003
   9323SM  C12S12534   0.277   5.186   5.211 -0.3575  0.0269 -0.1655
   9323SM  H12S12535   0.365   5.137   5.258  0.1445  0.2058 -0.9063
   9323SM  H12T12536   0.202   5.105   5.213  1.5953 -1.8736  1.2087
   9323SM  C13S12537   0.220   5.305   5.286  0.5895  0.1422 -0.3286
   9323SM  H13S12538   0.120   5.329   5.244 -0.2315  1.8741  2.3474
   9323SM  H13T12539   0.281   5.394   5.261  0.1950  0.2664 -0.8613
   9323SM  C14S12540   0.218   5.281   5.439 -0.2392  0.5162 -0.4672
   9323SM  H14S12541   0.324   5.275   5.471  0.0069  2.0632 -0.8930
   9323SM  H14T12542   0.170   5.190   5.480  0.3804  1.2153  1.9823
   9323SM  C15S12543   0.153   5.401   5.513 -0.3871 -0.2943 -0.2591
   9323SM  H15S12544   0.197   5.499   5.483 -0.1811  0.0640  1.1487
   9323SM  H15T12545   0.045   5.413   5.490 -0.1489  0.6090 -1.0159
   9323SM  C16S12546   0.177   5.382   5.665 -0.4988 -0.5248  0.2457
   9323SM  H16S12547   0.146   5.479   5.707  1.8042  0.1996  0.4249
   9323SM  H16T12548   0.287   5.377   5.682 -0.2536  0.2820 -0.9385
   9323SM  C17S12549   0.095   5.261   5.713 -0.1579 -1.0161 -0.0876
   9323SM  H17S12550   0.154   5.172   5.682 -1.2188 -1.6265 -0.4356
   9323SM  H17T12551  -0.004   5.258   5.662 -2.2611 -0.1835  3.5759
   9323SM  C18S12552   0.064   5.257   5.864  0.1250  0.6300  0.0632
   9323SM  H18S12553   0.164   5.227   5.902  0.4890  0.5959 -0.8911
   9323SM  H18T12554   0.000   5.170   5.891 -2.1331  2.3027  0.3331
   9323SM  H18U12555   0.040   5.357   5.906 -0.1867  0.9132 -0.7640
   9323SM   C1F12556   0.275   4.893   4.175 -0.2776  0.0606 -0.2367
   9323SM    OF12557   0.347   4.820   4.110 -0.2729 -0.1041  0.2118
   9323SM   C2F12558   0.153   4.844   4.247 -0.1206 -0.1995  0.2575
   9323SM   H2F12559   0.082   4.792   4.180  0.2550 -0.7006  0.2416
   9323SM   H2G12560   0.098   4.933   4.284  2.8788  1.3022  1.4143
   9323SM   C3F12561   0.191   4.751   4.365  0.5525 -0.0073 -0.1822
   9323SM   H3F12562   0.255   4.814   4.430  1.8959 -1.5620  0.0768
   9323SM   H3G12563   0.253   4.664   4.333  0.1614 -0.2179 -0.3643
   9323SM   C4F12564   0.070   4.701   4.449  0.0243  0.4493 -0.5291
   9323SM   H4F12565   0.103   4.633   4.530 -1.7529 -0.1915 -0.3062
   9323SM   H4G12566   0.013   4.650   4.369 -1.7671  2.6003 -0.7353
   9323SM   C5F12567   0.000   4.819   4.523 -0.4563  0.3467  0.6902
   9323SM   H5F12568  -0.066   4.874   4.453 -1.2617 -1.1378  0.2344
   9323SM   H5G12569   0.075   4.898   4.545  1.7262 -1.3776 -0.0430
   9323SM   C6F12570  -0.073   4.781   4.647 -0.1539 -0.0598 -0.3879
   9323SM   H6F12571  -0.115   4.679   4.627 -0.3683  0.2368 -1.5371
   9323SM   H6G12572  -0.156   4.850   4.672  0.5496  0.6544 -0.0115
   9323SM   C7F12573   0.027   4.767   4.768  0.2617 -1.0155 -0.2758
   9323SM   H7F12574   0.105   4.845   4.774  1.1003 -1.9021  1.0299
   9323SM   H7G12575   0.089   4.678   4.744  0.7896 -0.7604  0.1207
   9323SM   C8F12576  -0.036   4.746   4.903  0.4155 -0.3286  0.0634
   9323SM   H8F12577   0.021   4.672   4.963 -1.5548  0.8501  3.7485
   9323SM   H8G12578  -0.139   4.704   4.890  1.2397 -2.1701 -0.9147
   9323SM   C9F12579  -0.052   4.879   4.977 -0.8287 -0.4455  0.3754
   9323SM   H9F12580  -0.117   4.945   4.917 -1.4122 -1.5425 -0.2336
   9323SM   H9G12581   0.047   4.929   4.984 -1.3310  0.9457 -1.4764
   9323SM  C10F12582  -0.111   4.847   5.108 -0.5060 -0.2271 -0.4794
   9323SM  H10F12583  -0.044   4.773   5.155  0.2311  0.6802 -0.0719
   9323SM  H10G12584  -0.207   4.791   5.104 -0.4830 -0.2042 -1.8167
   9323SM  C11F12585  -0.142   4.977   5.185 -0.6762  0.9336  0.0898
   9323SM  H11F12586  -0.210   5.047   5.132  0.0779  1.2847 -0.4299
   9323SM  H11G12587  -0.047   5.030   5.206 -0.7126  1.2461 -0.5333
   9323SM  C12F12588  -0.200   4.955   5.327  0.4978  0.1060 -0.6358
   9323SM  H12F12589  -0.298   4.902   5.329 -0.7258  2.1508 -2.1066
   9323SM  H12G12590  -0.218   5.055   5.374 -0.2245  0.3046 -1.3104
   9323SM  C13F12591  -0.112   4.877   5.422 -0.3231 -0.0526 -0.4493
   9323SM  H13F12592  -0.009   4.915   5.405 -0.7157  1.1117 -0.3585
   9323SM  H13G12593  -0.111   4.774   5.381  0.5542 -0.4601  0.5543
   9323SM  C14F12594  -0.145   4.887   5.570 -0.1970 -1.1339 -0.1400
   9323SM  H14F12595  -0.119   4.987   5.613  2.6601 -1.1388 -1.6043
   9323SM  H14G12596  -0.078   4.819   5.627  0.7258  0.2080  0.4450
   9323SM  C15F12597  -0.293   4.854   5.608  0.7488  0.7486  0.6187
   9323SM  H15F12598  -0.319   4.761   5.552 -0.3618  1.9876 -1.0276
   9323SM  H15G12599  -0.357   4.931   5.559  2.1960  2.2376  1.0009
   9323SM  C16F12600  -0.324   4.842   5.749  0.8267 -0.2394  0.2573
   9323SM  H16F12601  -0.276   4.753   5.794  1.5174 -0.3292 -0.6384
   9323SM  H16G12602  -0.432   4.819   5.764  0.6184  0.2299 -0.4818
   9323SM  C17F12603  -0.285   4.964   5.834  0.1886 -0.1139  0.1869
   9323SM  H17F12604  -0.319   5.055   5.779 -1.6596 -1.5095 -1.1143
   9323SM  H17G12605  -0.177   4.965   5.857  0.2313 -0.9319  0.0539
   9323SM  C18F12606  -0.359   4.951   5.976  0.2788  0.4361  0.2010
   9323SM  H18F12607  -0.335   4.867   6.045 -1.0843  1.3120  1.8313
   9323SM  H18G12608  -0.467   4.947   5.951 -0.3689  4.1336  1.7477
   9323SM  C19F12609  -0.338   5.081   6.060 -0.2556 -0.4945  0.1359
   9323SM  H19F12610  -0.429   5.086   6.124 -0.2965  0.1104  0.0387
   9323SM  H19G12611  -0.346   5.170   5.993  1.3726 -2.0593 -2.2719
   9323SM  C20F12612  -0.210   5.086   6.142 -0.0914  0.5332  0.0914
   9323SM  H20F12613  -0.121   5.100   6.077  1.1941  0.2487  1.7146
   9323SM  H20G12614  -0.199   4.988   6.192  1.0249  1.7871  2.5187
   9323SM  C21F12615  -0.203   5.188   6.261 -0.4434  0.0736  0.6422
   9323SM  H21F12616  -0.114   5.169   6.324 -0.3166 -1.3104  0.0863
   9323SM  H21G12617  -0.290   5.167   6.326 -0.6717 -1.0707  0.0006
   9323SM  C22F12618  -0.189   5.340   6.218 -0.4219  0.6646 -0.3416
   9323SM  H22F12619  -0.264   5.354   6.137  1.2510  0.6761 -1.9739
   9323SM  H22G12620  -0.088   5.361   6.177  0.4838  0.6485  1.7872
   9323SM  C23F12621  -0.237   5.445   6.314 -0.3020  0.1578 -0.4069
   9323SM  H23F12622  -0.225   5.550   6.279  0.8093  0.8970  1.9450
   9323SM  H23G12623  -0.173   5.438   6.405  1.6723  0.4464 -1.7126
   9323SM  H23H12624  -0.343   5.426   6.340 -0.3784 -0.2753 -1.0179
   9423SM     N12625   3.820   5.902   4.270  0.5070 -0.0239 -0.3763
   9423SM   C1512626   3.848   5.849   4.414  0.4920  0.0922 -0.0586
   9423SM  H15A12627   3.777   5.881   4.489  0.7592 -0.4552  0.4316
   9423SM  H15B12628   3.944   5.881   4.452  0.2984 -0.2867  0.7809
   9423SM  H15C12629   3.834   5.743   4.430  1.4514 -0.2071 -1.0787
   9423SM   C1412630   3.713   5.824   4.205  1.3857  0.0400  0.2370
   9423SM  H14A12631   3.618   5.827   4.257  0.5830 -0.2963 -1.1570
   9423SM  H14B12632   3.750   5.723   4.198  0.6669 -0.1493 -1.4690
   9423SM  H14C12633   3.686   5.846   4.102  0.6869 -0.5693  0.2792
   9423SM   C1312634   3.783   6.041   4.281 -0.1208 -0.1371 -0.7402
   9423SM  H13A12635   3.862   6.105   4.315 -0.6465  0.0796  0.0871
   9423SM  H13B12636   3.702   6.057   4.351  0.2666 -1.1790 -0.0271
   9423SM  H13C12637   3.745   6.065   4.182  1.4041  1.7157 -0.9281
   9423SM   C1212638   3.948   5.890   4.184 -0.5869 -0.2672  0.1899
   9423SM  H12A12639   3.991   5.791   4.181  0.2137  0.0934 -1.0458
   9423SM  H12B12640   4.032   5.940   4.230  0.1142 -0.2785 -1.0396
   9423SM   C1112641   3.935   5.950   4.043  0.8836  0.3759 -0.5945
   9423SM  H11A12642   3.886   6.048   4.054 -1.7000 -1.0930  2.5190
   9423SM  H11B12643   3.866   5.892   3.978 -0.0695  0.4710  0.3241
   9423SM     P12644   4.138   6.101   4.015  0.3110  0.0943 -0.0105
   9423SM   O1312645   4.286   6.076   4.004 -0.0787  0.0410 -0.4333
   9423SM   O1412646   4.078   6.203   3.921 -0.4556  0.6584 -0.6267
   9423SM   O1112647   4.103   6.129   4.166 -0.1054  0.1921  0.4072
   9423SM   O1212648   4.065   5.963   3.987 -0.4398  0.0101  0.2743
   9423SM   C1S12649   4.088   6.265   4.219  0.1136 -0.0835 -0.4280
   9423SM   H1S12650   3.980   6.291   4.210  0.1540  0.2423 -0.0072
   9423SM   H1T12651   4.151   6.339   4.165 -1.8005 -0.4392 -3.3764
   9423SM    NF12652   4.089   6.355   4.443 -0.1850  0.4520  0.2776
   9423SM   HNF12653   4.147   6.436   4.435 -1.6017  1.3792 -1.0254
   9423SM   C2S12654   4.137   6.251   4.365  0.7282  0.3913  0.6129
   9423SM   H2S12655   4.099   6.156   4.406 -1.3478  1.1214  0.5056
   9423SM   C3S12656   4.295   6.219   4.365  0.1543  0.4125 -1.2669
   9423SM   H3S12657   4.342   6.300   4.306 -0.0821  2.2699  0.9467
   9423SM    O312658   4.336   6.099   4.296  0.5958 -0.0352  0.2661
   9423SM   HO312659   4.279   6.098   4.218  2.4171 -0.5484 -1.1435
   9423SM   C4S12660   4.357   6.232   4.507  0.1707  0.2115 -0.3961
   9423SM   H4S12661   4.372   6.335   4.542  0.8703 -0.5881  1.8681
   9423SM   C5S12662   4.364   6.125   4.590  0.0995 -0.7744  0.1351
   9423SM   H5S12663   4.342   6.021   4.564 -0.6016 -0.6173  0.0883
   9423SM   C6S12664   4.408   6.156   4.727  0.2172 -0.4718 -0.3322
   9423SM   H6S12665   4.518   6.167   4.722  0.3566 -1.5706 -0.0844
   9423SM   H6T12666   4.392   6.071   4.797 -2.0592 -0.4319 -0.7077
   9423SM   C7S12667   4.340   6.270   4.803  0.5588 -0.6086 -0.3613
   9423SM   H7S12668   4.235   6.239   4.821  0.4211 -0.3508 -0.6991
   9423SM   H7T12669   4.330   6.356   4.734 -1.6531 -1.5106 -1.2583
   9423SM   C8S12670   4.411   6.310   4.932 -0.0178  1.2354 -0.1081
   9423SM   H8S12671   4.505   6.367   4.914  0.5760  0.5898  0.8613
   9423SM   H8T12672   4.428   6.214   4.984 -4.2372  0.2276 -0.2133
   9423SM   C9S12673   4.329   6.379   5.036 -0.4150 -0.1872 -0.1978
   9423SM   H9S12674   4.241   6.313   5.053 -0.6347 -0.4659 -2.2410
   9423SM   H9T12675   4.301   6.480   4.999  0.8417  0.2431 -0.0128
   9423SM  C10S12676   4.413   6.433   5.160 -0.2603  0.3277  0.1317
   9423SM  H10S12677   4.347   6.492   5.227  1.1554 -0.5394  2.4576
   9423SM  H10T12678   4.490   6.503   5.122 -0.2315  1.6548  2.4546
   9423SM  C11S12679   4.478   6.330   5.254  0.3651  0.1210  1.0683
   9423SM  H11S12680   4.576   6.307   5.209 -0.1997 -0.0686 -0.1144
   9423SM  H11T12681   4.419   6.236   5.261 -0.0830  0.2042 -1.0659
   9423SM  C12S12682   4.514   6.389   5.395  0.1924  0.3344 -0.6073
   9423SM  H12S12683   4.420   6.425   5.442  1.6120  1.1432  1.7717
   9423SM  H12T12684   4.578   6.478   5.374 -1.8229  1.7560 -1.0095
   9423SM  C13S12685   4.587   6.290   5.484  0.3273  0.4679 -0.0029
   9423SM  H13S12686   4.676   6.248   5.432  0.7574  0.1415  0.9701
   9423SM  H13T12687   4.518   6.204   5.496  0.3246  0.3833 -0.6138
   9423SM  C14S12688   4.628   6.343   5.621 -0.0228 -0.2233  0.3937
   9423SM  H14S12689   4.542   6.374   5.683  0.6748 -0.8756  1.7223
   9423SM  H14T12690   4.691   6.432   5.599 -2.4094  1.3922 -0.2755
   9423SM  C15S12691   4.719   6.252   5.693 -0.4434  0.3988  0.2638
   9423SM  H15S12692   4.811   6.229   5.635  0.8344  1.0573  1.9762
   9423SM  H15T12693   4.666   6.155   5.707  0.3352 -0.0441  0.2059
   9423SM  C16S12694   4.747   6.306   5.830  0.2697  0.5960  0.4394
   9423SM  H16S12695   4.773   6.414   5.823 -1.2032  0.8868 -1.1249
   9423SM  H16T12696   4.846   6.259   5.850 -0.3269 -0.9894 -0.1964
   9423SM  C17S12697   4.635   6.262   5.938 -0.2639 -0.5111  0.5698
   9423SM  H17S12698   4.617   6.152   5.932 -1.0437 -0.4213  1.1258
   9423SM  H17T12699   4.539   6.300   5.897 -2.1995 -4.1960  1.1613
   9423SM  C18S12700   4.658   6.304   6.082 -0.4824 -1.1944 -0.5857
   9423SM  H18S12701   4.666   6.414   6.086  0.8951 -1.2711 -0.7571
   9423SM  H18T12702   4.753   6.263   6.122  0.0149 -0.0518 -0.5591
   9423SM  H18U12703   4.573   6.284   6.150 -1.3964  2.2092 -0.5567
   9423SM   C1F12704   3.964   6.365   4.471  0.7184  0.2965 -0.2877
   9423SM    OF12705   3.895   6.262   4.466  0.2542 -0.4695 -0.0589
   9423SM   C2F12706   3.912   6.503   4.499 -0.0854  0.2884 -0.3748
   9423SM   H2F12707   3.825   6.518   4.432  0.1218  0.6187 -0.5743
   9423SM   H2G12708   3.994   6.571   4.467 -1.4351  1.1106 -2.2454
   9423SM   C3F12709   3.886   6.540   4.652  0.3229  0.0600  0.8016
   9423SM   H3F12710   3.808   6.470   4.692 -0.1945 -0.2983 -0.7685
   9423SM   H3G12711   3.845   6.643   4.655  0.3649  0.0855  0.4146
   9423SM   C4F12712   4.011   6.531   4.738  0.5219 -0.2594  0.2032
   9423SM   H4F12713   4.046   6.636   4.751 -0.6468  0.0991  0.6673
   9423SM   H4G12714   4.092   6.471   4.692 -0.1623 -0.6732 -0.5026
   9423SM   C5F12715   3.992   6.496   4.883 -0.1268 -0.0119 -0.7604
   9423SM   H5F12716   4.086   6.510   4.941 -0.7494 -0.8920  0.5241
   9423SM   H5G12717   3.977   6.386   4.882 -0.1030 -0.0770  1.0858
   9423SM   C6F12718   3.877   6.583   4.955 -0.6800 -0.5289  0.3149
   9423SM   H6F12719   3.780   6.581   4.901 -0.1828 -0.2435 -0.6153
   9423SM   H6G12720   3.922   6.685   4.952 -0.0427 -0.8318 -1.0701
   9423SM   C7F12721   3.853   6.555   5.107 -0.1303  0.2848  0.4222
   9423SM   H7F12722   3.825   6.450   5.130  0.2155  0.2689  0.7772
   9423SM   H7G12723   3.775   6.623   5.146  2.6864  3.3234  1.1910
   9423SM   C8F12724   3.981   6.582   5.192 -0.5266 -0.2857 -0.2933
   9423SM   H8F12725   4.008   6.689   5.179 -1.4402  0.0687  0.6433
   9423SM   H8G12726   4.067   6.518   5.161 -0.8451  0.2137 -2.3836
   9423SM   C9F12727   3.953   6.566   5.346 -0.7112 -0.2680 -0.8258
   9423SM   H9F12728   3.893   6.472   5.350 -2.6736  0.9533  0.0601
   9423SM   H9G12729   3.882   6.650   5.362 -0.0791  0.2456 -0.6891
   9423SM  C10F12730   4.079   6.562   5.436 -0.1755  0.1208  0.0719
   9423SM  H10F12731   4.133   6.657   5.414  1.3627 -1.0429 -1.4665
   9423SM  H10G12732   4.148   6.485   5.396  0.9464  0.9219  0.4318
   9423SM  C11F12733   4.051   6.545   5.581  0.4739  0.6699  0.4027
   9423SM  H11F12734   4.155   6.532   5.621  0.5633 -0.5078 -0.1749
   9423SM  H11G12735   3.983   6.459   5.596 -0.1374  0.7641 -1.5581
   9423SM  C12F12736   3.991   6.670   5.648  0.2562 -0.4586 -0.0075
   9423SM  H12F12737   3.888   6.675   5.605  0.4973  2.6515 -0.4607
   9423SM  H12G12738   4.044   6.763   5.618  1.7750 -0.2184  3.0645
   9423SM  C13F12739   3.960   6.655   5.796  0.1861 -0.0680  0.5912
   9423SM  H13F12740   3.889   6.738   5.818 -0.6217  0.5047 -3.4576
   9423SM  H13G12741   4.050   6.687   5.854  1.1365 -1.6068  0.0250
   9423SM  C14F12742   3.894   6.527   5.850 -0.0277 -0.3503  0.5981
   9423SM  H14F12743   3.978   6.454   5.857 -0.7303 -1.1026  1.4248
   9423SM  H14G12744   3.814   6.482   5.786 -1.5112  1.3419  1.1860
   9423SM  C15F12745   3.821   6.564   5.982 -0.9970 -0.1355  0.2083
   9423SM  H15F12746   3.731   6.628   5.979  0.6261  2.6003  3.4321
   9423SM  H15G12747   3.890   6.620   6.049  0.6188 -1.0407 -0.6590
   9423SM  C16F12748   3.788   6.443   6.063 -0.1713 -0.0301  0.0503
   9423SM  H16F12749   3.881   6.382   6.065 -0.0875  0.1321  1.3490
   9423SM  H16G12750   3.716   6.390   5.996  1.6625  2.6195 -4.5221
   9423SM  C17F12751   3.751   6.475   6.204  0.2004 -0.9382  0.5360
   9423SM  H17F12752   3.842   6.519   6.250  0.9031 -1.0153 -0.7260
   9423SM  H17G12753   3.727   6.379   6.253 -0.0207 -2.3330 -2.0993
   9423SM  C18F12754   3.629   6.572   6.224 -0.1619 -0.0142  0.3969
   9423SM  H18F12755   3.543   6.533   6.165  0.4529  1.2291 -1.4096
   9423SM  H18G12756   3.659   6.673   6.191  1.5409 -0.2229  1.1886
   9423SM  C19F12757   3.587   6.597   6.371  0.1049 -0.3180  0.7073
   9423SM  H19F12758   3.514   6.680   6.362  0.1255 -0.4628 -0.9731
   9423SM  H19G12759   3.676   6.638   6.425  0.0666  0.8659 -0.0832
   9423SM  C20F12760   3.534   6.468   6.444 -0.2310 -0.3368 -0.2708
   9423SM  H20F12761   3.604   6.383   6.461  1.4653  1.3416  1.6736
   9423SM  H20G12762   3.441   6.432   6.395  0.3017 -0.3628 -1.2875
   9423SM  C21F12763   3.478   6.520   6.579 -0.0799  0.0453  0.4166
   9423SM  H21F12764   3.398   6.595   6.565 -0.1492  0.8739  4.3556
   9423SM  H21G12765   3.561   6.578   6.624  1.0397 -0.5134 -0.8561
   9423SM  C22F12766   3.424   6.402   6.660 -0.1638  0.2303  0.0642
   9423SM  H22F12767   3.510   6.351   6.709  0.1509  2.8586  2.5453
   9423SM  H22G12768   3.379   6.326   6.592 -2.4831  0.8841  0.7551
   9423SM  C23F12769   3.332   6.441   6.778 -0.1082 -0.0991 -1.0550
   9423SM  H23F12770   3.245   6.508   6.759 -0.3314  0.2478  0.9102
   9423SM  H23G12771   3.396   6.500   6.847 -0.8898  1.3750 -1.5270
   9423SM  H23H12772   3.283   6.352   6.823  0.3175  0.3082  0.2755
   9523SM     N12773   0.730   3.286   3.852 -0.0363  0.2360  0.2286
   9523SM   C1512774   0.857   3.294   3.760 -0.0493 -0.7376 -0.1701
   9523SM  H15A12775   0.860   3.387   3.704 -1.2431 -0.2253  0.5608
   9523SM  H15B12776   0.870   3.206   3.700 -2.5020 -1.7153  0.6267
   9523SM  H15C12777   0.940   3.287   3.829 -0.4115 -0.4825  0.2974
   9523SM   C1412778   0.613   3.338   3.783  0.8318 -0.4786  0.5357
   9523SM  H14A12779   0.575   3.280   3.701 -3.1576 -0.5034  2.1939
   9523SM  H14B12780   0.636   3.436   3.742  0.8684 -0.9161 -0.5218
   9523SM  H14C12781   0.527   3.348   3.846 -1.5006 -0.9258 -2.3558
   9523SM   C1312782   0.712   3.142   3.891 -0.3149 -0.0274 -0.1949
   9523SM  H13A12783   0.801   3.102   3.937 -0.0313  0.1205 -0.6124
   9523SM  H13B12784   0.695   3.083   3.802  0.3976 -1.7493  0.7726
   9523SM  H13C12785   0.624   3.127   3.953 -0.4100 -0.0235 -0.3292
   9523SM   C1212786   0.742   3.371   3.976  0.8931 -0.0804 -0.0278
   9523SM  H12A12787   0.653   3.353   4.034  1.7903  0.1421  1.4779
   9523SM  H12B12788   0.750   3.475   3.950  1.4794  0.1024  0.8383
   9523SM   C1112789   0.859   3.338   4.072 -0.9327 -0.2961 -0.1341
   9523SM  H11A12790   0.845   3.236   4.114 -1.0478 -0.1485  0.1930
   9523SM  H11B12791   0.851   3.411   4.156  0.4506 -0.8943  0.5554
   9523SM     P12792   1.088   3.471   4.035  0.0332  0.0455  0.1727
   9523SM   O1312793   1.187   3.480   3.926 -0.5112 -0.2489  0.5411
   9523SM   O1412794   0.998   3.589   4.045  0.3522  0.2887  0.5485
   9523SM   O1112795   1.156   3.448   4.172  0.6146 -0.2856  0.3838
   9523SM   O1212796   0.985   3.355   4.003 -0.1562  0.6187  0.1021
   9523SM   C1S12797   1.185   3.312   4.212 -0.5059  0.3177  1.0769
   9523SM   H1S12798   1.269   3.273   4.151 -1.2118 -0.0396  0.3089
   9523SM   H1T12799   1.104   3.240   4.185  2.2561 -2.3521 -0.8723
   9523SM    NF12800   1.306   3.193   4.391  0.3617 -0.7918  0.0666
   9523SM   HNF12801   1.268   3.102   4.381  1.2316 -1.1666  0.0621
   9523SM   C2S12802   1.210   3.301   4.368  0.0291  1.4813  0.2614
   9523SM   H2S12803   1.245   3.399   4.407 -0.6847  0.9267  2.4610
   9523SM   C3S12804   1.066   3.276   4.429 -0.6074  0.0648 -0.5937
   9523SM   H3S12805   1.025   3.183   4.384 -0.6709  0.5037 -1.4626
   9523SM    O312806   0.974   3.381   4.397  0.0242 -0.2464 -0.8191
   9523SM   HO312807   1.018   3.437   4.332 -0.5675 -1.7365 -2.6062
   9523SM   C4S12808   1.081   3.265   4.579  0.0356 -0.3123 -0.6491
   9523SM   H4S12809   1.109   3.359   4.628 -1.3766  0.3105 -0.9600
   9523SM   C5S12810   1.048   3.156   4.664  0.1398  0.3379  0.5442
   9523SM   H5S12811   1.025   3.057   4.621 -0.3770 -0.8700  3.3453
   9523SM   C6S12812   1.057   3.147   4.813 -0.2825  1.1101  0.1399
   9523SM   H6S12813   1.077   3.040   4.837  2.0882  1.6734  0.9861
   9523SM   H6T12814   0.956   3.167   4.854 -0.9258  0.2668 -0.9709
   9523SM   C7S12815   1.159   3.222   4.895  0.3682 -0.3989  0.6732
   9523SM   H7S12816   1.154   3.331   4.872  0.5582 -0.5796 -0.2703
   9523SM   H7T12817   1.261   3.187   4.868 -0.0198 -2.8286  2.0560
   9523SM   C8S12818   1.124   3.201   5.048 -0.2313 -0.3536  0.9593
   9523SM   H8S12819   1.143   3.094   5.072  0.5508 -0.1588  1.2619
   9523SM   H8T12820   1.016   3.220   5.061 -0.5937 -0.8679 -0.9952
   9523SM   C9S12821   1.205   3.290   5.133 -0.3134 -0.5860 -0.3166
   9523SM   H9S12822   1.175   3.392   5.103  0.6621 -0.4451 -0.8301
   9523SM   H9T12823   1.315   3.274   5.126 -0.1680  0.7373 -1.2509
   9523SM  C10S12824   1.171   3.263   5.289  0.2516 -0.2120  0.3523
   9523SM  H10S12825   1.213   3.164   5.316 -0.0961  0.0864  2.1456
   9523SM  H10T12826   1.061   3.243   5.287  0.0820  0.0228  3.1749
   9523SM  C11S12827   1.216   3.371   5.386 -0.0077  0.0153 -0.2543
   9523SM  H11S12828   1.128   3.438   5.391  1.6348  2.2762 -0.0045
   9523SM  H11T12829   1.300   3.434   5.350 -0.6816  1.2910  0.3457
   9523SM  C12S12830   1.258   3.304   5.518 -0.2152  0.3623  0.1800
   9523SM  H12S12831   1.363   3.270   5.503  0.6521  2.7174  0.4361
   9523SM  H12T12832   1.190   3.229   5.563 -1.0676  1.6760  1.1758
   9523SM  C13S12833   1.271   3.411   5.633  0.4172 -0.5041  0.2100
   9523SM  H13S12834   1.175   3.462   5.655  0.4337 -0.6902  0.7251
   9523SM  H13T12835   1.352   3.478   5.598 -0.4266  0.9039  0.8424
   9523SM  C14S12836   1.329   3.357   5.767 -0.0309 -0.0705  0.1304
   9523SM  H14S12837   1.425   3.309   5.740 -0.1940  0.5712 -1.7283
   9523SM  H14T12838   1.252   3.286   5.804 -0.0158  0.4091  1.1170
   9523SM  C15S12839   1.343   3.461   5.877 -0.2369  0.5249  0.1325
   9523SM  H15S12840   1.256   3.530   5.877 -1.0682 -0.5066 -0.2640
   9523SM  H15T12841   1.421   3.532   5.842  1.3863 -0.5080  1.5217
   9523SM  C16S12842   1.367   3.400   6.022 -0.8397  0.5083 -0.2239
   9523SM  H16S12843   1.465   3.347   6.021 -0.7127  0.6687 -2.7952
   9523SM  H16T12844   1.288   3.323   6.033  0.4307 -1.0415 -1.4771
   9523SM  C17S12845   1.368   3.503   6.130  0.6470  0.8658  0.5519
   9523SM  H17S12846   1.438   3.582   6.096 -0.2542  1.9775  1.2133
   9523SM  H17T12847   1.378   3.463   6.233 -1.1729 -1.6390 -0.1535
   9523SM  C18S12848   1.225   3.572   6.135 -1.3330 -0.0424 -0.4686
   9523SM  H18S12849   1.149   3.499   6.170 -0.3570 -0.8504  0.0140
   9523SM  H18T12850   1.197   3.618   6.037  0.3303  1.7386 -0.1595
   9523SM  H18U12851   1.222   3.658   6.205  0.1893  0.0629 -0.5143
   9523SM   C1F12852   1.434   3.212   4.388 -0.7365  0.0656 -0.6378
   9523SM    OF12853   1.479   3.319   4.341  0.0264  0.4531  0.2303
   9523SM   C2F12854   1.527   3.102   4.438 -0.5813  0.4063 -0.5716
   9523SM   H2F12855   1.578   3.047   4.356 -1.5044 -0.6120 -0.4888
   9523SM   H2G12856   1.477   3.026   4.502  0.6718 -0.4906 -0.6178
   9523SM   C3F12857   1.634   3.175   4.527 -0.6726 -0.7737  0.0295
   9523SM   H3F12858   1.699   3.237   4.461  1.1694 -1.2285  1.3291
   9523SM   H3G12859   1.696   3.088   4.558 -0.5120 -2.5294 -4.4339
   9523SM   C4F12860   1.569   3.239   4.653  0.2556  0.3348  0.5594
   9523SM   H4F12861   1.465   3.202   4.661  0.4527 -0.9209 -2.0378
   9523SM   H4G12862   1.546   3.348   4.644  0.1007  0.6168  3.4142
   9523SM   C5F12863   1.661   3.228   4.776  0.5584  0.0951  0.2579
   9523SM   H5F12864   1.746   3.298   4.762 -1.4496  2.6019 -0.4168
   9523SM   H5G12865   1.705   3.127   4.784  2.0104  0.6546 -0.2774
   9523SM   C6F12866   1.594   3.255   4.917  0.2567 -0.1503 -0.4203
   9523SM   H6F12867   1.515   3.180   4.938 -0.5751  1.0906  1.0084
   9523SM   H6G12868   1.542   3.352   4.900 -0.8718 -0.4516  1.1198
   9523SM   C7F12869   1.691   3.287   5.027  0.4215 -0.5943 -0.5209
   9523SM   H7F12870   1.765   3.364   4.996  1.0965 -1.0114  0.0147
   9523SM   H7G12871   1.750   3.195   5.048  0.6618 -0.7768 -1.8543
   9523SM   C8F12872   1.623   3.336   5.158  0.8157 -0.3748 -0.0271
   9523SM   H8F12873   1.527   3.282   5.178 -0.5996  1.8455 -0.4933
   9523SM   H8G12874   1.574   3.435   5.145 -0.0810 -0.8524 -0.4083
   9523SM   C9F12875   1.721   3.346   5.270  0.1831  0.4546 -0.4051
   9523SM   H9F12876   1.803   3.411   5.232 -1.1748  2.1426 -0.5529
   9523SM   H9G12877   1.755   3.243   5.292 -1.2020  0.0615  0.0072
   9523SM  C10F12878   1.670   3.396   5.407 -0.6213 -0.8079 -0.2960
   9523SM  H10F12879   1.589   3.321   5.416  2.4405 -5.0082 -3.3659
   9523SM  H10G12880   1.635   3.501   5.399 -0.8193 -0.5191  3.1623
   9523SM  C11F12881   1.780   3.395   5.513 -0.2160 -0.0560  0.5900
   9523SM  H11F12882   1.864   3.455   5.471  0.1978 -2.1998 -1.9384
   9523SM  H11G12883   1.817   3.291   5.524  0.4212 -0.1871 -2.1182
   9523SM  C12F12884   1.720   3.461   5.639 -0.2535 -0.1983 -1.3424
   9523SM  H12F12885   1.631   3.401   5.668 -1.5742  2.1337 -0.3315
   9523SM  H12G12886   1.685   3.565   5.625 -1.7763 -0.4527  0.2949
   9523SM  C13F12887   1.821   3.457   5.761  0.4610 -0.1077  0.0419
   9523SM  H13F12888   1.919   3.506   5.744  1.6325 -2.0894  0.7128
   9523SM  H13G12889   1.844   3.350   5.782  1.0404 -0.6023 -2.6548
   9523SM  C14F12890   1.762   3.519   5.890  0.0027 -0.1319  0.0322
   9523SM  H14F12891   1.653   3.495   5.893 -0.5874  2.3025  1.5593
   9523SM  H14G12892   1.763   3.630   5.886 -0.2727 -0.1114  0.4447
   9523SM  C15F12893   1.836   3.476   6.021 -0.3633  0.4139 -0.1354
   9523SM  H15F12894   1.844   3.565   6.087  0.0574  0.1410  0.1865
   9523SM  H15G12895   1.942   3.458   5.996 -0.3424  1.8020 -1.1611
   9523SM  C16F12896   1.776   3.351   6.084  0.0318  0.0234 -0.3524
   9523SM  H16F12897   1.797   3.264   6.019  1.6944  0.2956 -0.2351
   9523SM  H16G12898   1.671   3.356   6.120 -0.1598 -1.1696 -0.7094
   9523SM  C17F12899   1.852   3.333   6.224 -0.6945 -0.2709 -0.2403
   9523SM  H17F12900   1.958   3.356   6.202 -0.5553 -2.1334 -1.7027
   9523SM  H17G12901   1.846   3.229   6.261  0.6012 -0.3177 -0.1353
   9523SM  C18F12902   1.797   3.422   6.335 -0.1888 -0.1034  0.3162
   9523SM  H18F12903   1.696   3.389   6.366  0.2979 -3.2388 -1.0240
   9523SM  H18G12904   1.803   3.529   6.306 -0.5686 -0.3146 -0.5752
   9523SM  C19F12905   1.890   3.394   6.462  0.4344  0.3362  0.4072
   9523SM  H19F12906   1.989   3.442   6.444  0.4906  0.1707  0.2644
   9523SM  H19G12907   1.905   3.284   6.469 -0.5694  0.1581 -0.0403
   9523SM  C20F12908   1.816   3.456   6.584  0.2599  0.1516  0.7813
   9523SM  H20F12909   1.718   3.404   6.594  0.5153 -0.4364  0.3320
   9523SM  H20G12910   1.783   3.560   6.563 -2.1112 -0.6943 -0.0567
   9523SM  C21F12911   1.904   3.462   6.706 -0.8972 -0.6296  0.7333
   9523SM  H21F12912   2.002   3.497   6.667 -2.1509  2.8324  0.3095
   9523SM  H21G12913   1.908   3.355   6.736 -2.1669 -0.9887 -0.2883
   9523SM  C22F12914   1.848   3.553   6.808  0.6644 -0.3303  0.1293
   9523SM  H22F12915   1.753   3.504   6.839  1.4244 -0.6916  1.9913
   9523SM  H22G12916   1.812   3.649   6.764 -1.8735 -0.9172  0.7818
   9523SM  C23F12917   1.933   3.607   6.920  0.3442  0.3785  0.3847
   9523SM  H23F12918   1.879   3.650   7.007  1.5090 -0.1329  1.3937
   9523SM  H23G12919   1.997   3.691   6.887  0.8139  0.0075  0.3418
   9523SM  H23H12920   2.000   3.533   6.969  0.5183  0.1728 -0.1543
   9623SM     N12921   2.792   1.173   4.138  0.3295  0.7010 -0.2840
   9623SM   C1512922   2.894   1.203   4.240 -0.4379 -0.9899  0.0832
   9623SM  H15A12923   2.906   1.127   4.316  0.8639 -0.0255  0.8909
   9623SM  H15B12924   2.885   1.299   4.288  0.3366 -1.7018  1.7329
   9623SM  H15C12925   2.992   1.186   4.200  0.3070 -1.8853  2.1162
   9623SM   C1412926   2.803   1.028   4.104  0.0966 -0.1235  0.0410
   9623SM  H14A12927   2.738   0.987   4.029  0.8528  0.0118 -0.7065
   9623SM  H14B12928   2.800   0.966   4.193 -0.6482 -2.9210 -1.8102
   9623SM  H14C12929   2.904   1.015   4.067  0.7381 -1.1225  1.9922
   9623SM   C1312930   2.654   1.186   4.202  0.6290  0.4199  0.0449
   9623SM  H13A12931   2.572   1.170   4.133  1.1688  2.3717 -1.1092
   9623SM  H13B12932   2.637   1.280   4.253 -0.9758 -0.0170  0.4004
   9623SM  H13C12933   2.639   1.104   4.272 -0.5222 -0.3194 -1.0139
   9623SM   C1212934   2.781   1.263   4.012 -0.1072  0.2113 -0.2931
   9623SM  H12A12935   2.787   1.365   4.045 -1.2319 -0.5192  2.4428
   9623SM  H12B12936   2.685   1.248   3.964  0.0317 -0.7436 -0.2953
   9623SM   C1112937   2.896   1.235   3.910  0.6701 -0.5301 -0.0014
   9623SM  H11A12938   2.881   1.285   3.812  4.3488  1.2880  0.1869
   9623SM  H11B12939   2.901   1.126   3.890 -0.6867 -0.8735  1.3963
   9623SM     P12940   3.050   1.437   3.971  0.2839  0.0306  0.0834
   9623SM   O1312941   3.120   1.477   3.848  0.0632 -0.2873 -0.0843
   9623SM   O1412942   2.921   1.515   3.996 -0.4247 -0.8849  0.1653
   9623SM   O1112943   3.148   1.453   4.092  0.2411 -0.2242  0.1355
   9623SM   O1212944   3.025   1.283   3.961  0.3037 -0.3579 -1.0312
   9623SM   C1S12945   3.102   1.513   4.216 -0.4812 -0.2750 -0.0536
   9623SM   H1S12946   3.012   1.455   4.245 -0.5644 -0.7902 -1.2824
   9623SM   H1T12947   3.070   1.619   4.208  0.4269  0.1753  1.8335
   9623SM    NF12948   3.137   1.564   4.446 -0.0611 -0.5546  0.1959
   9623SM   HNF12949   3.162   1.660   4.451  4.3166 -1.4472  0.0730
   9623SM   C2S12950   3.200   1.503   4.333 -0.0722  0.1892  0.4041
   9623SM   H2S12951   3.215   1.396   4.361  1.4500  0.6647  1.5272
   9623SM   C3S12952   3.342   1.562   4.281  0.1839 -0.0707 -0.2332
   9623SM   H3S12953   3.318   1.669   4.264 -0.6226 -0.0494  0.9028
   9623SM    O312954   3.393   1.518   4.149 -0.1912  0.0629 -0.5027
   9623SM   HO312955   3.310   1.505   4.103 -0.6956  1.4194 -0.0215
   9623SM   C4S12956   3.444   1.571   4.394 -0.1757  0.2914 -0.1880
   9623SM   H4S12957   3.425   1.660   4.457  0.6895  0.5069 -0.2058
   9623SM   C5S12958   3.541   1.481   4.425  0.0211 -0.3708 -0.1584
   9623SM   H5S12959   3.553   1.395   4.357 -0.3916  0.6935 -1.6239
   9623SM   C6S12960   3.643   1.500   4.533  0.8577  0.7906  0.3803
   9623SM   H6S12961   3.669   1.607   4.521 -0.0502  0.9328 -0.3943
   9623SM   H6T12962   3.742   1.458   4.505  1.1063  2.8308 -2.2092
   9623SM   C7S12963   3.592   1.461   4.674 -0.2493 -0.2466  0.6231
   9623SM   H7S12964   3.562   1.354   4.665  0.4891 -0.3234 -1.4209
   9623SM   H7T12965   3.500   1.518   4.700 -0.4182  0.0706 -0.6362
   9623SM   C8S12966   3.688   1.479   4.786 -0.1169  0.3567 -1.1267
   9623SM   H8S12967   3.710   1.585   4.811  0.7596 -0.6303  3.0014
   9623SM   H8T12968   3.785   1.429   4.768 -1.3315 -2.4948 -0.2784
   9623SM   C9S12969   3.642   1.429   4.926 -0.0863  0.2561 -0.2440
   9623SM   H9S12970   3.655   1.318   4.926 -1.3759  0.0741  0.9848
   9623SM   H9T12971   3.534   1.451   4.937 -0.3208 -1.7486  2.6947
   9623SM  C10S12972   3.720   1.481   5.051  0.4254  0.1549 -0.2894
   9623SM  H10S12973   3.697   1.589   5.059  0.0767  0.0177  0.7354
   9623SM  H10T12974   3.825   1.464   5.018  0.2662 -0.8867 -0.2882
   9623SM  C11S12975   3.707   1.403   5.181  0.2796  0.4199  0.2927
   9623SM  H11S12976   3.723   1.294   5.167 -1.8406  0.0816  0.1423
   9623SM  H11T12977   3.599   1.404   5.207  0.3391  0.5023  0.5482
   9623SM  C12S12978   3.785   1.458   5.301  0.6114 -0.2391 -0.0421
   9623SM  H12S12979   3.799   1.568   5.303 -1.1733  0.0182 -0.0061
   9623SM  H12T12980   3.889   1.421   5.300  0.8240  0.3178  0.5530
   9623SM  C13S12981   3.712   1.415   5.433  0.4310  0.2883  0.2750
   9623SM  H13S12982   3.677   1.310   5.436 -2.1445  1.0210 -0.8478
   9623SM  H13T12983   3.633   1.493   5.445 -1.6490 -1.8850  1.4074
   9623SM  C14S12984   3.816   1.447   5.555  0.2332 -0.6953 -0.4897
   9623SM  H14S12985   3.860   1.544   5.522  2.4849 -1.5609 -0.2121
   9623SM  H14T12986   3.900   1.375   5.558  2.6502  1.9367 -0.2101
   9623SM  C15S12987   3.751   1.466   5.688 -0.0116 -0.2000  0.4419
   9623SM  H15S12988   3.702   1.375   5.729 -0.0818 -0.2545  0.2379
   9623SM  H15T12989   3.677   1.549   5.682 -0.4966 -0.6725 -0.3050
   9623SM  C16S12990   3.840   1.512   5.806 -0.0179 -0.6856  0.6895
   9623SM  H16S12991   3.779   1.556   5.888  1.5217  0.4596  1.2759
   9623SM  H16T12992   3.900   1.601   5.775  1.3488 -2.0731 -0.8020
   9623SM  C17S12993   3.938   1.404   5.858  0.3571  0.2851 -0.3307
   9623SM  H17S12994   4.027   1.449   5.906  0.1141 -1.0149  1.4374
   9623SM  H17T12995   3.981   1.344   5.775  1.7580 -1.4852  1.5474
   9623SM  C18S12996   3.882   1.298   5.953 -0.1901 -0.5189  0.5318
   9623SM  H18S12997   3.971   1.234   5.971  0.7238  0.4241 -0.4960
   9623SM  H18T12998   3.799   1.241   5.905  0.8667 -2.7953  1.2661
   9623SM  H18U12999   3.856   1.332   6.055  1.2149 -1.9217  1.4015
   9623SM   C1F13000   3.038   1.507   4.520 -0.0166  0.1252  0.3203
   9623SM    OF13001   2.994   1.398   4.485 -0.5793 -0.0148 -0.2496
   9623SM   C2F13002   2.994   1.587   4.639 -0.1270 -0.3281  0.0231
   9623SM   H2F13003   2.883   1.594   4.631 -0.0455  0.3436 -0.5750
   9623SM   H2G13004   3.034   1.690   4.628 -0.1633 -0.3154  0.0106
   9623SM   C3F13005   3.032   1.508   4.770  0.2422 -0.3194 -0.2630
   9623SM   H3F13006   3.143   1.494   4.767  0.9298  3.3124  1.8166
   9623SM   H3G13007   2.972   1.414   4.775 -1.3922  0.7293  0.7776
   9623SM   C4F13008   3.000   1.589   4.902  0.0023  0.3900  0.2491
   9623SM   H4F13009   2.893   1.616   4.887 -0.5617 -0.8076  1.9041
   9623SM   H4G13010   3.067   1.678   4.904 -1.6710  1.7831 -1.2249
   9623SM   C5F13011   3.008   1.514   5.036 -0.0562 -0.9933  0.3313
   9623SM   H5F13012   3.108   1.467   5.046  0.4585 -0.3873 -1.5203
   9623SM   H5G13013   2.935   1.431   5.030  1.7317 -2.5177 -1.7105
   9623SM   C6F13014   2.986   1.607   5.156 -0.1791  0.6809  0.6306
   9623SM   H6F13015   2.885   1.649   5.136 -0.2196  0.1571 -0.3651
   9623SM   H6G13016   3.061   1.685   5.132  1.8427 -1.6399 -1.1510
   9623SM   C7F13017   3.009   1.547   5.288  0.3551 -0.7611 -0.1158
   9623SM   H7F13018   3.117   1.526   5.304  0.5297  1.3092  2.0369
   9623SM   H7G13019   2.954   1.451   5.290  0.7798 -1.0038  1.0135
   9623SM   C8F13020   2.971   1.649   5.401 -0.3707 -0.7075  0.1068
   9623SM   H8F13021   2.867   1.681   5.380  0.2603  0.5030 -1.3059
   9623SM   H8G13022   3.031   1.742   5.394 -0.5361 -0.5274  0.8880
   9623SM   C9F13023   2.987   1.586   5.542 -0.1036  0.3368  0.0206
   9623SM   H9F13024   3.081   1.527   5.547  0.5919  1.2496 -1.4221
   9623SM   H9G13025   2.908   1.514   5.573  1.3786 -1.8173 -0.9310
   9623SM  C10F13026   2.975   1.691   5.655 -0.5343 -0.3494  0.2822
   9623SM  H10F13027   2.924   1.635   5.736 -2.2544  1.4788  0.5285
   9623SM  H10G13028   2.912   1.775   5.620  0.1184 -1.3948 -3.9953
   9623SM  C11F13029   3.108   1.747   5.713 -0.0245 -0.0748 -0.0868
   9623SM  H11F13030   3.173   1.780   5.629  1.4547 -1.5946  0.4056
   9623SM  H11G13031   3.157   1.666   5.771 -2.8206 -1.1316  0.9448
   9623SM  C12F13032   3.073   1.865   5.801 -0.4241 -0.1935 -0.1321
   9623SM  H12F13033   3.004   1.821   5.876  0.1315 -1.4299 -0.3300
   9623SM  H12G13034   3.013   1.946   5.753  0.5600  0.6804  0.0574
   9623SM  C13F13035   3.188   1.927   5.869 -0.3371  0.5556 -0.0439
   9623SM  H13F13036   3.258   1.970   5.793  1.0177  1.4745  1.6452
   9623SM  H13G13037   3.254   1.858   5.927 -0.6888 -0.0631 -0.3671
   9623SM  C14F13038   3.133   2.036   5.967 -0.2803 -0.9043  0.1105
   9623SM  H14F13039   3.041   1.984   6.001  0.5715 -2.7585 -0.2886
   9623SM  H14G13040   3.081   2.121   5.919 -1.2561 -0.0809  2.4774
   9623SM  C15F13041   3.231   2.081   6.075  0.2186 -0.5241 -0.7411
   9623SM  H15F13042   3.299   2.143   6.012  2.5916 -2.0271  0.2004
   9623SM  H15G13043   3.289   2.000   6.123  2.1499  0.6405 -0.9950
   9623SM  C16F13044   3.156   2.173   6.180  0.2415  0.3850  0.5317
   9623SM  H16F13045   3.093   2.243   6.122  0.5439  0.9470  0.8665
   9623SM  H16G13046   3.232   2.240   6.228 -0.4244  2.1528 -0.7748
   9623SM  C17F13047   3.066   2.101   6.282 -0.0315  0.3044  0.2122
   9623SM  H17F13048   3.127   2.018   6.323  2.6419  2.2350  0.4237
   9623SM  H17G13049   2.983   2.051   6.229  1.0432 -1.6816  0.3234
   9623SM  C18F13050   3.012   2.203   6.383  0.0344  0.0339 -0.7357
   9623SM  H18F13051   3.081   2.247   6.458 -0.8869 -1.0863  0.8016
   9623SM  H18G13052   2.935   2.148   6.440  0.3388  1.9970  1.7326
   9623SM  C19F13053   2.933   2.316   6.309  0.0210 -0.2997 -0.3288
   9623SM  H19F13054   2.876   2.266   6.229  1.0388 -0.5810 -0.8938
   9623SM  H19G13055   3.003   2.387   6.260  0.6790 -0.1932  0.7239
   9623SM  C20F13056   2.844   2.404   6.399  0.0942  0.1601  0.2548
   9623SM  H20F13057   2.910   2.446   6.478 -1.9548  2.0363  1.0684
   9623SM  H20G13058   2.774   2.340   6.457 -0.2731  0.7822  0.5050
   9623SM  C21F13059   2.761   2.502   6.315  0.0469 -0.5743  1.0681
   9623SM  H21F13060   2.708   2.456   6.229 -2.1353  1.0712  1.4601
   9623SM  H21G13061   2.832   2.581   6.283 -0.3564 -0.9701 -0.9557
   9623SM  C22F13062   2.658   2.575   6.398 -0.1606  0.6019  0.4609
   9623SM  H22F13063   2.611   2.646   6.326 -0.0052 -0.4412 -0.7053
   9623SM  H22G13064   2.714   2.634   6.474  0.5199  0.1468  0.3254
   9623SM  C23F13065   2.548   2.485   6.459  0.4722  0.5720  0.2309
   9623SM  H23F13066   2.486   2.432   6.383 -2.7983  2.1331  1.5869
   9623SM  H23G13067   2.476   2.553   6.509 -0.9326 -0.6277 -0.0853
   9623SM  H23H13068   2.581   2.412   6.536  0.7477 -1.3101 -1.5829
   9723SM     N13069   4.193   1.689   3.002 -0.2034 -0.0817 -0.1615
   9723SM   C1513070   4.271   1.563   3.007 -0.5230  0.1840 -0.9762
   9723SM  H15A13071   4.256   1.514   3.102 -2.2566 -0.6818 -1.6595
   9723SM  H15B13072   4.376   1.583   2.989 -0.5743 -0.7721 -2.5536
   9723SM  H15C13073   4.232   1.491   2.937  0.4642 -0.5884 -0.7559
   9723SM   C1413074   4.273   1.817   3.013  0.2213  0.2840  0.0422
   9723SM  H14A13075   4.213   1.902   2.982  0.7533  0.8341  0.5145
   9723SM  H14B13076   4.354   1.821   2.941 -2.3554 -0.5483 -3.1952
   9723SM  H14C13077   4.311   1.833   3.113  2.6389  0.8631 -0.8876
   9723SM   C1313078   4.134   1.682   2.863  1.2266  0.4039  0.5294
   9723SM  H13A13079   4.058   1.605   2.861 -2.6398  3.8077  1.1485
   9723SM  H13B13080   4.211   1.676   2.788 -0.3291  1.0119 -1.1973
   9723SM  H13C13081   4.082   1.776   2.847  0.0836 -0.3966 -0.6463
   9723SM   C1213082   4.077   1.689   3.103 -0.6768 -0.3403  0.6329
   9723SM  H12A13083   4.024   1.596   3.089  1.3951 -1.8895  2.3084
   9723SM  H12B13084   4.012   1.769   3.071  0.7857  1.0653  0.9840
   9723SM   C1113085   4.111   1.696   3.249 -0.1914  0.3208 -0.2549
   9723SM  H11A13086   4.195   1.625   3.266 -0.3423  0.3897  0.8700
   9723SM  H11B13087   4.022   1.668   3.309  0.7508 -0.3966  0.8596
   9723SM     P13088   4.063   1.951   3.274 -0.0054  0.1762  0.1573
   9723SM   O1313089   4.150   2.072   3.274  0.6559  0.5188  0.0908
   9723SM   O1413090   3.973   1.934   3.158 -0.1184  0.4056  0.5261
   9723SM   O1113091   3.978   1.953   3.411 -0.3650 -0.1238  0.1650
   9723SM   O1213092   4.159   1.830   3.281  0.1787 -0.5039 -0.6757
   9723SM   C1S13093   4.022   1.924   3.542 -0.3527 -0.6976  0.5975
   9723SM   H1S13094   4.129   1.895   3.540 -0.3427 -0.6332 -0.1873
   9723SM   H1T13095   3.974   1.835   3.587  0.2453 -2.0978 -1.3846
   9723SM    NF13096   4.047   2.019   3.771  0.2862  0.5369 -0.0132
   9723SM   HNF13097   3.978   2.012   3.842  0.2611  0.0142 -0.0834
   9723SM   C2S13098   4.009   2.052   3.634 -0.4377 -0.7453 -0.5448
   9723SM   H2S13099   4.082   2.125   3.593  0.6363  0.0674  2.5742
   9723SM   C3S13100   3.863   2.107   3.625 -0.5566  0.1917  0.2127
   9723SM   H3S13101   3.792   2.022   3.613 -1.2444  0.9180 -1.0137
   9723SM    O313102   3.842   2.187   3.503  0.2431 -0.1122 -0.1465
   9723SM   HO313103   3.899   2.153   3.433 -1.3602 -0.7300 -1.2096
   9723SM   C4S13104   3.827   2.186   3.747 -0.1497  0.0720 -0.6229
   9723SM   H4S13105   3.762   2.124   3.812 -0.4575 -0.8614 -1.7806
   9723SM   C5S13106   3.869   2.308   3.786 -0.5198  0.1620  0.1911
   9723SM   H5S13107   3.944   2.363   3.726  1.3570  0.0016  2.2416
   9723SM   C6S13108   3.847   2.390   3.908  0.1541 -0.1523  0.2617
   9723SM   H6S13109   3.768   2.466   3.888  0.0492 -0.5690 -0.9994
   9723SM   H6T13110   3.947   2.437   3.920  0.2369  0.2877 -1.7527
   9723SM   C7S13111   3.810   2.307   4.035 -0.1459  0.2467 -0.0105
   9723SM   H7S13112   3.881   2.222   4.040  1.5833  1.5625 -0.9522
   9723SM   H7T13113   3.714   2.254   4.018  0.2434 -1.1135  1.7729
   9723SM   C8S13114   3.792   2.394   4.152 -0.4061 -0.2112 -0.3406
   9723SM   H8S13115   3.710   2.464   4.123 -1.1740  0.1721  2.4795
   9723SM   H8T13116   3.890   2.444   4.166  1.3620 -3.7440  1.2410
   9723SM   C9S13117   3.771   2.330   4.288  0.3921 -0.6373 -0.5451
   9723SM   H9S13118   3.867   2.278   4.306  0.7525 -0.7344 -2.5305
   9723SM   H9T13119   3.689   2.254   4.285  0.1001 -0.3452 -0.1280
   9723SM  C10S13120   3.746   2.429   4.410 -0.2543 -0.2339  0.4831
   9723SM  H10S13121   3.638   2.455   4.410 -0.0792  0.5399 -0.0976
   9723SM  H10T13122   3.802   2.523   4.390  0.6821 -1.1480 -1.4698
   9723SM  C11S13123   3.785   2.374   4.544  0.1186  0.0174  0.1785
   9723SM  H11S13124   3.887   2.330   4.544  0.0594 -0.1245 -0.2657
   9723SM  H11T13125   3.715   2.288   4.542  0.1178 -0.0519  1.8937
   9723SM  C12S13126   3.755   2.470   4.660  0.0329 -0.5893 -0.8922
   9723SM  H12S13127   3.652   2.512   4.665  0.5932  0.7293  0.5252
   9723SM  H12T13128   3.834   2.547   4.644 -1.1565  0.2841 -2.8861
   9723SM  C13S13129   3.779   2.395   4.792  0.5148  0.1336  0.6578
   9723SM  H13S13130   3.875   2.338   4.788  0.4896  0.0517  1.1516
   9723SM  H13T13131   3.695   2.324   4.805  0.2417  0.3568  0.1086
   9723SM  C14S13132   3.773   2.480   4.921  0.2666 -0.0353 -0.1874
   9723SM  H14S13133   3.681   2.543   4.920 -0.2094 -0.7234 -0.2380
   9723SM  H14T13134   3.860   2.549   4.927 -0.3727  0.7424  0.3992
   9723SM  C15S13135   3.772   2.398   5.047 -0.6947  0.5964 -0.0313
   9723SM  H15S13136   3.879   2.371   5.064 -1.0591 -1.2995 -0.5383
   9723SM  H15T13137   3.722   2.300   5.033 -0.2437  0.1733  1.1959
   9723SM  C16S13138   3.693   2.467   5.160  0.8200 -0.3658  0.0759
   9723SM  H16S13139   3.590   2.485   5.121 -0.5409 -2.2257  2.5641
   9723SM  H16T13140   3.749   2.559   5.187 -0.9474  0.4071  1.3295
   9723SM  C17S13141   3.677   2.385   5.284 -1.0598 -0.7933  0.3570
   9723SM  H17S13142   3.772   2.334   5.309 -0.6863 -0.7018 -0.8008
   9723SM  H17T13143   3.606   2.305   5.252 -1.0433 -1.0830  1.0407
   9723SM  C18S13144   3.628   2.465   5.402  0.3231 -0.1644  0.3746
   9723SM  H18S13145   3.539   2.526   5.376  0.8698  1.5665  2.3224
   9723SM  H18T13146   3.704   2.539   5.433  0.2146 -0.1533  0.6203
   9723SM  H18U13147   3.612   2.384   5.477  1.2254 -1.0892 -0.4091
   9723SM   C1F13148   4.167   1.995   3.808 -0.4463  0.3238 -0.4145
   9723SM    OF13149   4.266   2.002   3.732  0.0658 -0.0759 -0.0111
   9723SM   C2F13150   4.179   1.952   3.946  0.1341  0.1281 -0.4565
   9723SM   H2F13151   4.097   1.887   3.983  1.1157 -0.0651  1.4556
   9723SM   H2G13152   4.164   2.039   4.013  1.6185  0.7963 -0.9474
   9723SM   C3F13153   4.313   1.875   3.961  0.0535 -0.4218 -0.3441
   9723SM   H3F13154   4.398   1.943   3.943  0.5546 -0.6420  1.0868
   9723SM   H3G13155   4.314   1.794   3.885 -0.4326 -1.9396  1.1839
   9723SM   C4F13156   4.324   1.800   4.092 -0.7851  0.3752 -0.3438
   9723SM   H4F13157   4.395   1.716   4.083  0.7680  1.3093  2.2253
   9723SM   H4G13158   4.233   1.747   4.128  0.2121 -1.1744 -0.0085
   9723SM   C5F13159   4.383   1.893   4.206  0.6605 -0.7110  0.1996
   9723SM   H5F13160   4.308   1.972   4.223  1.4602  0.1470 -0.1588
   9723SM   H5G13161   4.484   1.934   4.181  0.9147 -1.1753  0.4479
   9723SM   C6F13162   4.395   1.813   4.327  0.6490 -0.2911 -0.7136
   9723SM   H6F13163   4.478   1.740   4.319 -1.1894 -2.8786  1.7787
   9723SM   H6G13164   4.304   1.757   4.359  0.7598  0.1981  0.5484
   9723SM   C7F13165   4.425   1.902   4.450 -0.0214 -0.5210  0.2827
   9723SM   H7F13166   4.344   1.976   4.471  0.3264  0.1844 -0.7418
   9723SM   H7G13167   4.510   1.972   4.436 -0.8329  0.8697  1.9988
   9723SM   C8F13168   4.446   1.818   4.575  0.1088 -0.4033 -0.0728
   9723SM   H8F13169   4.537   1.755   4.563  1.6880  1.6720  0.4539
   9723SM   H8G13170   4.361   1.757   4.612 -1.0080  0.5902 -0.9285
   9723SM   C9F13171   4.476   1.916   4.694 -1.0472 -0.2091  0.1141
   9723SM   H9F13172   4.389   1.985   4.698 -0.9122  0.0544 -1.0509
   9723SM   H9G13173   4.556   1.987   4.663 -0.0433 -0.2436  2.4250
   9723SM  C10F13174   4.518   1.847   4.824  0.7455 -0.0159 -0.0122
   9723SM  H10F13175   4.613   1.790   4.815  0.2900 -1.0605  1.4289
   9723SM  H10G13176   4.430   1.783   4.847  0.7593 -0.5808 -1.4123
   9723SM  C11F13177   4.517   1.949   4.945 -0.3936  0.6893  0.1874
   9723SM  H11F13178   4.444   2.032   4.936 -0.0915  1.0936  1.3503
   9723SM  H11G13179   4.612   2.002   4.926  0.8988 -1.7442 -0.5774
   9723SM  C12F13180   4.531   1.888   5.081  0.8139 -0.1198 -0.4032
   9723SM  H12F13181   4.614   1.816   5.092 -0.2854 -1.1143  2.2921
   9723SM  H12G13182   4.438   1.827   5.082  0.7512 -0.0208 -0.0844
   9723SM  C13F13183   4.531   2.001   5.194  0.0218 -0.5497 -0.0749
   9723SM  H13F13184   4.430   2.047   5.197 -0.4094 -1.3920 -1.3116
   9723SM  H13G13185   4.602   2.077   5.155  0.2536 -1.6437 -1.9147
   9723SM  C14F13186   4.578   1.928   5.328 -0.5260 -0.3503 -0.4034
   9723SM  H14F13187   4.677   1.879   5.323 -0.4555 -0.4766  1.4425
   9723SM  H14G13188   4.503   1.850   5.354 -0.1745 -0.5533  0.0199
   9723SM  C15F13189   4.547   2.030   5.443 -0.6902  0.0757  0.6894
   9723SM  H15F13190   4.441   2.059   5.459 -0.9793 -0.9152  0.5953
   9723SM  H15G13191   4.610   2.119   5.424 -0.1309 -0.7251 -1.4847
   9723SM  C16F13192   4.583   1.966   5.582 -0.0805 -0.2130 -0.1441
   9723SM  H16F13193   4.691   1.940   5.579  0.4511  1.8539 -0.2224
   9723SM  H16G13194   4.519   1.881   5.613  2.8565 -2.4071  0.4329
   9723SM  C17F13195   4.574   2.076   5.691  0.1880 -0.0256 -0.6238
   9723SM  H17F13196   4.466   2.098   5.697  0.0869 -0.8539  0.9013
   9723SM  H17G13197   4.621   2.171   5.658 -0.7950  1.4568  1.9883
   9723SM  C18F13198   4.623   2.039   5.834  0.1062  0.3042  0.0061
   9723SM  H18F13199   4.734   2.039   5.830  0.0980 -0.9747 -2.7305
   9723SM  H18G13200   4.596   1.937   5.870  1.9668 -0.4150 -0.5249
   9723SM  C19F13201   4.579   2.140   5.936  0.3011 -0.4064 -0.6216
   9723SM  H19F13202   4.614   2.115   6.038 -0.2069 -0.8136 -0.5415
   9723SM  H19G13203   4.469   2.152   5.944  0.4871  0.3751  1.1783
   9723SM  C20F13204   4.636   2.284   5.906  0.4786  0.3230  0.6192
   9723SM  H20F13205   4.595   2.315   5.807 -1.5200 -0.4792  1.1311
   9723SM  H20G13206   4.746   2.268   5.907  0.3668 -0.5365  1.7269
   9723SM  C21F13207   4.604   2.392   6.013  0.5931  0.4123 -0.2433
   9723SM  H21F13208   4.665   2.484   5.999  1.5417  0.1893  1.9338
   9723SM  H21G13209   4.642   2.353   6.110 -0.0136 -1.2821 -0.6588
   9723SM  C22F13210   4.455   2.440   6.018 -0.2007 -0.4127 -0.3839
   9723SM  H22F13211   4.430   2.461   6.124  1.6904  0.1697 -0.0238
   9723SM  H22G13212   4.399   2.348   5.989 -0.9474 -0.5646  1.4259
   9723SM  C23F13213   4.419   2.562   5.935 -0.1302 -0.5035  0.0829
   9723SM  H23F13214   4.427   2.546   5.826  2.1673 -0.0757  0.1345
   9723SM  H23G13215   4.471   2.654   5.967  1.4062 -0.9340 -1.0408
   9723SM  H23H13216   4.314   2.591   5.956  1.0812  1.7427  4.0711
   9823SM     N13217   6.481   1.296   3.674  0.2383 -0.2401  0.5794
   9823SM   C1513218   6.434   1.220   3.794 -0.0953 -0.1176 -0.2935
   9823SM  H15A13219   6.516   1.171   3.846  0.7421 -0.9750 -2.3178
   9823SM  H15B13220   6.369   1.136   3.775 -1.3758  0.5156  1.0957
   9823SM  H15C13221   6.376   1.286   3.857 -1.7426 -1.7154 -0.0635
   9823SM   C1413222   6.568   1.416   3.727 -0.0860  0.7127  0.3198
   9823SM  H14A13223   6.560   1.503   3.664  2.8109  0.7146 -0.1952
   9823SM  H14B13224   6.672   1.386   3.736  0.1591  0.2607 -3.0245
   9823SM  H14C13225   6.529   1.448   3.823 -4.0620  3.4631 -1.9159
   9823SM   C1313226   6.568   1.215   3.590 -1.1169  0.0076 -0.1910
   9823SM  H13A13227   6.642   1.166   3.652 -0.3099 -0.2833 -1.3583
   9823SM  H13B13228   6.626   1.277   3.523  0.8944 -0.8120  0.6855
   9823SM  H13C13229   6.524   1.130   3.542 -0.7300  0.4899 -1.4319
   9823SM   C1213230   6.360   1.365   3.600  0.1681  0.1726  0.2544
   9823SM  H12A13231   6.390   1.440   3.530 -2.4848 -2.0788 -3.6613
   9823SM  H12B13232   6.298   1.414   3.674  0.0467  1.0085 -0.3869
   9823SM   C1113233   6.275   1.267   3.515 -0.2394 -0.1373  0.0672
   9823SM  H11A13234   6.347   1.198   3.465 -1.7125  1.0192 -4.0229
   9823SM  H11B13235   6.210   1.313   3.437 -1.7361 -1.5403  0.4209
   9823SM     P13236   6.047   1.216   3.623 -0.1656 -0.4008  0.1556
   9823SM   O1313237   6.050   1.356   3.678  0.1445  0.0168 -0.1908
   9823SM   O1413238   5.963   1.198   3.504  0.2350 -0.3863  0.6506
   9823SM   O1113239   5.998   1.120   3.742 -0.9071 -0.4633  0.8008
   9823SM   O1213240   6.193   1.174   3.590  0.2746  0.0275  0.1772
   9823SM   C1S13241   6.100   1.049   3.817  0.2067  0.2746  0.0966
   9823SM   H1S13242   6.187   1.115   3.840  0.7197  0.0811 -1.1943
   9823SM   H1T13243   6.145   0.969   3.755 -0.3511  0.9575 -1.2283
   9823SM    NF13244   6.161   0.918   4.009 -0.1639  0.0622 -0.2669
   9823SM   HNF13245   6.137   0.821   4.013  0.4960 -0.1011 -0.2655
   9823SM   C2S13246   6.065   1.008   3.960 -0.0373  0.5700  0.2995
   9823SM   H2S13247   6.064   1.102   4.020 -0.9951  0.0265  1.1444
   9823SM   C3S13248   5.923   0.945   3.964  0.1040 -1.0414  1.1572
   9823SM   H3S13249   5.927   0.850   3.907  0.1460 -0.8838  0.8942
   9823SM    O313250   5.822   1.027   3.900 -0.5739  0.3749  0.6744
   9823SM   HO313251   5.869   1.088   3.841  0.0916 -0.2481  0.5363
   9823SM   C4S13252   5.876   0.911   4.103  0.1888  0.1029  0.0278
   9823SM   H4S13253   5.898   0.807   4.130  2.3690  0.1499 -1.3668
   9823SM   C5S13254   5.815   0.990   4.189 -0.8180 -0.1233  0.0589
   9823SM   H5S13255   5.802   1.097   4.167  1.5896  0.2068 -0.0376
   9823SM   C6S13256   5.767   0.952   4.323  0.0832  0.5704 -0.8452
   9823SM   H6S13257   5.796   0.849   4.351  1.6849  0.3913 -2.9213
   9823SM   H6T13258   5.656   0.963   4.318 -0.0897  0.3024  1.3451
   9823SM   C7S13259   5.826   1.046   4.436  0.1422 -0.4563 -0.1968
   9823SM   H7S13260   5.770   1.142   4.434  1.5120  0.3541 -0.8909
   9823SM   H7T13261   5.935   1.056   4.416  0.1794 -0.2623  0.0994
   9823SM   C8S13262   5.814   0.992   4.578  0.0784  0.2688  0.4481
   9823SM   H8S13263   5.872   0.898   4.568 -1.4273 -0.5135 -1.9946
   9823SM   H8T13264   5.707   0.969   4.599 -0.3045  1.3113 -0.2864
   9823SM   C9S13265   5.862   1.093   4.689 -0.4548  0.0706  0.2482
   9823SM   H9S13266   5.783   1.171   4.698 -0.2128  0.2105  1.2421
   9823SM   H9T13267   5.960   1.137   4.663  0.5976 -3.0103 -1.4548
   9823SM  C10S13268   5.878   1.037   4.834  0.0995 -0.0369  0.1596
   9823SM  H10S13269   5.954   0.955   4.829 -0.9840 -1.1060  0.6733
   9823SM  H10T13270   5.792   0.976   4.870  0.4946 -1.6617 -1.4711
   9823SM  C11S13271   5.928   1.141   4.931  0.1403  0.2974  0.1065
   9823SM  H11S13272   5.840   1.208   4.944 -0.9175 -0.7833 -1.1284
   9823SM  H11T13273   6.011   1.199   4.885 -0.3205  1.2843  0.4967
   9823SM  C12S13274   5.978   1.082   5.067  0.2658 -0.3364 -1.3864
   9823SM  H12S13275   6.077   1.034   5.052  1.8168  1.3188  2.3703
   9823SM  H12T13276   5.906   1.006   5.105 -0.9594  1.1621 -0.6050
   9823SM  C13S13277   5.994   1.184   5.181 -0.0542  0.2325  0.2187
   9823SM  H13S13278   5.901   1.244   5.194 -0.0536  0.5741 -1.1662
   9823SM  H13T13279   6.075   1.255   5.151  2.9238 -3.6300 -1.8141
   9823SM  C14S13280   6.022   1.126   5.316  0.2523 -0.0400 -0.5105
   9823SM  H14S13281   6.103   1.049   5.318 -0.0342 -0.3318  0.2062
   9823SM  H14T13282   5.931   1.079   5.360  1.0781  0.6982  2.1999
   9823SM  C15S13283   6.079   1.233   5.410  0.0299 -0.7496 -0.2996
   9823SM  H15S13284   6.013   1.321   5.393 -1.2518 -1.6507 -0.2105
   9823SM  H15T13285   6.180   1.259   5.374 -0.6090 -1.7589 -3.1047
   9823SM  C16S13286   6.078   1.197   5.557 -0.3362 -0.4226 -0.4270
   9823SM  H16S13287   6.145   1.114   5.586  0.1233 -0.0271 -0.3288
   9823SM  H16T13288   5.972   1.179   5.585 -0.4599 -1.0077 -1.2385
   9823SM  C17S13289   6.102   1.322   5.643 -0.2569  0.0287 -0.0150
   9823SM  H17S13290   6.025   1.396   5.614  1.7163  2.0339 -0.4247
   9823SM  H17T13291   6.205   1.349   5.613 -0.3818 -1.8863 -2.4634
   9823SM  C18S13292   6.103   1.301   5.797 -0.0432  0.2223  0.4611
   9823SM  H18S13293   6.184   1.227   5.815 -0.5167 -0.4222 -0.0278
   9823SM  H18T13294   6.005   1.255   5.823  0.5730 -0.7996  1.0655
   9823SM  H18U13295   6.123   1.396   5.850  1.1158  1.8142 -2.5764
   9823SM   C1F13296   6.286   0.947   4.048 -0.4737  0.4026  0.9713
   9823SM    OF13297   6.340   1.061   4.042  0.1382 -0.2999  0.0558
   9823SM   C2F13298   6.370   0.831   4.084  0.1017  0.0497  0.0575
   9823SM   H2F13299   6.466   0.823   4.028  1.5900  1.8020  2.1452
   9823SM   H2G13300   6.324   0.731   4.084 -0.7822  0.4435  0.9622
   9823SM   C3F13301   6.422   0.846   4.231 -0.2777 -0.0972 -0.5070
   9823SM   H3F13302   6.497   0.929   4.230  0.7389 -0.9748 -1.9448
   9823SM   H3G13303   6.470   0.749   4.257 -1.0482 -0.0086  1.3673
   9823SM   C4F13304   6.317   0.875   4.335 -0.5698  0.7576  1.1594
   9823SM   H4F13305   6.238   0.802   4.307  0.0421 -0.1914  1.8502
   9823SM   H4G13306   6.267   0.973   4.323 -0.0427  0.7850 -1.3717
   9823SM   C5F13307   6.365   0.863   4.483  0.1379 -0.2355 -0.2982
   9823SM   H5F13308   6.434   0.945   4.514 -1.6796  0.9482  0.7766
   9823SM   H5G13309   6.418   0.765   4.483 -1.2444 -1.0115 -0.7371
   9823SM   C6F13310   6.259   0.864   4.595  0.2047  0.1293  0.7503
   9823SM   H6F13311   6.189   0.780   4.574 -1.0553  1.1644  0.6746
   9823SM   H6G13312   6.199   0.958   4.594  0.5859  0.4123  2.1008
   9823SM   C7F13313   6.329   0.843   4.730  0.0918  0.2195  0.1944
   9823SM   H7F13314   6.431   0.802   4.713 -0.5122 -1.5049  0.5729
   9823SM   H7G13315   6.271   0.770   4.790  0.9024  1.3358  2.4199
   9823SM   C8F13316   6.343   0.980   4.799  0.0759 -0.4501  0.0482
   9823SM   H8F13317   6.251   1.042   4.810 -0.7950 -1.5455 -0.8512
   9823SM   H8G13318   6.421   1.025   4.735  1.5794 -1.4992  1.0754
   9823SM   C9F13319   6.376   0.959   4.949  0.0489  0.0222  0.1660
   9823SM   H9F13320   6.470   0.900   4.955  1.5354  2.1307 -0.9364
   9823SM   H9G13321   6.297   0.905   5.005 -1.3534  0.5800 -1.2129
   9823SM  C10F13322   6.395   1.098   5.016  0.0727  0.2807  0.1173
   9823SM  H10F13323   6.294   1.141   5.031  0.7454  0.8857  4.5812
   9823SM  H10G13324   6.457   1.169   4.957 -0.7214  0.9790  0.1023
   9823SM  C11F13325   6.471   1.090   5.147 -0.7677 -0.5897  0.0119
   9823SM  H11F13326   6.495   1.192   5.183  1.8002 -1.3130  0.5337
   9823SM  H11G13327   6.555   1.025   5.114 -2.4409 -1.7710 -2.2356
   9823SM  C12F13328   6.389   0.998   5.248  0.5047 -0.0266  0.1929
   9823SM  H12F13329   6.362   0.899   5.207 -0.6972 -1.0340  3.1133
   9823SM  H12G13330   6.295   1.055   5.262  1.4292  1.2567  1.4752
   9823SM  C13F13331   6.467   0.984   5.379  0.2362 -0.3842  0.3097
   9823SM  H13F13332   6.467   1.079   5.437 -1.1105 -0.1603 -0.0329
   9823SM  H13G13333   6.571   0.945   5.371 -0.0480 -0.8859 -1.2332
   9823SM  C14F13334   6.394   0.886   5.467 -0.0952 -0.5397  0.2864
   9823SM  H14F13335   6.404   0.778   5.445 -0.2337 -0.5184  0.1213
   9823SM  H14G13336   6.287   0.912   5.451 -0.2099 -1.3723 -0.3519
   9823SM  C15F13337   6.437   0.895   5.618 -0.4255 -0.0121 -0.0130
   9823SM  H15F13338   6.547   0.890   5.633 -0.7566 -0.9780  2.4084
   9823SM  H15G13339   6.397   0.800   5.657  1.5455 -0.1275  1.8781
   9823SM  C16F13340   6.376   1.016   5.701  0.4580 -0.0524 -0.9173
   9823SM  H16F13341   6.270   0.991   5.721  0.8306  0.7908  2.8801
   9823SM  H16G13342   6.377   1.108   5.638 -0.1312  0.8921  0.3982
   9823SM  C17F13343   6.441   1.052   5.836 -0.8117 -0.0362 -0.2420
   9823SM  H17F13344   6.389   1.142   5.875 -1.2359 -1.0118  1.5935
   9823SM  H17G13345   6.543   1.083   5.806 -0.9523  0.6497 -0.0263
   9823SM  C18F13346   6.436   0.943   5.937  0.5173  0.2582  0.5293
   9823SM  H18F13347   6.481   0.855   5.887  2.7158  2.2051 -1.1009
   9823SM  H18G13348   6.332   0.909   5.959  0.7104 -0.3675  0.4888
   9823SM  C19F13349   6.518   0.954   6.066 -0.1084 -0.2156 -0.6704
   9823SM  H19F13350   6.516   0.858   6.121  0.1935  0.4977  0.6229
   9823SM  H19G13351   6.477   1.030   6.135  1.2059  0.3466 -0.4804
   9823SM  C20F13352   6.667   1.004   6.040  0.1105 -0.4909  0.6393
   9823SM  H20F13353   6.720   0.947   5.961  0.0200  2.4442 -1.7349
   9823SM  H20G13354   6.715   0.962   6.130 -0.0930 -1.0076  0.5080
   9823SM  C21F13355   6.689   1.155   6.030 -0.3454  0.2591  0.5921
   9823SM  H21F13356   6.627   1.205   6.107 -1.6996 -0.0989 -0.2330
   9823SM  H21G13357   6.658   1.186   5.927  1.2737  0.2996  0.0882
   9823SM  C22F13358   6.834   1.211   6.028  0.0939 -0.2533 -0.1787
   9823SM  H22F13359   6.892   1.158   5.950  0.8372 -2.5172  1.7946
   9823SM  H22G13360   6.877   1.179   6.125  1.6360  0.8875 -0.4421
   9823SM  C23F13361   6.836   1.365   6.034 -0.6301 -0.0490  0.1796
   9823SM  H23F13362   6.929   1.393   6.087  1.1547 -0.3342 -2.5742
   9823SM  H23G13363   6.752   1.407   6.093 -0.9136  0.5632 -0.6220
   9823SM  H23H13364   6.851   1.416   5.936  1.4128 -1.0098 -0.0552
   9923SM     N13365   2.258   6.175   4.663  0.3932  0.3492 -0.2496
   9923SM   C1513366   2.189   6.089   4.560 -1.0873 -0.0137  0.1155
   9923SM  H15A13367   2.268   6.036   4.508 -2.6961 -1.3297 -1.1187
   9923SM  H15B13368   2.128   6.150   4.494 -1.1351  0.5128  0.6403
   9923SM  H15C13369   2.122   6.016   4.601  0.3631 -2.4323 -1.5702
   9923SM   C1413370   2.328   6.080   4.747 -0.7524 -0.1627  0.2243
   9923SM  H14A13371   2.401   6.027   4.687 -1.8421 -1.0183 -0.3817
   9923SM  H14B13372   2.272   6.013   4.810  0.7089  1.2035  3.1799
   9923SM  H14C13373   2.389   6.126   4.824 -1.1972  0.3874  0.2502
   9923SM   C1313374   2.342   6.275   4.600 -0.0717 -0.2626  0.1369
   9923SM  H13A13375   2.401   6.246   4.514 -0.7912  1.1237 -0.8557
   9923SM  H13B13376   2.418   6.304   4.671 -1.0317  0.5110  0.8659
   9923SM  H13C13377   2.278   6.360   4.584  0.5321  0.1012 -0.4504
   9923SM   C1213378   2.148   6.249   4.744  0.1821 -0.2151  0.2358
   9923SM  H12A13379   2.088   6.317   4.686  0.1764 -0.5116 -0.1120
   9923SM  H12B13380   2.196   6.305   4.823  2.0124 -1.2292 -0.0883
   9923SM   C1113381   2.045   6.151   4.817  0.6016 -0.4011  0.6847
   9923SM  H11A13382   2.006   6.215   4.899  0.6398  1.6373 -0.8080
   9923SM  H11B13383   2.105   6.066   4.856  1.5853  0.1583  0.4162
   9923SM     P13384   1.831   6.195   4.679 -0.1840  0.1400  0.4877
   9923SM   O1313385   1.903   6.303   4.615  0.2489 -0.1719  0.1751
   9923SM   O1413386   1.737   6.121   4.598 -0.5985 -0.3094  0.0453
   9923SM   O1113387   1.765   6.244   4.812  0.2285  0.1026 -0.2467
   9923SM   O1213388   1.942   6.101   4.729 -0.7425 -0.9129 -0.0830
   9923SM   C1S13389   1.698   6.371   4.817  0.8414  0.1997 -0.3478
   9923SM   H1S13390   1.614   6.378   4.744  1.1312  1.2297 -0.5960
   9923SM   H1T13391   1.767   6.457   4.804  1.2939 -0.0769  0.2104
   9923SM    NF13392   1.526   6.502   4.948 -0.1289  0.3284 -0.2067
   9923SM   HNF13393   1.553   6.594   4.973  0.5831  0.0988 -0.1009
   9923SM   C2S13394   1.631   6.397   4.956  0.1934  0.3828 -0.0651
   9923SM   H2S13395   1.588   6.300   4.989 -2.8097  2.1035  1.6044
   9923SM   C3S13396   1.740   6.421   5.075 -0.0630 -0.1114  0.3055
   9923SM   H3S13397   1.781   6.524   5.067 -2.0210  0.6340 -0.6968
   9923SM    O313398   1.855   6.335   5.074  0.2093  0.1412  0.0469
   9923SM   HO313399   1.841   6.286   4.992  0.0303  3.8296 -2.3968
   9923SM   C4S13400   1.671   6.414   5.205 -0.6711  0.1029  0.1873
   9923SM   H4S13401   1.671   6.510   5.259  0.5710 -0.3587  1.0531
   9923SM   C5S13402   1.655   6.305   5.277  0.0874 -0.1379 -0.6719
   9923SM   H5S13403   1.688   6.208   5.239 -2.2728 -1.9647  1.6004
   9923SM   C6S13404   1.618   6.303   5.427 -0.1322 -0.0374  0.0357
   9923SM   H6S13405   1.710   6.280   5.485  1.3100  3.0434 -0.7990
   9923SM   H6T13406   1.538   6.229   5.447  0.4397 -0.9240 -0.8514
   9923SM   C7S13407   1.566   6.429   5.494  0.4889  0.2977  0.0993
   9923SM   H7S13408   1.494   6.488   5.433 -0.8548 -1.6269 -0.2667
   9923SM   H7T13409   1.654   6.489   5.525  1.4298 -1.7398  1.5589
   9923SM   C8S13410   1.489   6.415   5.624 -0.3184 -0.1609 -0.1887
   9923SM   H8S13411   1.406   6.340   5.617  2.0417 -2.9729 -0.0842
   9923SM   H8T13412   1.437   6.513   5.635 -0.1020  0.1704 -1.8155
   9923SM   C9S13413   1.566   6.371   5.739  0.0992  0.8043 -1.0362
   9923SM   H9S13414   1.652   6.440   5.752 -0.9248  2.1510 -1.1510
   9923SM   H9T13415   1.625   6.279   5.719  2.0404  1.7121  0.1333
   9923SM  C10S13416   1.485   6.342   5.869  0.3525  0.2165 -0.1225
   9923SM  H10S13417   1.394   6.283   5.842  0.2037 -0.1232  1.0649
   9923SM  H10T13418   1.439   6.439   5.896 -1.5757 -0.5249 -0.5264
   9923SM  C11S13419   1.576   6.291   5.985 -0.7471 -1.2075  0.5380
   9923SM  H11S13420   1.660   6.363   5.994  0.0671 -2.0147 -0.3389
   9923SM  H11T13421   1.615   6.191   5.955  0.7657 -0.0684 -1.5786
   9923SM  C12S13422   1.500   6.284   6.115 -0.3027  0.3735 -0.0764
   9923SM  H12S13423   1.410   6.222   6.096  0.3389 -0.0340 -1.9740
   9923SM  H12T13424   1.471   6.387   6.143  2.7743  0.9938  1.3427
   9923SM  C13S13425   1.577   6.228   6.236 -0.2102 -0.1580  0.2191
   9923SM  H13S13426   1.655   6.307   6.244 -0.8360  0.8220 -2.4480
   9923SM  H13T13427   1.615   6.126   6.215  1.5525 -0.2909  3.3915
   9923SM  C14S13428   1.494   6.235   6.369  0.4422  0.4625 -0.6466
   9923SM  H14S13429   1.475   6.340   6.401  0.4776  0.6990 -1.3859
   9923SM  H14T13430   1.560   6.187   6.445 -0.1893  1.5481  0.6194
   9923SM  C15S13431   1.372   6.148   6.361 -0.3198 -0.6224  0.4933
   9923SM  H15S13432   1.405   6.060   6.302 -0.2153 -1.5552  1.8865
   9923SM  H15T13433   1.299   6.208   6.302  1.6392  0.8184 -0.5939
   9923SM  C16S13434   1.326   6.093   6.490 -0.1464  0.3152 -0.4011
   9923SM  H16S13435   1.297   6.173   6.562  1.2538 -0.1975  0.7981
   9923SM  H16T13436   1.409   6.033   6.534 -0.1407 -1.9042 -3.1331
   9923SM  C17S13437   1.218   5.983   6.479  0.1427  0.6707 -0.3205
   9923SM  H17S13438   1.210   5.934   6.578 -0.3316 -2.6412 -1.8536
   9923SM  H17T13439   1.242   5.909   6.399  1.5200  1.6668 -0.8746
   9923SM  C18S13440   1.080   6.039   6.462 -0.0495 -0.2589  0.1626
   9923SM  H18S13441   0.998   5.964   6.460 -1.0093  0.7831 -0.6735
   9923SM  H18T13442   1.076   6.103   6.372 -1.3817  2.5782  2.0674
   9923SM  H18U13443   1.050   6.101   6.550  1.9168 -0.6848  1.1996
   9923SM   C1F13444   1.413   6.486   4.877 -0.2858  0.3301  0.2953
   9923SM    OF13445   1.377   6.380   4.822 -0.2970  0.0202 -0.4994
   9923SM   C2F13446   1.345   6.612   4.841  0.0975 -0.5028  1.0684
   9923SM   H2F13447   1.298   6.599   4.742 -0.1824 -1.2225  1.2946
   9923SM   H2G13448   1.419   6.695   4.848  0.7934 -0.7043 -2.2760
   9923SM   C3F13449   1.227   6.648   4.943 -1.4932 -0.0964 -0.0604
   9923SM   H3F13450   1.173   6.553   4.960  0.7590 -0.8103  4.4953
   9923SM   H3G13451   1.142   6.703   4.897 -2.5882 -1.3582  0.4066
   9923SM   C4F13452   1.270   6.697   5.086 -0.8288  0.0153 -0.2642
   9923SM   H4F13453   1.298   6.805   5.083  2.3412 -0.6628  0.4072
   9923SM   H4G13454   1.371   6.654   5.103 -1.0542 -0.2694  0.3667
   9923SM   C5F13455   1.167   6.669   5.190  0.6612  0.4098 -0.5069
   9923SM   H5F13456   1.138   6.562   5.196 -0.9533  0.8118 -0.7507
   9923SM   H5G13457   1.070   6.710   5.158 -0.4728  1.1304  3.3569
   9923SM   C6F13458   1.206   6.717   5.326  0.0547 -0.0288  0.3148
   9923SM   H6F13459   1.230   6.824   5.309  1.9058 -1.0051 -5.0622
   9923SM   H6G13460   1.306   6.672   5.345 -1.2036 -2.7988  0.9469
   9923SM   C7F13461   1.105   6.686   5.434 -0.1066 -0.4442  0.4432
   9923SM   H7F13462   1.094   6.576   5.445  1.3262 -0.5941  0.5358
   9923SM   H7G13463   1.008   6.732   5.406 -0.9629 -3.1445 -1.4476
   9923SM   C8F13464   1.139   6.733   5.576 -0.1025  0.2147  0.4023
   9923SM   H8F13465   1.175   6.838   5.568 -1.7492  0.6694 -1.6196
   9923SM   H8G13466   1.226   6.671   5.609 -0.2542  1.1467  2.7891
   9923SM   C9F13467   1.022   6.706   5.666 -0.6093 -0.7887  0.0132
   9923SM   H9F13468   0.986   6.600   5.659 -1.3297 -0.5489 -0.0091
   9923SM   H9G13469   0.937   6.768   5.630 -0.4750 -0.6443 -0.0515
   9923SM  C10F13470   1.047   6.742   5.813 -0.1167  0.9439  0.5339
   9923SM  H10F13471   0.947   6.760   5.857 -0.2020 -0.1269  0.7954
   9923SM  H10G13472   1.096   6.839   5.834 -0.0561  1.3779 -1.3969
   9923SM  C11F13473   1.117   6.625   5.875 -0.1561  0.1956 -0.5303
   9923SM  H11F13474   1.209   6.594   5.822  1.1176  1.0195  1.1346
   9923SM  H11G13475   1.041   6.544   5.871 -0.4925  0.4842 -0.0828
   9923SM  C12F13476   1.146   6.655   6.028 -0.2316 -1.1017  0.5051
   9923SM  H12F13477   1.050   6.676   6.079 -0.0282  0.7621  0.2109
   9923SM  H12G13478   1.210   6.746   6.025 -1.2325 -0.4014 -0.2713
   9923SM  C13F13479   1.210   6.538   6.099  0.4249  0.2559 -0.6600
   9923SM  H13F13480   1.305   6.513   6.046  1.9471  1.5822  1.2880
   9923SM  H13G13481   1.136   6.456   6.113 -0.3534  1.2374  1.1614
   9923SM  C14F13482   1.244   6.559   6.246 -0.4384 -0.5763 -0.8989
   9923SM  H14F13483   1.314   6.645   6.257 -2.4458  1.2119 -1.4188
   9923SM  H14G13484   1.293   6.464   6.278 -0.1940 -1.5388 -3.8258
   9923SM  C15F13485   1.121   6.589   6.334  0.5505  0.2289 -0.5994
   9923SM  H15F13486   1.034   6.599   6.266  2.7904  0.0103 -3.7199
   9923SM  H15G13487   1.128   6.682   6.393  2.0978  0.8346 -1.6648
   9923SM  C16F13488   1.068   6.481   6.431 -0.3900 -0.1231  0.8802
   9923SM  H16F13489   1.059   6.385   6.375 -1.9302 -0.1921  1.2002
   9923SM  H16G13490   0.969   6.518   6.464 -0.9029 -0.0390 -0.6373
   9923SM  C17F13491   1.162   6.457   6.551 -0.0580 -0.2478 -0.1753
   9923SM  H17F13492   1.265   6.453   6.509 -0.2487 -0.2800 -0.6449
   9923SM  H17G13493   1.143   6.351   6.576 -0.1454 -0.7851 -2.3547
   9923SM  C18F13494   1.154   6.559   6.663 -0.2404  0.2702 -0.1991
   9923SM  H18F13495   1.050   6.574   6.700  0.1248  0.3272  0.8244
   9923SM  H18G13496   1.186   6.658   6.625  1.0241  0.6340  1.6936
   9923SM  C19F13497   1.247   6.525   6.776 -0.3995  0.9700 -0.5586
   9923SM  H19F13498   1.352   6.525   6.742  0.3973 -1.8222  1.4623
   9923SM  H19G13499   1.224   6.423   6.815 -0.2487  1.7952  1.9095
   9923SM  C20F13500   1.237   6.640   6.876 -0.2758 -0.4592 -0.7057
   9923SM  H20F13501   1.131   6.651   6.910  0.2957 -0.3749  1.1243
   9923SM  H20G13502   1.261   6.731   6.817 -0.2636  0.1601  0.2387
   9923SM  C21F13503   1.334   6.633   6.995  0.5800  0.4898 -0.5579
   9923SM  H21F13504   1.440   6.630   6.960  1.3024  2.5751  1.1973
   9923SM  H21G13505   1.323   6.540   7.054 -2.4288 -0.1255 -1.8986
   9923SM  C22F13506   1.331   6.767   7.069 -0.0060 -0.2298  0.0839
   9923SM  H22F13507   1.233   6.810   7.099  1.0264  1.1072  1.7760
   9923SM  H22G13508   1.383   6.850   7.015  2.3385  0.2415  2.8002
   9923SM  C23F13509   1.416   6.760   7.198 -0.1887  0.2991  0.3575
   9923SM  H23F13510   1.387   6.844   7.266 -0.3798  0.2456  0.3430
   9923SM  H23G13511   1.521   6.760   7.163 -0.4787 -0.1368 -0.5633
   9923SM  H23H13512   1.401   6.662   7.246  0.7008 -1.5417 -2.8255
  10023SM     N13513   1.191   1.887   3.550  0.5649  0.1363  0.2301
  10023SM   C1513514   1.281   1.998   3.489 -0.1338  0.5435 -0.3797
  10023SM  H15A13515   1.360   2.022   3.558  0.7513 -2.8933 -0.0195
  10023SM  H15B13516   1.225   2.087   3.463  0.1425  0.7393 -0.3025
  10023SM  H15C13517   1.327   1.963   3.398 -1.5535  1.6981 -1.6020
  10023SM   C1413518   1.068   1.864   3.466 -0.0735 -0.2607 -0.6371
  10023SM  H14A13519   1.007   1.953   3.471  1.4421  0.7116  2.2612
  10023SM  H14B13520   1.013   1.784   3.513  1.3531  0.1927  2.0015
  10023SM  H14C13521   1.096   1.850   3.362  0.8735  1.0916 -0.6007
  10023SM   C1313522   1.275   1.761   3.553 -0.0670 -0.7220  0.8841
  10023SM  H13A13523   1.293   1.724   3.453 -1.9806 -0.8789  0.5603
  10023SM  H13B13524   1.222   1.685   3.609 -1.6962 -0.3956 -0.1463
  10023SM  H13C13525   1.375   1.768   3.594 -0.3459 -3.4904  2.3033
  10023SM   C1213526   1.147   1.932   3.690 -0.6250 -0.1875 -0.2213
  10023SM  H12A13527   1.229   1.961   3.754 -2.4723  0.7341  1.8541
  10023SM  H12B13528   1.120   1.840   3.740  1.8349 -0.5778  0.5232
  10023SM   C1113529   1.042   2.038   3.705 -0.2300 -0.2239 -0.1150
  10023SM  H11A13530   1.010   2.048   3.811 -1.1297  1.7222 -0.5172
  10023SM  H11B13531   0.950   2.015   3.646  0.4033 -1.3190 -0.6898
  10023SM     P13532   1.160   2.273   3.748 -0.3255 -1.0597  0.2698
  10023SM   O1313533   1.299   2.232   3.774 -0.5516 -0.0249  0.3111
  10023SM   O1413534   1.140   2.412   3.689 -0.2861 -0.5498  0.1603
  10023SM   O1113535   1.079   2.266   3.880 -0.5237  0.2600 -0.1572
  10023SM   O1213536   1.090   2.166   3.654 -0.1110 -0.0467 -0.3241
  10023SM   C1S13537   0.951   2.332   3.894  0.7075 -0.4903 -0.0229
  10023SM   H1S13538   0.885   2.334   3.804  1.1079  0.1552 -0.3046
  10023SM   H1T13539   0.966   2.437   3.925  0.5867 -0.6577  0.6224
  10023SM    NF13540   0.725   2.304   4.004 -0.3645  0.3805  0.0397
  10023SM   HNF13541   0.698   2.365   4.079 -0.4156  0.8439 -0.3477
  10023SM   C2S13542   0.867   2.265   4.007 -0.7338  0.0448 -0.0857
  10023SM   H2S13543   0.873   2.158   3.976 -3.1019  0.3329 -1.8426
  10023SM   C3S13544   0.936   2.290   4.151  0.0041  0.5060 -0.0130
  10023SM   H3S13545   0.928   2.396   4.184  0.0815  0.6185 -0.3599
  10023SM    O313546   1.075   2.262   4.148  0.0237  0.8513 -0.7804
  10023SM   HO313547   1.082   2.257   4.053 -2.2718  1.2163 -1.0362
  10023SM   C4S13548   0.872   2.204   4.256  0.3988  0.1922  0.2853
  10023SM   H4S13549   0.918   2.104   4.259  0.8688 -0.1139 -5.3707
  10023SM   C5S13550   0.793   2.259   4.350 -0.2165  0.0683  0.4943
  10023SM   H5S13551   0.776   2.367   4.345 -0.1463  0.0566 -0.1543
  10023SM   C6S13552   0.755   2.190   4.481  0.4167  0.2052 -0.6387
  10023SM   H6S13553   0.792   2.087   4.499 -3.3223 -1.5209 -1.7624
  10023SM   H6T13554   0.645   2.174   4.490  0.5760 -0.9596 -0.6341
  10023SM   C7S13555   0.812   2.253   4.606 -0.4931 -0.5270  0.1572
  10023SM   H7S13556   0.922   2.266   4.606 -0.2017 -2.4636 -1.0548
  10023SM   H7T13557   0.791   2.179   4.687  0.3070 -1.5024 -0.5092
  10023SM   C8S13558   0.747   2.386   4.652 -0.4488  0.0968  0.4614
  10023SM   H8S13559   0.639   2.363   4.667 -0.5950 -0.3217 -1.1402
  10023SM   H8T13560   0.756   2.466   4.576 -1.8172  0.4101  0.6006
  10023SM   C9S13561   0.810   2.444   4.783 -0.0995 -0.3907 -0.4423
  10023SM   H9S13562   0.743   2.525   4.820 -0.6216 -1.1007  0.2024
  10023SM   H9T13563   0.911   2.487   4.764  0.1514 -0.3475  0.9393
  10023SM  C10S13564   0.819   2.346   4.903 -0.5771  0.3924  0.3355
  10023SM  H10S13565   0.886   2.261   4.881 -0.1328  0.3600  1.7221
  10023SM  H10T13566   0.714   2.315   4.921 -1.0221  1.1000 -0.9133
  10023SM  C11S13567   0.886   2.413   5.026 -0.4454  0.1403  0.7806
  10023SM  H11S13568   0.827   2.502   5.056  0.3464  1.5230 -1.5314
  10023SM  H11T13569   0.983   2.448   4.984 -0.8206  0.2589 -0.0052
  10023SM  C12S13570   0.908   2.332   5.146  0.1074 -0.0998 -0.6567
  10023SM  H12S13571   0.984   2.256   5.117 -0.1305  0.7789 -4.0138
  10023SM  H12T13572   0.812   2.280   5.167  0.0880 -0.0646 -0.6589
  10023SM  C13S13573   0.950   2.418   5.270 -0.3349 -0.0214 -0.4684
  10023SM  H13S13574   0.890   2.511   5.255  0.5791  0.5534 -0.6491
  10023SM  H13T13575   1.047   2.467   5.245 -1.2232  2.5888  0.8276
  10023SM  C14S13576   0.944   2.335   5.397 -0.0092  0.1455 -0.1503
  10023SM  H14S13577   1.001   2.239   5.397 -2.3884 -1.3348 -0.0408
  10023SM  H14T13578   0.840   2.301   5.416  0.6970 -2.1983 -0.1615
  10023SM  C15S13579   1.005   2.408   5.518  0.4987 -0.4189  0.3248
  10023SM  H15S13580   0.956   2.506   5.532  1.3758  0.0103  0.4759
  10023SM  H15T13581   1.115   2.419   5.512  0.4435  0.0172  0.0791
  10023SM  C16S13582   0.986   2.336   5.659 -0.4964 -0.1219 -0.0084
  10023SM  H16S13583   1.066   2.259   5.670  0.2127  0.4024 -1.2167
  10023SM  H16T13584   0.887   2.287   5.657 -1.5290  1.8534 -2.0889
  10023SM  C17S13585   1.021   2.436   5.770  0.1511  0.3814 -0.3535
  10023SM  H17S13586   0.936   2.507   5.780  0.6814  0.9840 -0.0662
  10023SM  H17T13587   1.107   2.492   5.728  1.1827 -0.3099  0.7550
  10023SM  C18S13588   1.050   2.364   5.903  1.2488 -0.0308  0.1442
  10023SM  H18S13589   1.121   2.279   5.892 -2.1175 -3.3145  1.4054
  10023SM  H18T13590   0.959   2.317   5.946  0.4011  1.2717 -0.1689
  10023SM  H18U13591   1.095   2.432   5.978  1.8314 -0.1894 -0.0533
  10023SM   C1F13592   0.639   2.280   3.904 -0.0139  1.0918  0.9147
  10023SM    OF13593   0.679   2.200   3.819 -0.1105 -0.1584  0.1672
  10023SM   C2F13594   0.502   2.336   3.901  0.2589 -0.2591  0.1797
  10023SM   H2F13595   0.492   2.387   3.802 -1.1001 -0.3110  0.2743
  10023SM   H2G13596   0.487   2.404   3.986  2.4529 -0.5967  0.8932
  10023SM   C3F13597   0.396   2.228   3.902  0.2796  0.5925  0.2168
  10023SM   H3F13598   0.402   2.166   3.811 -0.2846 -0.2181  0.7184
  10023SM   H3G13599   0.300   2.284   3.893 -0.9186 -1.6957 -2.4469
  10023SM   C4F13600   0.400   2.138   4.022  0.0667  0.3246 -0.0923
  10023SM   H4F13601   0.480   2.064   4.002  0.3234  0.4953  0.2858
  10023SM   H4G13602   0.314   2.068   4.031  0.0683  0.4152  0.7672
  10023SM   C5F13603   0.395   2.210   4.159  0.0523 -0.2874 -0.2647
  10023SM   H5F13604   0.321   2.293   4.157 -2.3413 -2.3450 -1.1411
  10023SM   H5G13605   0.492   2.262   4.179 -0.9575  1.1096  1.3444
  10023SM   C6F13606   0.363   2.120   4.277 -0.1576 -0.1527  0.2787
  10023SM   H6F13607   0.447   2.047   4.275 -0.4785 -0.5194 -0.7566
  10023SM   H6G13608   0.259   2.085   4.262 -1.2098  1.6852  2.5487
  10023SM   C7F13609   0.358   2.225   4.386  0.2406 -0.5433 -0.0557
  10023SM   H7F13610   0.278   2.301   4.369  1.5004  0.7894 -0.1595
  10023SM   H7G13611   0.452   2.283   4.387 -0.8911  1.4576  2.3477
  10023SM   C8F13612   0.345   2.153   4.521  0.5703 -0.3804  0.0639
  10023SM   H8F13613   0.428   2.080   4.528  0.2485 -0.7147  0.4669
  10023SM   H8G13614   0.252   2.093   4.524  1.0669 -1.2383 -1.0988
  10023SM   C9F13615   0.355   2.252   4.640 -0.3360 -0.3979 -0.3665
  10023SM   H9F13616   0.263   2.314   4.640 -0.3120 -0.3524  0.6531
  10023SM   H9G13617   0.444   2.316   4.622 -0.6943 -0.0689 -1.0345
  10023SM  C10F13618   0.374   2.174   4.775  0.0838  0.1675 -0.1367
  10023SM  H10F13619   0.459   2.104   4.763  0.7171  1.1558 -1.7719
  10023SM  H10G13620   0.282   2.121   4.804 -0.8238  0.3982 -2.4182
  10023SM  C11F13621   0.411   2.273   4.887 -0.1832  0.5708  0.2350
  10023SM  H11F13622   0.319   2.332   4.907  0.0122  0.6011  1.1008
  10023SM  H11G13623   0.491   2.347   4.866 -0.5733  1.7947  2.6906
  10023SM  C12F13624   0.433   2.192   5.011  0.0536  0.4063 -0.3017
  10023SM  H12F13625   0.521   2.124   5.009 -1.6875 -1.9709 -0.8429
  10023SM  H12G13626   0.344   2.127   5.023  0.7020 -0.5581 -0.5726
  10023SM  C13F13627   0.456   2.283   5.136  0.2949 -0.5539 -0.0952
  10023SM  H13F13628   0.383   2.365   5.149  0.3127 -0.4128 -0.8602
  10023SM  H13G13629   0.557   2.326   5.119  0.5482 -1.6242 -1.4966
  10023SM  C14F13630   0.453   2.197   5.265 -0.2190  0.4438  0.3795
  10023SM  H14F13631   0.527   2.114   5.266  0.4301  1.0103  0.3222
  10023SM  H14G13632   0.362   2.137   5.281  0.9710 -1.4287  0.4129
  10023SM  C15F13633   0.474   2.272   5.396 -0.8593  0.0052 -0.4963
  10023SM  H15F13634   0.395   2.350   5.406 -1.2544 -0.5390  0.9201
  10023SM  H15G13635   0.574   2.321   5.390  0.0383 -1.3451  1.9246
  10023SM  C16F13636   0.482   2.184   5.522  0.4490 -0.9226  0.0992
  10023SM  H16F13637   0.567   2.113   5.511 -0.7015 -2.5254  1.1108
  10023SM  H16G13638   0.383   2.137   5.536 -0.6292  0.9148 -1.0296
  10023SM  C17F13639   0.512   2.269   5.644 -0.3010 -0.4066  0.4848
  10023SM  H17F13640   0.454   2.364   5.645 -1.8968 -1.3347  1.6357
  10023SM  H17G13641   0.617   2.304   5.637 -0.7670  0.6737 -1.8681
  10023SM  C18F13642   0.494   2.189   5.776 -0.2878 -0.5518  1.0653
  10023SM  H18F13643   0.574   2.112   5.777 -1.1556 -1.6327 -1.8117
  10023SM  H18G13644   0.399   2.132   5.777  1.0750 -2.9539  2.2105
  10023SM  C19F13645   0.493   2.282   5.900 -0.0225  0.2175 -0.1074
  10023SM  H19F13646   0.466   2.220   5.988 -0.6754 -0.9862 -1.1286
  10023SM  H19G13647   0.402   2.346   5.896  0.6438  1.3417  1.3800
  10023SM  C20F13648   0.624   2.357   5.917 -0.7270 -0.1626 -0.4118
  10023SM  H20F13649   0.646   2.435   5.841  0.1795  0.2314  0.2321
  10023SM  H20G13650   0.709   2.288   5.895  0.0123 -0.0199  1.7367
  10023SM  C21F13651   0.638   2.397   6.064 -0.0420 -0.4616  0.0040
  10023SM  H21F13652   0.740   2.441   6.074 -0.1981  0.7666 -2.8965
  10023SM  H21G13653   0.634   2.307   6.129 -1.6786 -0.5304 -0.1628
  10023SM  C22F13654   0.541   2.513   6.085  1.0992 -1.1629  0.0854
  10023SM  H22F13655   0.433   2.488   6.084  0.2832  1.8555  1.1315
  10023SM  H22G13656   0.544   2.587   6.002  2.5916 -0.3310  0.8344
  10023SM  C23F13657   0.575   2.588   6.212 -1.0412  0.1322  0.2994
  10023SM  H23F13658   0.521   2.685   6.220 -2.1042 -0.5535  2.0202
  10023SM  H23G13659   0.682   2.609   6.233 -0.0666 -1.8625 -2.2599
  10023SM  H23H13660   0.546   2.529   6.301 -0.1673  0.2485  0.6717
  101CHL1    C313661   2.587   0.033   8.500 -0.7219 -0.6665 -0.7359
  101CHL1    H313662   2.608   0.134   8.457 -0.9008  0.2305  1.1773
  101CHL1    O313663   2.582   0.048   8.640 -0.5084 -0.0722  0.7726
  101CHL1   H3'13664   2.565  -0.037   8.681 -0.2887  0.4087  1.9193
  101CHL1    C413665   2.456  -0.001   8.434  0.7008  0.1484 -0.7468
  101CHL1   H4A13666   2.416  -0.096   8.475 -0.5330  1.4537  1.2508
  101CHL1   H4B13667   2.384   0.080   8.461 -1.7792 -0.1060 -5.3805
  101CHL1    C513668   2.463  -0.012   8.282  0.7205  0.4804 -0.8673
  101CHL1    C613669   2.385   0.051   8.203 -0.8888 -0.1581 -0.2844
  101CHL1    H613670   2.310   0.120   8.245  0.8233  1.7961 -0.2447
  101CHL1    C713671   2.373   0.042   8.057  0.1697 -0.0232 -0.6329
  101CHL1   H7A13672   2.264   0.035   8.035  0.0618  1.6069 -0.7945
  101CHL1   H7B13673   2.418   0.128   8.003 -1.9076  0.3408 -1.9289
  101CHL1    C813674   2.440  -0.095   8.005 -0.0456 -0.7566  0.5673
  101CHL1    H813675   2.364  -0.172   8.029 -2.2248  1.6529  1.9327
  101CHL1   C1413676   2.459  -0.090   7.855 -0.6049 -0.8029 -0.0154
  101CHL1   H1413677   2.536  -0.013   7.830  0.5574 -1.9314 -0.0173
  101CHL1   C1513678   2.337  -0.055   7.766 -0.4888 -0.2776 -0.5057
  101CHL1  H15A13679   2.240  -0.101   7.794  0.2463 -1.2732  0.4919
  101CHL1  H15B13680   2.326   0.055   7.753  2.3322 -0.0010 -1.0726
  101CHL1   C1613681   2.368  -0.122   7.635  0.0248  0.2514  0.7748
  101CHL1  H16A13682   2.293  -0.201   7.611  0.0661  1.1074 -2.8154
  101CHL1  H16B13683   2.371  -0.042   7.558 -1.9149  0.5558  0.9639
  101CHL1   C1713684   2.510  -0.188   7.650  0.1579 -0.3352  0.4501
  101CHL1   H1713685   2.573  -0.100   7.625  1.6870 -1.2142  1.0555
  101CHL1   C1313686   2.527  -0.217   7.802 -0.0077 -0.3348  0.3863
  101CHL1   C1813687   2.457  -0.349   7.842 -0.1141  0.1125  0.1127
  101CHL1  H18A13688   2.518  -0.433   7.805 -0.6712 -1.0744  1.7342
  101CHL1  H18B13689   2.450  -0.371   7.951 -0.4568 -0.0291  0.0645
  101CHL1  H18C13690   2.356  -0.366   7.799  0.2422  0.7316 -0.9924
  101CHL1   C1213691   2.672  -0.224   7.855  0.2558 -0.4344 -0.7331
  101CHL1  H12A13692   2.707  -0.315   7.801 -1.0295 -0.0699 -2.2520
  101CHL1  H12B13693   2.738  -0.136   7.841 -1.9540  1.1810 -1.5106
  101CHL1   C1113694   2.664  -0.227   8.015 -0.1734 -1.2912 -0.1060
  101CHL1  H11A13695   2.634  -0.329   8.049 -1.7012 -1.2021 -1.0801
  101CHL1  H11B13696   2.767  -0.206   8.050 -0.8068  0.8946  0.5861
  101CHL1    C913697   2.581  -0.111   8.076  0.4517  0.1158 -0.2134
  101CHL1    H913698   2.631  -0.015   8.049  0.2103  0.5542  0.8377
  101CHL1   C1013699   2.567  -0.119   8.232  0.5918 -0.4867 -0.0452
  101CHL1   C1913700   2.515  -0.259   8.269 -0.0246  0.4303  0.6585
  101CHL1  H19A13701   2.514  -0.271   8.379 -0.0377  0.4686  0.6627
  101CHL1  H19B13702   2.410  -0.280   8.238  0.2844 -1.7640  0.9343
  101CHL1  H19C13703   2.587  -0.338   8.239 -1.2938 -0.7647  0.6665
  101CHL1    C113704   2.704  -0.088   8.299 -0.0976  0.7622  0.2409
  101CHL1   H1A13705   2.772  -0.175   8.291  2.2606  2.4513  0.9997
  101CHL1   H1B13706   2.743   0.004   8.250 -0.3652 -0.0175 -1.5302
  101CHL1    C213707   2.698  -0.063   8.451 -0.1314  0.2339 -0.1851
  101CHL1   H2A13708   2.797  -0.040   8.496 -1.1057  1.3585  1.5030
  101CHL1   H2B13709   2.660  -0.159   8.491  0.5074 -0.5769 -1.4530
  101CHL1   C2013710   2.531  -0.300   7.545 -0.1972  0.0932  0.0604
  101CHL1   H2013711   2.480  -0.394   7.575  1.4178 -0.2795  1.8876
  101CHL1   C2113712   2.685  -0.340   7.539 -0.5820 -0.2448 -0.2316
  101CHL1  H21A13713   2.714  -0.400   7.627  1.6689  2.8737  1.3674
  101CHL1  H21B13714   2.749  -0.249   7.536 -1.6404  0.5420  0.4153
  101CHL1  H21C13715   2.709  -0.401   7.449  0.8378 -1.3131  0.8298
  101CHL1   C2213716   2.489  -0.264   7.401  0.2466  0.7665  0.4637
  101CHL1  H22A13717   2.509  -0.350   7.333  1.0403  0.7615  0.6928
  101CHL1  H22B13718   2.379  -0.246   7.399  0.4198  2.0068  1.0040
  101CHL1   C2313719   2.567  -0.150   7.330 -0.2726 -0.7978 -0.2058
  101CHL1  H23A13720   2.557  -0.058   7.392  3.3618 -1.5516  1.8393
  101CHL1  H23B13721   2.672  -0.172   7.301 -0.6498 -0.6745 -1.7177
  101CHL1   C2413722   2.508  -0.140   7.191  0.5249  0.0403  1.0759
  101CHL1  H24A13723   2.516  -0.237   7.137 -0.7368  0.5568 -0.0956
  101CHL1  H24B13724   2.402  -0.110   7.202 -0.1105 -1.8550  0.5796
  101CHL1   C2513725   2.573  -0.033   7.104 -0.6476 -0.4897  0.2383
  101CHL1   H2513726   2.684  -0.034   7.113 -0.6187  0.0656 -0.0178
  101CHL1   C2613727   2.539  -0.065   6.953 -0.5890 -0.5395 -0.6858
  101CHL1  H26A13728   2.585  -0.155   6.907 -0.4631 -1.1830  0.6499
  101CHL1  H26B13729   2.429  -0.072   6.938 -0.5103 -0.0636 -1.5429
  101CHL1  H26C13730   2.578   0.025   6.900 -0.3249  0.5814  1.3361
  101CHL1   C2713731   2.531   0.113   7.140  0.2337 -0.7465 -0.4135
  101CHL1  H27A13732   2.582   0.194   7.085 -3.4799  3.1706  1.3192
  101CHL1  H27B13733   2.423   0.129   7.116  0.4020  2.2087  0.4939
  101CHL1  H27C13734   2.557   0.130   7.247 -0.4483 -1.1856 -0.1652
  102CHL1    C313735   3.961   0.314   8.411 -0.0634  0.3399  0.5348
  102CHL1    H313736   3.854   0.325   8.384  0.1625  0.3754 -0.3817
  102CHL1    O313737   3.978   0.315   8.553 -0.5937 -0.4919  0.0185
  102CHL1   H3'13738   3.950   0.233   8.594 -3.0154  1.4002  2.5266
  102CHL1    C413739   4.007   0.167   8.366  0.2562  0.1826  0.2198
  102CHL1   H4A13740   4.111   0.162   8.403 -0.0953  1.4440  1.4719
  102CHL1   H4B13741   3.949   0.087   8.417 -0.7083  0.1903 -0.8371
  102CHL1    C513742   4.010   0.154   8.218  0.7118  0.0373 -0.3702
  102CHL1    C613743   3.947   0.045   8.161  0.2397  0.1203  0.6476
  102CHL1    H613744   3.891  -0.025   8.224  1.8244 -1.4964  0.3466
  102CHL1    C713745   3.945   0.018   8.017 -0.3260 -0.4292 -0.0119
  102CHL1   H7A13746   3.980  -0.087   8.011  0.4788 -0.2627  1.3217
  102CHL1   H7B13747   3.842   0.027   7.976 -0.2533  2.7663  0.2316
  102CHL1    C813748   4.041   0.111   7.934  0.5136 -0.3443 -0.0997
  102CHL1    H813749   4.145   0.073   7.936  1.0781  1.0948 -0.4293
  102CHL1   C1413750   3.986   0.100   7.792  0.8746  0.2531  0.8798
  102CHL1   H1413751   3.877   0.119   7.801  0.2750 -2.2504 -0.2915
  102CHL1   C1513752   3.974  -0.039   7.724  0.9194  0.4545  0.4260
  102CHL1  H15A13753   4.068  -0.095   7.739  1.1561  0.6317 -0.3840
  102CHL1  H15B13754   3.897  -0.106   7.768 -0.9767  1.4283 -1.2391
  102CHL1   C1613755   3.957  -0.014   7.578  0.7326  0.0919 -0.7363
  102CHL1  H16A13756   4.031  -0.061   7.510  0.7872 -1.7827  0.5410
  102CHL1  H16B13757   3.858  -0.052   7.544  1.2589 -0.6880 -1.4278
  102CHL1   C1713758   3.962   0.147   7.563 -0.5246  0.3550 -1.1155
  102CHL1   H1713759   3.858   0.179   7.588 -0.0412 -0.2147  2.1304
  102CHL1   C1313760   4.042   0.190   7.691  0.2984 -0.0353 -0.0712
  102CHL1   C1813761   4.189   0.153   7.667  0.0676  0.2833  0.1871
  102CHL1  H18A13762   4.250   0.185   7.754 -0.3239 -1.0045  0.9601
  102CHL1  H18B13763   4.223   0.053   7.633  1.6324  1.2887 -1.3681
  102CHL1  H18C13764   4.231   0.216   7.585  2.2398 -0.9464  0.3096
  102CHL1   C1213765   4.038   0.340   7.739 -0.1096  0.1696 -0.5522
  102CHL1  H12A13766   4.101   0.406   7.675  1.2124  0.4591  0.9946
  102CHL1  H12B13767   3.932   0.374   7.738 -0.0751  0.3890 -2.6396
  102CHL1   C1113768   4.092   0.360   7.878 -0.1674 -0.4178 -0.6741
  102CHL1  H11A13769   4.202   0.343   7.886 -0.0817  0.3523 -0.0602
  102CHL1  H11B13770   4.073   0.462   7.919 -2.0596  0.9914 -4.5497
  102CHL1    C913771   4.028   0.256   7.979  0.2197  0.0716  0.2872
  102CHL1    H913772   3.922   0.288   7.984  0.3079  0.4444 -0.2301
  102CHL1   C1013773   4.074   0.266   8.129 -1.0318 -0.1809  0.1755
  102CHL1   C1913774   4.235   0.247   8.138  0.2777  0.1318  0.0011
  102CHL1  H19A13775   4.258   0.141   8.114 -2.4976 -1.4759  3.5677
  102CHL1  H19B13776   4.281   0.324   8.072  0.7608 -0.4553 -0.3574
  102CHL1  H19C13777   4.280   0.261   8.239 -0.7839 -0.8479  0.6324
  102CHL1    C113778   4.038   0.406   8.182 -0.3626 -0.2461  0.4091
  102CHL1   H1A13779   4.102   0.485   8.137  0.7541 -1.5188 -0.3159
  102CHL1   H1B13780   3.931   0.430   8.162  0.3328  2.6474 -0.3034
  102CHL1    C213781   4.040   0.427   8.339 -0.2732  0.0722 -0.2105
  102CHL1   H2A13782   3.994   0.526   8.359 -0.8496  0.3822 -2.6816
  102CHL1   H2B13783   4.146   0.431   8.373 -0.7961 -0.3965  1.5295
  102CHL1   C2013784   4.003   0.194   7.422  0.2229  0.7742  0.0063
  102CHL1   H2013785   4.096   0.141   7.395  0.3916  0.5948  0.9054
  102CHL1   C2113786   4.020   0.348   7.422 -0.2157  0.0844 -0.2753
  102CHL1  H21A13787   4.103   0.382   7.488  0.1545 -1.2331 -0.0317
  102CHL1  H21B13788   3.921   0.383   7.458 -0.5327 -0.1901 -0.8659
  102CHL1  H21C13789   4.032   0.395   7.323 -0.2424 -1.4345 -1.0246
  102CHL1   C2213790   3.892   0.154   7.314 -0.0820  0.7257  0.4492
  102CHL1  H22A13791   3.889   0.043   7.308 -0.4257  0.7582  0.0189
  102CHL1  H22B13792   3.792   0.190   7.345 -0.7619  0.8072 -1.6751
  102CHL1   C2313793   3.911   0.202   7.170 -0.0073 -0.1670  0.4703
  102CHL1  H23A13794   3.831   0.168   7.101  1.1538 -0.3339 -0.8439
  102CHL1  H23B13795   3.904   0.312   7.160  1.2645 -0.0544  0.6016
  102CHL1   C2413796   4.040   0.148   7.103  0.2076  0.2428  0.1040
  102CHL1  H24A13797   4.133   0.170   7.160 -0.5600  0.1883  1.4287
  102CHL1  H24B13798   4.022   0.039   7.114 -0.6663  0.3693 -0.0323
  102CHL1   C2513799   4.063   0.184   6.957 -0.5813  0.0580 -0.0572
  102CHL1   H2513800   3.973   0.163   6.896 -0.6121  2.8726 -1.1352
  102CHL1   C2613801   4.107   0.333   6.939 -0.2792  0.3406 -0.4507
  102CHL1  H26A13802   4.209   0.361   6.975 -0.2121 -0.7139  0.2215
  102CHL1  H26B13803   4.083   0.372   6.838 -0.6132 -0.0659 -0.5291
  102CHL1  H26C13804   4.052   0.393   7.014  1.0801  0.2067  0.6989
  102CHL1   C2713805   4.171   0.096   6.896 -0.3030 -0.3524 -0.2251
  102CHL1  H27A13806   4.266   0.123   6.947 -0.9784  0.4651  0.6389
  102CHL1  H27B13807   4.148  -0.013   6.904 -0.4424 -0.2449  1.1774
  102CHL1  H27C13808   4.165   0.132   6.791 -2.6957 -3.6357 -1.4012
  103CHL1    C313809   5.519   6.401   8.060  0.0711  0.2028 -0.2613
  103CHL1    H313810   5.422   6.441   8.024  0.1468  1.0241  0.4068
  103CHL1    O313811   5.528   6.402   8.201 -0.0422  0.2626  0.4593
  103CHL1   H3'13812   5.615   6.367   8.221  0.0898  0.9758  1.1735
  103CHL1    C413813   5.534   6.259   8.011 -0.5789  0.1194  1.0688
  103CHL1   H4A13814   5.627   6.218   8.058 -0.4534 -2.8243 -1.4490
  103CHL1   H4B13815   5.458   6.189   8.053 -0.4679 -0.3491  0.4941
  103CHL1    C513816   5.572   6.248   7.857 -0.0265 -0.7991  0.8042
  103CHL1    C613817   5.492   6.175   7.774  0.5753 -0.3355 -0.2773
  103CHL1    H613818   5.423   6.108   7.826  1.1749 -1.9127 -1.4318
  103CHL1    C713819   5.507   6.166   7.628 -0.2250  0.2236  0.4733
  103CHL1   H7A13820   5.519   6.058   7.604 -0.3653 -0.2458  2.3159
  103CHL1   H7B13821   5.414   6.204   7.582 -0.3100  1.5226  1.6426
  103CHL1    C813822   5.637   6.240   7.575  0.6535 -0.1206 -0.0222
  103CHL1    H813823   5.717   6.170   7.606 -1.0177 -1.1759  2.1971
  103CHL1   C1413824   5.639   6.253   7.421 -0.0798 -0.4352 -0.1153
  103CHL1   H1413825   5.551   6.318   7.405 -0.0311 -0.4228 -0.3359
  103CHL1   C1513826   5.618   6.133   7.327  0.7644 -0.6693 -0.1400
  103CHL1  H15A13827   5.702   6.064   7.347  1.2508 -0.0656 -0.0531
  103CHL1  H15B13828   5.517   6.087   7.334 -0.9789  2.9677  1.4483
  103CHL1   C1613829   5.623   6.204   7.192  0.4178  0.2198  0.6325
  103CHL1  H16A13830   5.633   6.131   7.109  0.9620  1.1324 -0.1219
  103CHL1  H16B13831   5.523   6.245   7.169 -0.2091 -2.8607 -3.2269
  103CHL1   C1713832   5.718   6.326   7.206  0.0059  0.5896  0.2383
  103CHL1   H1713833   5.657   6.417   7.190 -3.4941 -1.3170  1.5644
  103CHL1   C1313834   5.757   6.328   7.359  0.3479 -0.9725 -0.1757
  103CHL1   C1813835   5.890   6.245   7.369  0.1575 -0.3299 -0.6293
  103CHL1  H18A13836   5.889   6.155   7.303 -0.6713 -2.6037  2.2980
  103CHL1  H18B13837   5.978   6.309   7.349 -1.1283  1.3082 -1.2339
  103CHL1  H18C13838   5.898   6.200   7.470 -0.8987  0.3934 -0.2094
  103CHL1   C1213839   5.768   6.466   7.424  0.1254 -0.5566  0.2690
  103CHL1  H12A13840   5.865   6.512   7.397  0.4485 -0.8153  0.9564
  103CHL1  H12B13841   5.682   6.528   7.392 -0.6986 -0.9362  1.6248
  103CHL1   C1113842   5.772   6.456   7.578  0.0818  0.2041  0.2730
  103CHL1  H11A13843   5.870   6.414   7.607  0.6363  2.4209  1.8382
  103CHL1  H11B13844   5.774   6.562   7.612  1.0543  0.4874 -0.6182
  103CHL1    C913845   5.662   6.378   7.653  0.3788  0.4265  0.4282
  103CHL1    H913846   5.571   6.438   7.636  0.8801  1.8026  2.2750
  103CHL1   C1013847   5.676   6.358   7.803 -0.1040  1.0697 -0.5033
  103CHL1   C1913848   5.812   6.301   7.828 -0.5172 -0.2000  0.5220
  103CHL1  H19A13849   5.847   6.229   7.751  0.6359 -2.2252  2.8284
  103CHL1  H19B13850   5.885   6.384   7.816 -0.4605 -0.3114  0.0606
  103CHL1  H19C13851   5.818   6.247   7.924 -2.0981 -1.1650  0.1235
  103CHL1    C113852   5.650   6.498   7.870  0.0666  0.8044  0.5635
  103CHL1   H1A13853   5.729   6.565   7.830 -0.6452  1.5138  0.3217
  103CHL1   H1B13854   5.553   6.532   7.829  0.9229  1.8757 -0.6801
  103CHL1    C213855   5.637   6.490   8.020 -0.0162  0.5742  0.0270
  103CHL1   H2A13856   5.627   6.591   8.065 -0.4236  0.0097  1.2266
  103CHL1   H2B13857   5.723   6.433   8.061 -0.6649 -0.4160  0.0619
  103CHL1   C2013858   5.823   6.331   7.096 -0.2235  0.3207 -1.0479
  103CHL1   H2013859   5.896   6.249   7.111 -0.7951 -0.3118 -1.6120
  103CHL1   C2113860   5.891   6.465   7.114  0.7969  0.0617  0.0393
  103CHL1  H21A13861   5.815   6.546   7.119  1.0991  0.2690  2.3449
  103CHL1  H21B13862   5.964   6.485   7.032  2.2973  0.8465  1.5035
  103CHL1  H21C13863   5.951   6.479   7.206  2.1645 -0.2615 -0.7709
  103CHL1   C2213864   5.771   6.317   6.954  0.1026  0.4884 -0.3281
  103CHL1  H22A13865   5.681   6.252   6.945 -0.2525  0.9905 -0.4792
  103CHL1  H22B13866   5.728   6.413   6.918  1.2371  0.2775 -2.4014
  103CHL1   C2313867   5.878   6.280   6.860  0.3500  0.3665 -0.1789
  103CHL1  H23A13868   5.937   6.374   6.854 -2.4843  2.2130 -0.9913
  103CHL1  H23B13869   5.944   6.203   6.906 -1.4921 -0.9700  0.3671
  103CHL1   C2413870   5.823   6.247   6.728  0.2108  0.5133  0.9506
  103CHL1  H24A13871   5.755   6.160   6.737 -0.5706  0.8770 -0.9371
  103CHL1  H24B13872   5.771   6.338   6.691  1.4361 -0.0576 -2.5263
  103CHL1   C2513873   5.939   6.203   6.634 -0.0179  0.6880 -0.2441
  103CHL1   H2513874   6.022   6.277   6.632 -0.1670  0.8500 -1.5023
  103CHL1   C2613875   6.000   6.061   6.674 -0.0989  0.1332 -0.4955
  103CHL1  H26A13876   5.924   5.984   6.647 -0.5203 -0.2243  1.5166
  103CHL1  H26B13877   6.092   6.046   6.614 -0.5453 -0.9071 -0.9338
  103CHL1  H26C13878   6.021   6.067   6.783  1.0744 -0.0904 -0.7020
  103CHL1   C2713879   5.883   6.190   6.494  0.1407  0.5566  0.3079
  103CHL1  H27A13880   5.966   6.146   6.436 -0.6105 -1.7418  0.8851
  103CHL1  H27B13881   5.797   6.121   6.482  2.2881 -2.0962 -0.8715
  103CHL1  H27C13882   5.858   6.292   6.457  2.7103  2.1092  2.5309
  104CHL1    C313883   0.416   5.524   8.043  0.7313  0.4433  0.2071
  104CHL1    H313884   0.381   5.629   8.042  1.3477  0.6536  0.2127
  104CHL1    O313885   0.490   5.490   8.158 -0.3409 -0.2298  0.0406
  104CHL1   H3'13886   0.483   5.395   8.161  0.1773 -0.2457  1.0570
  104CHL1    C413887   0.295   5.431   8.041 -0.4022 -0.4732  0.4441
  104CHL1   H4A13888   0.325   5.325   8.047  2.6311  0.2982  0.2714
  104CHL1   H4B13889   0.236   5.464   8.130 -1.8816  0.4686 -0.8216
  104CHL1    C513890   0.217   5.425   7.907 -0.2810  0.8096 -0.0091
  104CHL1    C613891   0.087   5.442   7.908  0.2148  0.1214  0.5544
  104CHL1    H613892   0.037   5.470   8.002  1.4505  0.8443  1.0132
  104CHL1    C713893   0.013   5.449   7.774  0.0975 -0.2921 -0.2554
  104CHL1   H7A13894  -0.072   5.378   7.783  0.9015 -1.3249 -0.6189
  104CHL1   H7B13895  -0.035   5.547   7.753  0.7647  0.1951  0.4200
  104CHL1    C813896   0.091   5.396   7.649 -0.4426  0.0885  0.0337
  104CHL1    H813897   0.098   5.285   7.660 -0.6194  0.1404  0.7190
  104CHL1   C1413898   0.004   5.426   7.524  0.1470  0.6275 -0.5214
  104CHL1   H1413899   0.007   5.537   7.512 -1.2945  0.9346  1.5102
  104CHL1   C1513900  -0.141   5.369   7.528 -0.3598 -0.3858  0.0973
  104CHL1  H15A13901  -0.132   5.263   7.559 -1.4186 -0.9942 -1.5322
  104CHL1  H15B13902  -0.209   5.416   7.602  1.9085  1.3245  1.2225
  104CHL1   C1613903  -0.175   5.360   7.378 -0.9542  0.0520 -0.1020
  104CHL1  H16A13904  -0.191   5.252   7.358 -1.6880 -0.0565  0.9713
  104CHL1  H16B13905  -0.269   5.413   7.354 -1.0327  1.2951  2.5602
  104CHL1   C1713906  -0.043   5.398   7.302 -0.3647 -0.1728 -0.6252
  104CHL1   H1713907  -0.044   5.509   7.291  0.0902  0.2013  2.3694
  104CHL1   C1313908   0.079   5.381   7.397 -0.2122  0.0859  0.0317
  104CHL1   C1813909   0.114   5.234   7.404  0.0638 -0.2351  0.1149
  104CHL1  H18A13910   0.026   5.166   7.401 -0.8267  0.9190 -1.3346
  104CHL1  H18B13911   0.176   5.201   7.317  0.3467  0.6549 -0.0295
  104CHL1  H18C13912   0.181   5.207   7.489 -0.4295  0.8591  0.8717
  104CHL1   C1213913   0.210   5.463   7.387 -0.7843  0.6891  0.8600
  104CHL1  H12A13914   0.262   5.426   7.296 -0.9928  0.4211  0.8477
  104CHL1  H12B13915   0.176   5.566   7.364 -2.2667  0.1667  0.6203
  104CHL1   C1113916   0.301   5.442   7.513 -0.1740 -0.6603  0.9595
  104CHL1  H11A13917   0.344   5.340   7.508  1.5012  0.0156  1.1500
  104CHL1  H11B13918   0.387   5.511   7.516  1.7682 -2.9434  0.2126
  104CHL1    C913919   0.225   5.465   7.648 -0.5286  0.0763  0.2683
  104CHL1    H913920   0.199   5.573   7.651 -3.2586 -0.4728 -0.7985
  104CHL1   C1013921   0.304   5.426   7.773 -0.5180  0.2541 -0.6987
  104CHL1   C1913922   0.349   5.271   7.762  0.4882 -0.1856 -0.5206
  104CHL1  H19A13923   0.269   5.201   7.729  0.1083 -0.7873  1.5071
  104CHL1  H19B13924   0.425   5.257   7.682  1.0040 -2.0645  0.2302
  104CHL1  H19C13925   0.411   5.234   7.846  2.6842  2.1427 -0.9935
  104CHL1    C113926   0.440   5.516   7.782  0.1602 -0.0082  0.1012
  104CHL1   H1A13927   0.513   5.487   7.703  0.0249 -2.8360  0.9149
  104CHL1   H1B13928   0.410   5.623   7.773  1.5686  0.6991  2.7132
  104CHL1    C213929   0.509   5.495   7.917 -0.2282  0.1203 -0.1007
  104CHL1   H2A13930   0.601   5.555   7.937  0.4229 -0.9916  0.2922
  104CHL1   H2B13931   0.547   5.391   7.918 -1.6839 -0.4706 -1.5152
  104CHL1   C2013932  -0.042   5.329   7.164 -0.0099 -0.3977  0.2148
  104CHL1   H2013933  -0.034   5.219   7.178 -0.4704 -0.4721 -0.0660
  104CHL1   C2113934   0.079   5.383   7.092  0.0928  0.6605 -0.2774
  104CHL1  H21A13935   0.159   5.324   7.141 -1.4191  0.7971  2.5586
  104CHL1  H21B13936   0.083   5.494   7.095 -1.5297  0.7095  0.7771
  104CHL1  H21C13937   0.081   5.346   6.987  0.2788 -0.4101  0.0968
  104CHL1   C2213938  -0.175   5.351   7.085 -0.1290 -0.2314  0.3303
  104CHL1  H22A13939  -0.266   5.336   7.148  1.5100 -2.4238  2.3394
  104CHL1  H22B13940  -0.198   5.456   7.057 -2.2794 -0.2495  1.7653
  104CHL1   C2313941  -0.189   5.263   6.964  0.1131 -1.1044  0.1520
  104CHL1  H23A13942  -0.104   5.298   6.903  1.5453 -2.7865  1.1027
  104CHL1  H23B13943  -0.171   5.158   6.993 -0.6296 -1.2337  0.1863
  104CHL1   C2413944  -0.329   5.286   6.902 -0.3025  0.6265  0.0359
  104CHL1  H24A13945  -0.411   5.243   6.963 -0.4941 -0.6237 -1.0712
  104CHL1  H24B13946  -0.354   5.395   6.897 -0.9249  0.4477 -3.3680
  104CHL1   C2513947  -0.342   5.234   6.755 -0.0790  0.8548 -0.3806
  104CHL1   H2513948  -0.305   5.129   6.764 -2.3308  0.1879  2.4112
  104CHL1   C2613949  -0.489   5.221   6.707  0.0254  0.1613 -0.3067
  104CHL1  H26A13950  -0.554   5.217   6.797  0.3973  1.5828  0.0430
  104CHL1  H26B13951  -0.521   5.320   6.668  2.3075  1.6600  1.3458
  104CHL1  H26C13952  -0.503   5.138   6.634 -0.0070 -0.3416  0.2597
  104CHL1   C2713953  -0.260   5.312   6.649 -0.3969  0.6264  0.0422
  104CHL1  H27A13954  -0.292   5.270   6.551 -0.1795 -0.2041  0.3190
  104CHL1  H27B13955  -0.286   5.418   6.670  0.1250  0.1064  4.0022
  104CHL1  H27C13956  -0.151   5.294   6.655 -0.3460  1.3597  1.9408
  105CHL1    C313957   5.315   0.603   7.956  0.0067 -0.2435  0.7463
  105CHL1    H313958   5.212   0.643   7.965 -0.6193 -2.1698  2.8130
  105CHL1    O313959   5.372   0.611   8.086  0.6765 -0.1249 -0.7587
  105CHL1   H3'13960   5.451   0.558   8.075  0.4638 -0.1224 -2.6063
  105CHL1    C413961   5.300   0.462   7.908 -0.0321  0.2134 -0.3824
  105CHL1   H4A13962   5.392   0.402   7.926 -0.2675  0.3259  1.3922
  105CHL1   H4B13963   5.219   0.422   7.972  0.1720 -0.5086 -0.5731
  105CHL1    C513964   5.253   0.444   7.766 -0.8642 -0.0265  0.4244
  105CHL1    C613965   5.155   0.367   7.730  0.9468 -0.2299  0.1098
  105CHL1    H613966   5.096   0.318   7.809 -0.5088  1.5971  0.2281
  105CHL1    C713967   5.112   0.342   7.583 -0.1307  0.0809  0.3363
  105CHL1   H7A13968   5.095   0.234   7.566 -0.1810 -0.3242  2.6167
  105CHL1   H7B13969   5.020   0.402   7.565  0.7587  1.1031 -1.0154
  105CHL1    C813970   5.224   0.380   7.479 -0.5870 -0.2409  0.4778
  105CHL1    H813971   5.308   0.307   7.476  0.6250  1.0875  0.9718
  105CHL1   C1413972   5.168   0.402   7.341  0.0264 -0.2428  0.0808
  105CHL1   H1413973   5.098   0.487   7.355  0.3744  0.1339 -0.4171
  105CHL1   C1513974   5.093   0.282   7.292 -0.5268  0.2347  0.2295
  105CHL1  H15A13975   5.151   0.192   7.323 -0.3906 -0.3111 -1.5424
  105CHL1  H15B13976   4.992   0.258   7.334  0.4472 -1.4518  1.8014
  105CHL1   C1613977   5.080   0.305   7.142 -0.0436 -0.2528 -0.5196
  105CHL1  H16A13978   5.120   0.221   7.081  0.7626  0.0925 -0.4813
  105CHL1  H16B13979   4.974   0.320   7.110  0.1787 -0.6585 -1.4833
  105CHL1   C1713980   5.167   0.430   7.113  0.5660  0.2277  0.3507
  105CHL1   H1713981   5.094   0.514   7.119  2.3336  1.8195  0.7115
  105CHL1   C1313982   5.264   0.446   7.231  0.1173 -0.1928  0.0344
  105CHL1   C1813983   5.386   0.349   7.216 -0.1651  0.6906  0.5899
  105CHL1  H18A13984   5.352   0.249   7.184 -0.4383  1.2929 -1.1283
  105CHL1  H18B13985   5.459   0.374   7.136 -1.0187 -0.3704 -0.5660
  105CHL1  H18C13986   5.438   0.323   7.310  0.7056  1.8040  0.4393
  105CHL1   C1213987   5.313   0.581   7.268 -0.3649 -0.1356 -0.2311
  105CHL1  H12A13988   5.401   0.597   7.201 -0.7424 -0.2983 -0.7746
  105CHL1  H12B13989   5.239   0.661   7.248  0.0352 -0.3196 -2.8261
  105CHL1   C1113990   5.371   0.580   7.413  0.4238  0.0696 -0.3961
  105CHL1  H11A13991   5.472   0.536   7.399  0.1103 -0.7078 -0.2925
  105CHL1  H11B13992   5.391   0.687   7.431 -1.0171  0.2286  0.4559
  105CHL1    C913993   5.283   0.511   7.522  0.4721 -0.6167 -0.2363
  105CHL1    H913994   5.195   0.578   7.523  0.6250 -0.4023 -0.8020
  105CHL1   C1013995   5.340   0.527   7.664 -0.0454 -0.3609 -0.2299
  105CHL1   C1913996   5.477   0.466   7.655 -0.0246 -0.0834 -0.5002
  105CHL1  H19A13997   5.466   0.356   7.649  3.0013 -0.5888  1.0715
  105CHL1  H19B13998   5.551   0.513   7.587  1.3690  1.5150  1.9389
  105CHL1  H19C13999   5.530   0.485   7.751 -2.3761  0.7756  0.7098
  105CHL1    C114000   5.360   0.676   7.715  0.3112  0.0394  0.3471
  105CHL1   H1A14001   5.441   0.725   7.657  1.0169 -0.4966  0.8585
  105CHL1   H1B14002   5.267   0.728   7.684  1.4885  1.8780 -0.2240
  105CHL1    C214003   5.394   0.691   7.858  0.6245 -0.3145  0.1256
  105CHL1   H2A14004   5.380   0.798   7.883 -2.7650 -1.4257  3.8582
  105CHL1   H2B14005   5.500   0.660   7.875  0.2993 -1.9107 -0.5886
  105CHL1   C2014006   5.222   0.434   6.967  0.4035 -0.2408 -0.1552
  105CHL1   H2014007   5.308   0.365   6.959  1.9318  1.5727 -0.2015
  105CHL1   C2114008   5.283   0.571   6.934 -0.2392  0.0893 -0.6639
  105CHL1  H21A14009   5.214   0.656   6.950  0.4643  0.6028 -0.2939
  105CHL1  H21B14010   5.309   0.572   6.826  1.9733 -1.9624 -0.2545
  105CHL1  H21C14011   5.369   0.587   7.003 -0.3508 -0.3255 -0.4259
  105CHL1   C2214012   5.120   0.389   6.857  0.0698  0.2737  0.2959
  105CHL1  H22A14013   5.062   0.299   6.889  0.0673  0.4405  0.7731
  105CHL1  H22B14014   5.045   0.470   6.860 -0.8482 -0.5838  1.5951
  105CHL1   C2314015   5.174   0.380   6.718  0.1846  0.0740  0.0350
  105CHL1  H23A14016   5.192   0.482   6.676 -0.2023  2.3166  4.7336
  105CHL1  H23B14017   5.259   0.309   6.718 -1.5485 -2.0949  0.1589
  105CHL1   C2414018   5.072   0.315   6.616 -0.2731  0.1387 -0.2249
  105CHL1  H24A14019   5.049   0.216   6.660 -0.7221  0.1475 -0.4360
  105CHL1  H24B14020   4.979   0.376   6.617 -0.1491  0.4014  2.0615
  105CHL1   C2514021   5.109   0.304   6.465 -0.2118  0.2997 -0.0375
  105CHL1   H2514022   5.130   0.408   6.430 -1.1118 -0.6259 -3.8920
  105CHL1   C2614023   5.238   0.221   6.449  0.2924 -0.1220  0.2193
  105CHL1  H26A14024   5.247   0.181   6.346  0.7270 -1.1143  0.6267
  105CHL1  H26B14025   5.329   0.277   6.481  1.3750 -1.1598 -0.9618
  105CHL1  H26C14026   5.244   0.133   6.517  1.3240 -0.2928 -0.0715
  105CHL1   C2714027   4.999   0.250   6.388 -0.8227  0.1659  0.3121
  105CHL1  H27A14028   5.037   0.242   6.284 -0.4863  0.0991  0.4411
  105CHL1  H27B14029   4.983   0.148   6.430  1.2810 -1.4306 -2.3709
  105CHL1  H27C14030   4.913   0.321   6.390  0.6795  2.0362  1.8852
  106CHL1    C314031   0.732   4.269   8.072  0.1946 -0.4801 -0.3082
  106CHL1    H314032   0.633   4.219   8.073  1.2486 -2.9337 -3.0402
  106CHL1    O314033   0.752   4.333   8.193 -0.2066 -0.0830 -0.6202
  106CHL1   H3'14034   0.810   4.268   8.233 -0.4151 -0.0451 -0.2501
  106CHL1    C414035   0.858   4.166   8.047 -0.3177 -0.1359  0.0376
  106CHL1   H4A14036   0.950   4.229   8.046 -0.7396  0.5275  1.1444
  106CHL1   H4B14037   0.869   4.100   8.135  2.5249  1.5341  1.0722
  106CHL1    C514038   0.835   4.091   7.922 -0.1039 -0.3520 -0.8555
  106CHL1    C614039   0.841   3.954   7.912 -0.7492 -0.4057  0.0403
  106CHL1    H614040   0.851   3.901   8.008 -0.1303 -0.3551  0.0048
  106CHL1    C714041   0.837   3.878   7.785 -0.5034 -0.1933  0.6615
  106CHL1   H7A14042   0.923   3.807   7.779 -0.2669  0.0242  1.3212
  106CHL1   H7B14043   0.751   3.808   7.780 -0.8801  0.3754 -1.8653
  106CHL1    C814044   0.841   3.971   7.660 -0.1519 -0.5128  0.1745
  106CHL1    H814045   0.946   4.004   7.648 -0.1411 -0.3098  0.7645
  106CHL1   C1414046   0.792   3.899   7.536 -0.1043  0.2344 -0.4417
  106CHL1   H1414047   0.684   3.873   7.542 -0.2521  1.0654  1.0388
  106CHL1   C1514048   0.865   3.773   7.507 -0.4049 -0.2292 -0.0589
  106CHL1  H15A14049   0.972   3.802   7.511 -0.4733 -0.1459  1.7043
  106CHL1  H15B14050   0.846   3.680   7.564 -0.9218  0.5214  1.0291
  106CHL1   C1614051   0.818   3.742   7.358 -0.1534  0.3734  0.0275
  106CHL1  H16A14052   0.909   3.705   7.305 -0.9807 -0.4403 -0.8757
  106CHL1  H16B14053   0.751   3.654   7.349  0.8716 -0.4202 -0.0811
  106CHL1   C1714054   0.754   3.872   7.298 -0.5463  0.5333  0.0786
  106CHL1   H1714055   0.644   3.858   7.311 -0.2136 -2.0518  0.5832
  106CHL1   C1314056   0.788   3.983   7.401  0.2222 -0.8139 -0.6584
  106CHL1   C1814057   0.923   4.050   7.362  0.4989  0.0589 -0.5410
  106CHL1  H18A14058   0.990   3.973   7.317  0.4305 -0.0280 -0.4931
  106CHL1  H18B14059   0.917   4.147   7.307 -0.1455  0.5165  0.3171
  106CHL1  H18C14060   0.979   4.084   7.451  1.4690  0.0364 -1.1246
  106CHL1   C1214061   0.689   4.097   7.425  0.6299  0.1422  0.2986
  106CHL1  H12A14062   0.678   4.161   7.334 -0.6665 -1.3406 -0.6358
  106CHL1  H12B14063   0.586   4.055   7.433  0.2696  0.9403  0.0346
  106CHL1   C1114064   0.724   4.181   7.547 -0.0798  0.5792 -0.8618
  106CHL1  H11A14065   0.815   4.241   7.526 -0.7143  0.8992 -2.8184
  106CHL1  H11B14066   0.634   4.244   7.567 -1.4462 -1.6537  0.5073
  106CHL1    C914067   0.755   4.096   7.674 -0.1828  0.9360 -0.4762
  106CHL1    H914068   0.655   4.057   7.703 -0.2916  2.2774  1.1028
  106CHL1   C1014069   0.810   4.179   7.800 -0.8421  0.0602 -0.4531
  106CHL1   C1914070   0.948   4.246   7.769  0.4668 -0.0673  0.3961
  106CHL1  H19A14071   0.979   4.315   7.850  1.3028  0.5524 -0.4401
  106CHL1  H19B14072   1.028   4.172   7.747  1.1918  1.2640 -1.6444
  106CHL1  H19C14073   0.951   4.313   7.681  0.1410  0.2148  0.5980
  106CHL1    C114074   0.705   4.288   7.830  0.1599 -0.2087 -0.0415
  106CHL1   H1A14075   0.704   4.352   7.738 -1.3898 -0.4559 -0.2094
  106CHL1   H1B14076   0.607   4.241   7.847 -0.2989  0.1548 -1.5151
  106CHL1    C214077   0.725   4.371   7.959 -0.4966 -0.0970 -0.3116
  106CHL1   H2A14078   0.638   4.433   7.989 -0.7421 -1.1957  1.4205
  106CHL1   H2B14079   0.821   4.427   7.959  0.2633 -1.3686 -0.0319
  106CHL1   C2014080   0.794   3.886   7.146  0.6008 -0.1305  0.3450
  106CHL1   H2014081   0.904   3.896   7.147  0.7819 -1.4557 -1.6509
  106CHL1   C2114082   0.726   4.008   7.083  0.4125  0.2157  0.0194
  106CHL1  H21A14083   0.615   3.997   7.083  0.4671 -0.5360  1.4748
  106CHL1  H21B14084   0.758   4.045   6.983  0.2707 -1.0977 -0.5391
  106CHL1  H21C14085   0.745   4.098   7.146  1.4776  1.4456 -1.9540
  106CHL1   C2214086   0.768   3.760   7.066  0.5406  1.1428  0.5672
  106CHL1  H22A14087   0.833   3.683   7.113 -2.9456 -1.2185  1.9852
  106CHL1  H22B14088   0.666   3.717   7.078  0.4909  0.9565 -0.4129
  106CHL1   C2314089   0.791   3.776   6.919  0.2379  0.0298  0.4602
  106CHL1  H23A14090   0.772   3.676   6.875 -0.2898 -0.8072  2.4642
  106CHL1  H23B14091   0.728   3.853   6.871  1.2673 -0.2077 -1.3743
  106CHL1   C2414092   0.937   3.795   6.877  0.6757  0.8474 -0.1464
  106CHL1  H24A14093   0.957   3.903   6.890  0.1926  1.0574 -1.0510
  106CHL1  H24B14094   1.006   3.733   6.938  0.5148 -0.9994 -1.7406
  106CHL1   C2514095   0.967   3.748   6.733  0.6471 -0.2552 -0.1785
  106CHL1   H2514096   0.914   3.654   6.711 -1.7623  0.9224  0.2906
  106CHL1   C2614097   0.910   3.845   6.628  1.0072 -0.2175  0.2041
  106CHL1  H26A14098   0.934   3.801   6.529  0.8258  2.2932 -1.0348
  106CHL1  H26B14099   0.801   3.857   6.649  0.9984 -1.2352  0.8546
  106CHL1  H26C14100   0.955   3.946   6.623 -1.8923  1.1298 -1.2940
  106CHL1   C2714101   1.123   3.743   6.713 -0.0908 -0.1980 -0.0309
  106CHL1  H27A14102   1.147   3.721   6.607  1.5112  0.2531  0.2085
  106CHL1  H27B14103   1.174   3.839   6.734 -0.0491 -0.4108  0.9150
  106CHL1  H27C14104   1.172   3.662   6.772  0.4379  0.5356  0.5435
  107CHL1    C314105   4.485   1.762   7.809  0.9408  0.4926  0.6227
  107CHL1    H314106   4.472   1.653   7.792  1.5937  0.4123  0.6186
  107CHL1    O314107   4.481   1.799   7.942 -0.3689  0.0847 -0.1657
  107CHL1   H3'14108   4.502   1.893   7.938 -2.6028  0.7775  2.0456
  107CHL1    C414109   4.615   1.811   7.735 -0.1825  0.0933 -0.1685
  107CHL1   H4A14110   4.620   1.921   7.747  0.0298  0.1362 -0.6398
  107CHL1   H4B14111   4.692   1.763   7.798 -0.2444 -0.1854 -0.3038
  107CHL1    C514112   4.627   1.768   7.592  0.7567  0.0246  0.1963
  107CHL1    C614113   4.735   1.695   7.547  0.3545 -0.6358 -0.4698
  107CHL1    H614114   4.818   1.674   7.616  0.4431  0.8264 -0.0896
  107CHL1    C714115   4.752   1.645   7.405 -0.1261  0.1330  0.2837
  107CHL1   H7A14116   4.856   1.657   7.367 -0.0422 -1.0536  0.0946
  107CHL1   H7B14117   4.722   1.540   7.385 -1.2046 -0.1113  2.8033
  107CHL1    C814118   4.654   1.729   7.310  0.2764 -0.8493 -0.0139
  107CHL1    H814119   4.691   1.833   7.293 -2.1346 -0.1107 -1.1668
  107CHL1   C1414120   4.648   1.657   7.176 -0.2942  0.3996  0.4602
  107CHL1   H1414121   4.590   1.563   7.186 -0.4198  0.0671 -2.5700
  107CHL1   C1514122   4.779   1.604   7.110  0.9955 -0.6722  0.3682
  107CHL1  H15A14123   4.861   1.678   7.120  0.7759 -0.4743  0.7128
  107CHL1  H15B14124   4.817   1.512   7.160 -1.2312 -0.7589  2.0318
  107CHL1   C1614125   4.739   1.585   6.965 -0.1815  0.3434  0.4502
  107CHL1  H16A14126   4.803   1.658   6.912  0.8207 -0.8271  0.0169
  107CHL1  H16B14127   4.761   1.482   6.929  0.4724  1.0977 -1.4375
  107CHL1   C1714128   4.588   1.628   6.952 -0.3115 -0.6147  0.0551
  107CHL1   H1714129   4.530   1.535   6.969  0.4242 -1.8131 -3.3251
  107CHL1   C1314130   4.566   1.727   7.068 -0.6823  0.0446 -0.4113
  107CHL1   C1814131   4.633   1.861   7.034  0.2815  0.3228  0.6213
  107CHL1  H18A14132   4.580   1.910   6.949 -1.1389 -1.0307  0.6966
  107CHL1  H18B14133   4.633   1.932   7.120  0.2851  0.1163  0.7906
  107CHL1  H18C14134   4.737   1.836   7.002 -0.5596 -1.5097 -0.8331
  107CHL1   C1214135   4.423   1.740   7.125  1.2045 -0.5711  0.4562
  107CHL1  H12A14136   4.363   1.811   7.065 -0.4366 -1.3416  1.1053
  107CHL1  H12B14137   4.378   1.638   7.119 -0.5611  0.0981  1.4169
  107CHL1   C1114138   4.411   1.787   7.272  0.0746 -0.0957 -0.0453
  107CHL1  H11A14139   4.418   1.898   7.267 -2.0514  0.3097  2.8534
  107CHL1  H11B14140   4.316   1.757   7.322 -0.1210  0.4395 -0.0862
  107CHL1    C914141   4.517   1.733   7.371 -0.1181 -0.1892  0.5537
  107CHL1    H914142   4.485   1.628   7.392 -0.0028 -0.5196 -0.8077
  107CHL1   C1014143   4.506   1.812   7.501 -0.0337 -0.8993 -0.0175
  107CHL1   C1914144   4.523   1.969   7.487 -0.1120  0.6244 -0.5769
  107CHL1  H19A14145   4.607   2.005   7.423  0.6192 -1.2705 -0.7369
  107CHL1  H19B14146   4.433   2.008   7.434  0.8815  2.4461 -0.9898
  107CHL1  H19C14147   4.523   2.016   7.587  0.7817  1.4613 -0.9540
  107CHL1    C114148   4.376   1.788   7.579  0.2534  0.2210 -0.3340
  107CHL1   H1A14149   4.292   1.832   7.520  0.2179 -1.7464 -1.8379
  107CHL1   H1B14150   4.352   1.681   7.567 -2.2225  0.3463  2.4491
  107CHL1    C214151   4.366   1.825   7.728 -0.2596  0.1505  0.1976
  107CHL1   H2A14152   4.268   1.799   7.773  0.3957 -0.0232  1.5701
  107CHL1   H2B14153   4.386   1.933   7.747  0.1677  0.3639 -1.2826
  107CHL1   C2014154   4.544   1.668   6.806  0.2675  0.5752  0.4838
  107CHL1   H2014155   4.609   1.753   6.779  1.6393 -1.2062 -2.4156
  107CHL1   C2114156   4.399   1.721   6.796  0.3053 -0.0209 -0.1783
  107CHL1  H21A14157   4.363   1.742   6.694  0.9556 -2.0916 -0.8879
  107CHL1  H21B14158   4.396   1.821   6.844  2.2351 -0.2362  0.4875
  107CHL1  H21C14159   4.328   1.655   6.850  1.6279 -1.2838  0.0878
  107CHL1   C2214160   4.558   1.559   6.700  0.0225  0.5429  0.0817
  107CHL1  H22A14161   4.539   1.461   6.749  1.9010  1.2039  2.3291
  107CHL1  H22B14162   4.479   1.578   6.625  0.5873  0.3050 -0.5902
  107CHL1   C2314163   4.692   1.546   6.618  0.3565  0.4084 -0.3009
  107CHL1  H23A14164   4.729   1.650   6.604 -3.7773  2.3355  1.3016
  107CHL1  H23B14165   4.772   1.497   6.678  1.7506  2.6888 -0.2001
  107CHL1   C2414166   4.687   1.471   6.482 -0.4330 -0.3508 -0.4227
  107CHL1  H24A14167   4.606   1.511   6.419 -2.1324 -1.9203  0.6546
  107CHL1  H24B14168   4.783   1.493   6.430 -2.0537  2.5055 -2.4750
  107CHL1   C2514169   4.668   1.317   6.501  0.2018 -0.6512  0.1817
  107CHL1   H2514170   4.586   1.317   6.576 -0.5536 -2.6361 -0.5778
  107CHL1   C2614171   4.621   1.252   6.366  0.3207  0.5705  0.3603
  107CHL1  H26A14172   4.569   1.158   6.394  2.9163 -1.1229 -0.1326
  107CHL1  H26B14173   4.548   1.320   6.319 -0.9206 -0.7748  0.2867
  107CHL1  H26C14174   4.705   1.234   6.296 -0.5342  1.8322 -1.0480
  107CHL1   C2714175   4.791   1.236   6.563  0.0705 -0.6210 -0.1555
  107CHL1  H27A14176   4.744   1.144   6.604 -2.5164  0.5601 -0.2524
  107CHL1  H27B14177   4.881   1.233   6.498  0.4785  2.2437  0.1543
  107CHL1  H27C14178   4.823   1.303   6.645  1.0863 -0.0194 -1.0207
  108CHL1    C314179   5.634   5.238   7.964 -0.1356 -0.1513  0.5800
  108CHL1    H314180   5.724   5.174   7.973  0.6668  0.9765  0.8780
  108CHL1    O314181   5.589   5.265   8.095  0.5654  0.0658  0.2270
  108CHL1   H3'14182   5.513   5.210   8.119  0.1754  0.7617  0.6295
  108CHL1    C414183   5.681   5.377   7.899  0.2763  0.2440 -0.1809
  108CHL1   H4A14184   5.591   5.441   7.909 -0.6441 -0.6820 -2.0723
  108CHL1   H4B14185   5.766   5.419   7.958 -0.0330 -0.1848  0.5855
  108CHL1    C514186   5.707   5.368   7.748 -0.9696  0.1410 -0.9446
  108CHL1    C614187   5.817   5.427   7.693  0.6234 -0.6559  0.1828
  108CHL1    H614188   5.884   5.488   7.755  0.1269 -1.6406  1.7560
  108CHL1    C714189   5.855   5.429   7.548  0.8976  0.9825  0.4817
  108CHL1   H7A14190   5.895   5.527   7.515  1.8977 -0.0621 -1.5443
  108CHL1   H7B14191   5.937   5.357   7.528  1.3083  1.3817  0.7209
  108CHL1    C814192   5.731   5.386   7.460 -0.6423  0.4654 -0.2109
  108CHL1    H814193   5.667   5.476   7.457  0.0295  0.9955  0.7840
  108CHL1   C1414194   5.778   5.345   7.318 -0.1546  0.0637  0.2328
  108CHL1   H1414195   5.840   5.254   7.322 -1.0878 -0.7071 -1.7038
  108CHL1   C1514196   5.856   5.447   7.236  0.0002 -0.1351 -0.0098
  108CHL1  H15A14197   5.810   5.545   7.261  0.2750  0.3447 -1.3207
  108CHL1  H15B14198   5.962   5.451   7.270  0.4826  0.7903 -1.5472
  108CHL1   C1614199   5.842   5.423   7.087 -0.0007  0.7078 -0.0005
  108CHL1  H16A14200   5.808   5.518   7.040  0.3131  0.4790 -0.7072
  108CHL1  H16B14201   5.938   5.394   7.040 -0.0359 -0.0122  0.3598
  108CHL1   C1714202   5.732   5.319   7.082  0.1279  0.6737  0.4848
  108CHL1   H1714203   5.773   5.216   7.075  1.1251  1.1459 -1.1508
  108CHL1   C1314204   5.658   5.318   7.223  0.3264  0.0924 -0.1164
  108CHL1   C1814205   5.553   5.434   7.220  0.4650  0.2639 -0.2514
  108CHL1  H18A14206   5.532   5.463   7.326  0.3300 -2.2073  0.4477
  108CHL1  H18B14207   5.605   5.516   7.167  4.7877 -2.1779 -0.2334
  108CHL1  H18C14208   5.457   5.416   7.167  1.7054  1.0069 -2.8996
  108CHL1   C1214209   5.597   5.190   7.276  0.1937  1.0622 -0.2625
  108CHL1  H12A14210   5.508   5.180   7.210 -0.0401  2.3720 -0.1816
  108CHL1  H12B14211   5.675   5.114   7.259 -0.2148  0.6771 -0.4448
  108CHL1   C1114212   5.558   5.206   7.424 -0.2350  0.0246  0.6970
  108CHL1  H11A14213   5.462   5.262   7.418  0.2525  0.7944 -0.0521
  108CHL1  H11B14214   5.533   5.105   7.464  0.6969 -0.0348  1.1557
  108CHL1    C914215   5.663   5.268   7.519 -0.0787  0.0397  0.3956
  108CHL1    H914216   5.736   5.185   7.534 -3.5083 -3.2098  0.5639
  108CHL1   C1014217   5.601   5.299   7.661 -0.1371  0.1944  0.0566
  108CHL1   C1914218   5.467   5.385   7.664  0.1967 -0.4562 -0.5973
  108CHL1  H19A14219   5.457   5.418   7.770  1.3180  0.2144 -0.6778
  108CHL1  H19B14220   5.478   5.472   7.596  0.3095  1.3961  1.6918
  108CHL1  H19C14221   5.381   5.322   7.633  0.6444 -0.4255 -1.9642
  108CHL1    C114222   5.573   5.158   7.732 -0.1233  0.1859  0.2862
  108CHL1   H1A14223   5.495   5.111   7.669  0.3297  1.6994 -1.4908
  108CHL1   H1B14224   5.669   5.103   7.730  0.9011  1.8907 -1.5678
  108CHL1    C214225   5.531   5.167   7.878  0.5866  0.3762 -0.0735
  108CHL1   H2A14226   5.499   5.068   7.917  0.6613  0.6303  0.6394
  108CHL1   H2B14227   5.441   5.232   7.883 -0.9929 -1.6259 -0.9608
  108CHL1   C2014228   5.642   5.336   6.961  0.0694 -0.1028 -0.0732
  108CHL1   H2014229   5.574   5.423   6.976  3.7212  2.7919  1.2398
  108CHL1   C2114230   5.556   5.214   6.942  0.2524 -0.3178 -0.6105
  108CHL1  H21A14231   5.610   5.118   6.958 -1.3740 -0.9463  1.4730
  108CHL1  H21B14232   5.504   5.225   6.845 -0.5955  2.5902  0.0734
  108CHL1  H21C14233   5.482   5.225   7.023  0.9324 -0.4385  0.0373
  108CHL1   C2214234   5.719   5.372   6.827  0.3878  0.3341 -0.4749
  108CHL1  H22A14235   5.805   5.440   6.848 -0.8066  1.0294  2.6128
  108CHL1  H22B14236   5.773   5.284   6.786  3.3912  1.9030 -0.1932
  108CHL1   C2314237   5.629   5.427   6.716 -0.3483  0.7428  0.3482
  108CHL1  H23A14238   5.545   5.355   6.709  1.9520 -2.2959  1.9197
  108CHL1  H23B14239   5.586   5.517   6.766  2.0001  1.2109  1.6608
  108CHL1   C2414240   5.707   5.456   6.590  0.3861  0.0406 -0.2482
  108CHL1  H24A14241   5.788   5.530   6.606 -1.1426  1.9766 -1.0747
  108CHL1  H24B14242   5.756   5.362   6.554  0.1515  0.9072 -3.0520
  108CHL1   C2514243   5.629   5.519   6.479  0.6651  0.0522 -0.6878
  108CHL1   H2514244   5.569   5.598   6.530 -0.4311  0.2842 -2.2769
  108CHL1   C2614245   5.713   5.598   6.383  0.2843  0.1075  0.5868
  108CHL1  H26A14246   5.652   5.652   6.307  0.8955 -0.8481 -0.6052
  108CHL1  H26B14247   5.779   5.676   6.427  0.3818  0.3912 -0.0518
  108CHL1  H26C14248   5.765   5.522   6.322  1.1003 -0.5271  2.0141
  108CHL1   C2714249   5.522   5.427   6.417  0.3021 -0.4318  0.5277
  108CHL1  H27A14250   5.444   5.396   6.490  0.0963  1.2035  1.0552
  108CHL1  H27B14251   5.477   5.473   6.327  0.9449  1.6509  1.1907
  108CHL1  H27C14252   5.572   5.341   6.369 -1.1822 -0.4832 -0.9991
  109CHL1    C314253   2.795   1.989   7.924  0.1629  0.0688  0.8027
  109CHL1    H314254   2.849   2.085   7.913 -0.9161  0.8279  1.8362
  109CHL1    O314255   2.770   1.968   8.060  0.4922  0.4644  0.0497
  109CHL1   H3'14256   2.834   2.025   8.102  0.7039  0.8318 -0.7572
  109CHL1    C414257   2.661   1.970   7.854  0.6560  0.0448  0.1444
  109CHL1   H4A14258   2.605   1.886   7.900  0.9922 -0.0692  0.3513
  109CHL1   H4B14259   2.611   2.060   7.893  0.2452 -0.4795  0.8500
  109CHL1    C514260   2.672   1.971   7.702 -0.5495  0.2119  0.0046
  109CHL1    C614261   2.604   2.060   7.628 -0.2558  0.1051  0.7390
  109CHL1    H614262   2.532   2.133   7.667  0.8078  0.9728  1.1467
  109CHL1    C714263   2.623   2.069   7.474  0.0893  0.4918 -0.6064
  109CHL1   H7A14264   2.528   2.107   7.430  0.4861  2.2591 -0.0394
  109CHL1   H7B14265   2.699   2.147   7.452 -0.6117  1.8042  1.3090
  109CHL1    C814266   2.669   1.934   7.421 -0.4007  0.1503  0.1342
  109CHL1    H814267   2.584   1.864   7.433 -1.1442  1.0699  0.3333
  109CHL1   C1414268   2.706   1.950   7.272  0.3322 -0.1346  0.2797
  109CHL1   H1414269   2.793   2.019   7.285  0.2558 -0.2003  1.2741
  109CHL1   C1514270   2.601   1.999   7.178  0.8851 -0.1972 -0.2499
  109CHL1  H15A14271   2.506   1.945   7.193  0.1025  0.8257 -1.3596
  109CHL1  H15B14272   2.586   2.107   7.202  1.9045 -0.3413  1.2267
  109CHL1   C1614273   2.644   1.962   7.034 -0.0192  0.0667  0.4471
  109CHL1  H16A14274   2.575   1.895   6.978  2.4147 -3.1574  0.9842
  109CHL1  H16B14275   2.661   2.054   6.975 -0.4536  0.4162  0.8559
  109CHL1   C1714276   2.779   1.883   7.057  0.5008  0.6449 -0.7810
  109CHL1   H1714277   2.856   1.963   7.064  1.2086 -0.0863  0.2706
  109CHL1   C1314278   2.763   1.823   7.199  0.2283 -0.4402  0.7494
  109CHL1   C1814279   2.652   1.713   7.199  0.6723 -0.3664 -0.4768
  109CHL1  H18A14280   2.559   1.733   7.141 -0.5203 -0.2134  1.4122
  109CHL1  H18B14281   2.707   1.623   7.164  3.9067  1.3582 -0.2729
  109CHL1  H18C14282   2.608   1.699   7.300  0.1282 -0.0297 -0.6593
  109CHL1   C1214283   2.895   1.804   7.273  0.5438 -0.9996  0.0968
  109CHL1  H12A14284   2.963   1.728   7.230  0.7042 -1.3108  0.8860
  109CHL1  H12B14285   2.955   1.896   7.255  0.2257 -0.7727  0.1684
  109CHL1   C1114286   2.879   1.782   7.424  0.0269  0.0282 -0.6230
  109CHL1  H11A14287   2.835   1.682   7.443  0.8666 -0.4657 -1.1830
  109CHL1  H11B14288   2.983   1.785   7.464  0.1608  0.1397 -0.9767
  109CHL1    C914289   2.794   1.892   7.495 -0.4139 -0.4196  0.2939
  109CHL1    H914290   2.866   1.976   7.480  0.0397 -0.8928 -0.2073
  109CHL1   C1014291   2.776   1.876   7.650 -0.4729  0.8172 -0.3248
  109CHL1   C1914292   2.720   1.733   7.674 -0.6986  0.2336 -0.9527
  109CHL1  H19A14293   2.780   1.643   7.646 -0.7517 -0.3557  0.7394
  109CHL1  H19B14294   2.695   1.717   7.781 -1.7547  0.2651 -1.1815
  109CHL1  H19C14295   2.624   1.706   7.624 -0.0420 -1.3545 -1.4379
  109CHL1    C114296   2.909   1.891   7.719 -0.1428  0.4066  0.2171
  109CHL1   H1A14297   2.962   1.804   7.675  0.7586  2.1302 -2.3773
  109CHL1   H1B14298   2.955   1.988   7.691  0.0806 -0.1500 -1.4522
  109CHL1    C214299   2.896   1.888   7.872 -0.4688  0.3951  0.0238
  109CHL1   H2A14300   3.000   1.913   7.902 -0.5143  3.4916 -1.9969
  109CHL1   H2B14301   2.870   1.787   7.911  0.5391  0.1566  0.1135
  109CHL1   C2014302   2.813   1.795   6.938 -0.0942 -0.5200  1.1265
  109CHL1   H2014303   2.740   1.714   6.913  0.8259 -0.6272 -1.5909
  109CHL1   C2114304   2.955   1.732   6.955 -0.4640  0.7028  0.0720
  109CHL1  H21A14305   3.029   1.811   6.980 -1.3074  0.6521  3.0003
  109CHL1  H21B14306   2.982   1.675   6.863 -0.4389 -0.5847  0.8570
  109CHL1  H21C14307   2.954   1.658   7.037  0.6193  0.9557  0.3320
  109CHL1   C2214308   2.830   1.883   6.809 -0.7216  0.2347 -0.5079
  109CHL1  H22A14309   2.824   1.991   6.837  0.4680  0.6433 -1.6760
  109CHL1  H22B14310   2.932   1.875   6.763 -0.3625  0.8516  0.1604
  109CHL1   C2314311   2.732   1.856   6.700 -0.0663 -0.1722 -0.6074
  109CHL1  H23A14312   2.733   1.746   6.688  0.9301 -0.1484 -0.8001
  109CHL1  H23B14313   2.629   1.897   6.713 -1.3666 -2.1951 -3.4912
  109CHL1   C2414314   2.768   1.918   6.560 -0.0554 -0.1083 -0.4189
  109CHL1  H24A14315   2.758   2.028   6.577 -1.3097 -0.2150 -0.3822
  109CHL1  H24B14316   2.866   1.876   6.529 -0.4614 -1.1805 -0.2748
  109CHL1   C2514317   2.676   1.869   6.442  0.1740 -0.5475 -0.3506
  109CHL1   H2514318   2.672   1.759   6.433 -1.2072 -0.7475  1.9662
  109CHL1   C2614319   2.535   1.924   6.457 -0.6564 -0.2254 -0.2556
  109CHL1  H26A14320   2.464   1.877   6.386 -0.4831 -3.1293  1.3697
  109CHL1  H26B14321   2.492   1.898   6.556 -2.1658  0.1217 -0.7942
  109CHL1  H26C14322   2.535   2.034   6.438 -0.6657 -0.5672 -2.5606
  109CHL1   C2714323   2.735   1.924   6.310 -0.0157 -0.0926 -0.0010
  109CHL1  H27A14324   2.833   1.873   6.296 -0.6277 -1.8643  1.7495
  109CHL1  H27B14325   2.667   1.892   6.229  0.1362 -0.6541  0.0946
  109CHL1  H27C14326   2.737   2.035   6.311 -1.7045 -0.0276  1.4061
  110CHL1    C314327   2.445   1.354   8.226  0.2376  0.1300  0.4528
  110CHL1    H314328   2.385   1.262   8.237 -3.2322  2.2641  1.0367
  110CHL1    O314329   2.486   1.398   8.350  0.3847 -0.1655 -0.2862
  110CHL1   H3'14330   2.566   1.449   8.335  0.7802 -1.3211 -2.5156
  110CHL1    C414331   2.570   1.333   8.139 -0.2247  0.0865 -0.0982
  110CHL1   H4A14332   2.622   1.431   8.134  2.1473 -1.1741 -2.2579
  110CHL1   H4B14333   2.636   1.264   8.196  0.9662 -0.1696 -1.7017
  110CHL1    C514334   2.526   1.292   7.996 -0.6107 -0.0474  0.7367
  110CHL1    C614335   2.562   1.176   7.943 -0.7773  0.4999 -0.8058
  110CHL1    H614336   2.630   1.113   8.002  2.8672  2.3627 -2.6318
  110CHL1    C714337   2.530   1.133   7.798  0.0333 -0.4768 -0.7098
  110CHL1   H7A14338   2.623   1.098   7.748  1.3558  1.2109  0.4330
  110CHL1   H7B14339   2.444   1.064   7.801  1.7672 -2.7292 -0.3787
  110CHL1    C814340   2.485   1.258   7.715  0.4315 -0.1714 -0.1522
  110CHL1    H814341   2.575   1.318   7.693  0.3686  0.0693  0.2463
  110CHL1   C1414342   2.425   1.202   7.585 -0.3560 -0.4606  0.1345
  110CHL1   H1414343   2.340   1.144   7.625 -0.8727 -0.4400 -0.8876
  110CHL1   C1514344   2.498   1.100   7.486  0.6199 -0.4740 -0.4698
  110CHL1  H15A14345   2.604   1.134   7.487 -0.2447  2.5958  1.7216
  110CHL1  H15B14346   2.492   0.993   7.516 -1.1160 -0.1464  0.5393
  110CHL1   C1614347   2.437   1.135   7.350  0.4070 -0.1348 -1.4847
  110CHL1  H16A14348   2.511   1.188   7.287  0.5775  1.5547  0.0298
  110CHL1  H16B14349   2.393   1.046   7.301 -3.0101  1.5000 -1.7357
  110CHL1   C1714350   2.323   1.236   7.373  0.4366 -0.2565  0.5656
  110CHL1   H1714351   2.233   1.171   7.385  1.6908 -2.5483 -1.5696
  110CHL1   C1314352   2.368   1.311   7.499 -0.0515 -1.0339 -0.5284
  110CHL1   C1814353   2.475   1.419   7.469  0.0687  0.4849  0.2697
  110CHL1  H18A14354   2.441   1.497   7.398 -2.5054 -1.7149 -1.0895
  110CHL1  H18B14355   2.516   1.464   7.561 -1.4710  1.9029  0.2962
  110CHL1  H18C14356   2.562   1.372   7.416 -2.5421 -5.5863  0.5803
  110CHL1   C1214357   2.261   1.380   7.577 -0.3131  0.1423 -0.1383
  110CHL1  H12A14358   2.210   1.455   7.513  2.2650  0.6845 -1.6842
  110CHL1  H12B14359   2.190   1.296   7.594  0.5990 -0.7607 -0.6844
  110CHL1   C1114360   2.305   1.445   7.706  0.2548 -0.4499  0.1066
  110CHL1  H11A14361   2.359   1.540   7.684  0.5768 -0.4650  0.8022
  110CHL1  H11B14362   2.219   1.490   7.760 -1.3614 -2.1066 -0.9535
  110CHL1    C914363   2.387   1.342   7.795  0.3021 -0.2401  0.4810
  110CHL1    H914364   2.304   1.273   7.819  0.3666 -0.3608  0.3598
  110CHL1   C1014365   2.439   1.396   7.925  0.4045 -0.1985  0.0601
  110CHL1   C1914366   2.532   1.520   7.909 -0.4039  0.0721 -0.3127
  110CHL1  H19A14367   2.623   1.486   7.855 -0.2287 -2.0760  1.2254
  110CHL1  H19B14368   2.493   1.608   7.854 -0.4075  0.8420  0.8959
  110CHL1  H19C14369   2.574   1.564   8.002  0.2448 -0.6207 -0.2650
  110CHL1    C114370   2.316   1.441   8.018  0.6674  0.1597  0.6051
  110CHL1   H1A14371   2.278   1.537   7.978 -1.0422 -0.9873 -0.6699
  110CHL1   H1B14372   2.233   1.367   8.020  0.5110  0.3399  0.7853
  110CHL1    C214373   2.363   1.466   8.162 -0.3139  0.1114  0.1730
  110CHL1   H2A14374   2.273   1.491   8.223  0.7441  2.3227  0.9509
  110CHL1   H2B14375   2.419   1.560   8.181  0.0879 -0.3230  1.2325
  110CHL1   C2014376   2.284   1.314   7.247 -0.5041 -0.0937  0.6099
  110CHL1   H2014377   2.366   1.387   7.229 -0.0726 -0.8236 -0.4875
  110CHL1   C2114378   2.148   1.396   7.257 -0.2784 -0.2620  0.6170
  110CHL1  H21A14379   2.128   1.447   7.160  0.6366 -0.4302  0.3335
  110CHL1  H21B14380   2.159   1.482   7.326  0.0748 -0.3321  0.6498
  110CHL1  H21C14381   2.057   1.338   7.283 -0.6977  0.5315  0.9441
  110CHL1   C2214382   2.299   1.236   7.117 -0.0883 -0.5454  0.4577
  110CHL1  H22A14383   2.401   1.193   7.110 -0.2861 -0.8377 -0.9027
  110CHL1  H22B14384   2.230   1.150   7.129 -2.6607  1.4244  0.6070
  110CHL1   C2314385   2.274   1.318   6.984  0.3634 -0.1851  0.1048
  110CHL1  H23A14386   2.272   1.241   6.904  3.2133 -1.6331  1.3048
  110CHL1  H23B14387   2.174   1.365   6.992  0.9799  1.0200  0.9492
  110CHL1   C2414388   2.374   1.431   6.947  0.5177 -0.1623 -0.1528
  110CHL1  H24A14389   2.343   1.523   7.001  0.4399 -0.2454 -0.0548
  110CHL1  H24B14390   2.481   1.409   6.968  0.7528  2.6699  2.3266
  110CHL1   C2514391   2.377   1.474   6.793 -1.1399  0.7468 -0.0798
  110CHL1   H2514392   2.403   1.385   6.732  1.0265  1.6957 -0.6141
  110CHL1   C2614393   2.228   1.513   6.744 -0.0676  0.0426  0.6573
  110CHL1  H26A14394   2.155   1.435   6.777  1.2907 -3.2604 -3.2350
  110CHL1  H26B14395   2.210   1.619   6.772  0.1008  0.5180 -0.9227
  110CHL1  H26C14396   2.226   1.513   6.633 -0.4696 -1.2135  0.6439
  110CHL1   C2714397   2.481   1.577   6.770  0.3649  0.1653 -0.0828
  110CHL1  H27A14398   2.450   1.610   6.669 -0.8283 -0.5075  0.0462
  110CHL1  H27B14399   2.474   1.656   6.847  0.5165  0.0608  0.0378
  110CHL1  H27C14400   2.585   1.538   6.757  0.1342  0.0566 -1.9152
  111CHL1    C314401   3.441   1.714   7.845  1.0262  0.0216 -0.2528
  111CHL1    H314402   3.469   1.813   7.802 -0.5809  0.1309 -1.1349
  111CHL1    O314403   3.430   1.729   7.993 -0.5216  0.0627  0.2252
  111CHL1   H3'14404   3.379   1.652   8.017  0.6978 -0.6292  0.6657
  111CHL1    C414405   3.313   1.675   7.777  0.4944 -0.5307 -0.1515
  111CHL1   H4A14406   3.287   1.578   7.826  0.1796 -0.0636  0.6240
  111CHL1   H4B14407   3.240   1.748   7.817  0.2085 -0.6563 -0.4373
  111CHL1    C514408   3.327   1.665   7.626  0.0137 -0.0602  0.1205
  111CHL1    C614409   3.260   1.744   7.543 -0.2596 -0.1295  0.2947
  111CHL1    H614410   3.189   1.812   7.592 -0.8122 -0.4473 -0.0528
  111CHL1    C714411   3.270   1.737   7.386  0.0541  0.1948  0.0423
  111CHL1   H7A14412   3.172   1.739   7.334  1.0287  1.9421 -1.8554
  111CHL1   H7B14413   3.320   1.834   7.363  2.4096 -1.3798 -1.9549
  111CHL1    C814414   3.343   1.605   7.346  0.2265 -0.0195  1.0513
  111CHL1    H814415   3.268   1.528   7.374 -0.0770 -1.2211 -2.6068
  111CHL1   C1414416   3.358   1.615   7.201 -0.0812  0.0321  0.6169
  111CHL1   H1414417   3.427   1.701   7.185  0.5037 -0.8764 -2.4898
  111CHL1   C1514418   3.236   1.638   7.112  0.2271 -0.3552  0.3710
  111CHL1  H15A14419   3.149   1.573   7.138 -1.6276  2.0155  0.4220
  111CHL1  H15B14420   3.205   1.745   7.110  0.2334 -0.3586 -1.4293
  111CHL1   C1614421   3.282   1.600   6.965  0.0801  0.6316  0.4683
  111CHL1  H16A14422   3.198   1.543   6.919  1.8945 -1.5308 -0.3788
  111CHL1  H16B14423   3.289   1.679   6.888  1.9375 -0.2947 -0.3779
  111CHL1   C1714424   3.422   1.519   6.985  0.1512 -0.3690 -0.2941
  111CHL1   H1714425   3.507   1.590   6.980 -1.6596  2.0243  1.1207
  111CHL1   C1314426   3.428   1.494   7.143 -0.3363  0.9694 -0.2606
  111CHL1   C1814427   3.354   1.363   7.167  0.1263 -0.1993  0.4944
  111CHL1  H18A14428   3.423   1.280   7.142  0.6021 -0.5796  2.7975
  111CHL1  H18B14429   3.318   1.343   7.271  0.1960 -0.6874  0.4298
  111CHL1  H18C14430   3.264   1.356   7.102 -0.9670  0.7625  1.8398
  111CHL1   C1214431   3.570   1.485   7.213  0.7007 -0.5214  0.5166
  111CHL1  H12A14432   3.626   1.397   7.176  0.8512 -0.6499  1.0550
  111CHL1  H12B14433   3.612   1.582   7.179  0.4745  0.1331  2.0203
  111CHL1   C1114434   3.567   1.474   7.360  0.2626 -0.2108 -0.6334
  111CHL1  H11A14435   3.533   1.371   7.379 -1.4209  0.2335 -1.0917
  111CHL1  H11B14436   3.665   1.477   7.412 -0.1035 -3.4890  0.4474
  111CHL1    C914437   3.467   1.580   7.423 -0.4415  0.6427  0.5500
  111CHL1    H914438   3.518   1.679   7.416 -1.3039  1.1402  1.0807
  111CHL1   C1014439   3.434   1.564   7.574  0.0585 -0.5981  0.0824
  111CHL1   C1914440   3.373   1.427   7.604 -0.9434 -0.8434  0.2398
  111CHL1  H19A14441   3.426   1.344   7.553  1.0637  0.6164 -0.1751
  111CHL1  H19B14442   3.371   1.399   7.712  3.3708 -0.8871  0.4666
  111CHL1  H19C14443   3.271   1.429   7.559 -0.5188 -1.3170 -0.7620
  111CHL1    C114444   3.558   1.587   7.659  0.2243 -0.6085 -0.1942
  111CHL1   H1A14445   3.640   1.515   7.640  0.7245  0.1155 -0.8650
  111CHL1   H1B14446   3.605   1.679   7.616 -0.2362 -0.3014 -0.0544
  111CHL1    C214447   3.545   1.603   7.814 -0.1983  0.6248  0.5325
  111CHL1   H2A14448   3.647   1.617   7.856  0.9877 -0.7707 -1.6547
  111CHL1   H2B14449   3.512   1.505   7.854  0.3896  0.1095 -0.2165
  111CHL1   C2014450   3.451   1.410   6.886 -0.3921 -0.2159  0.0411
  111CHL1   H2014451   3.366   1.339   6.887 -1.3270  0.8690  0.8842
  111CHL1   C2114452   3.583   1.333   6.916 -0.4362 -0.4374  0.3145
  111CHL1  H21A14453   3.667   1.404   6.903 -2.2613  1.6072 -1.3866
  111CHL1  H21B14454   3.597   1.244   6.851  1.4027  0.3656 -0.4451
  111CHL1  H21C14455   3.597   1.284   7.014 -0.9269 -1.1536  0.0399
  111CHL1   C2214456   3.450   1.461   6.736 -0.4894 -0.1083  0.0110
  111CHL1  H22A14457   3.365   1.532   6.729  0.2536  0.7598 -0.4533
  111CHL1  H22B14458   3.541   1.522   6.717 -0.6846  0.8910  2.0340
  111CHL1   C2314459   3.428   1.340   6.637 -0.2130 -0.9233  0.4037
  111CHL1  H23A14460   3.460   1.375   6.537  0.6685  0.9809  1.2824
  111CHL1  H23B14461   3.500   1.259   6.664  2.1467  0.3651 -1.6465
  111CHL1   C2414462   3.286   1.278   6.641  0.0121 -0.3816 -0.3426
  111CHL1  H24A14463   3.254   1.216   6.727 -2.3179  1.0443 -0.1083
  111CHL1  H24B14464   3.219   1.366   6.645 -0.8323 -1.0803  1.8878
  111CHL1   C2514465   3.244   1.216   6.507  0.2703  0.2005 -0.3557
  111CHL1   H2514466   3.297   1.281   6.433  1.5414 -0.5288 -0.1231
  111CHL1   C2614467   3.319   1.082   6.483 -0.2426  0.4902  0.7897
  111CHL1  H26A14468   3.300   1.054   6.378 -0.2556 -0.2740  0.9931
  111CHL1  H26B14469   3.429   1.097   6.496  0.0323 -0.0657 -0.7638
  111CHL1  H26C14470   3.283   1.006   6.555 -1.4564  0.7613  0.4890
  111CHL1   C2714471   3.098   1.182   6.496  0.2660 -0.3497 -0.5204
  111CHL1  H27A14472   3.031   1.267   6.518 -2.0185 -2.6942  2.5323
  111CHL1  H27B14473   3.064   1.159   6.393 -0.2741 -0.0724 -0.4093
  111CHL1  H27C14474   3.068   1.105   6.570  3.7294 -0.6564  0.7340
  112CHL1    C314475   4.916   3.554   8.169  0.5401 -0.6989 -0.8865
  112CHL1    H314476   4.826   3.490   8.164  1.3932 -2.0038 -0.1487
  112CHL1    O314477   4.933   3.571   8.310 -0.4648 -0.0584  0.1602
  112CHL1   H3'14478   4.994   3.645   8.318 -2.3381  1.6646 -0.6075
  112CHL1    C414479   5.036   3.484   8.111  0.0874  0.1317 -1.1268
  112CHL1   H4A14480   5.121   3.545   8.149  0.7828 -2.2537  1.4800
  112CHL1   H4B14481   5.035   3.387   8.165 -0.1384  0.2531 -0.9110
  112CHL1    C514482   5.025   3.466   7.963 -0.3108  0.4684 -0.0840
  112CHL1    C614483   5.043   3.345   7.910  0.0014 -0.0020  0.1778
  112CHL1    H614484   5.089   3.264   7.968  1.0257 -0.2234 -0.9210
  112CHL1    C714485   5.017   3.310   7.760  0.5174  0.1680 -0.2605
  112CHL1   H7A14486   5.102   3.261   7.708 -0.0294 -1.1482  0.0590
  112CHL1   H7B14487   4.941   3.229   7.758  0.6775 -0.0617  1.2363
  112CHL1    C814488   4.988   3.432   7.672  0.3682  0.1869 -1.1108
  112CHL1    H814489   5.088   3.474   7.649 -0.4420  2.4663 -0.7046
  112CHL1   C1414490   4.920   3.401   7.537  0.0421  0.0910 -0.2009
  112CHL1   H1414491   4.818   3.366   7.566  0.3122 -0.4739  0.0724
  112CHL1   C1514492   4.974   3.278   7.459  0.7633  0.2552  0.5657
  112CHL1  H15A14493   5.084   3.288   7.444  0.8712  0.8173  1.7014
  112CHL1  H15B14494   4.952   3.177   7.500  0.9912 -0.5556 -1.1913
  112CHL1   C1614495   4.916   3.300   7.320 -0.2947 -0.0600  0.9596
  112CHL1  H16A14496   4.986   3.305   7.234 -2.0988  1.6623 -0.5156
  112CHL1  H16B14497   4.840   3.219   7.308 -1.6296  0.8129  2.9186
  112CHL1   C1714498   4.843   3.433   7.323  0.5777  0.0424 -0.1695
  112CHL1   H1714499   4.737   3.411   7.347  0.4452  0.9691  0.1208
  112CHL1   C1314500   4.892   3.515   7.441 -0.4569  0.3606  0.2521
  112CHL1   C1814501   5.022   3.574   7.400  0.0545 -0.5093  0.2853
  112CHL1  H18A14502   5.073   3.515   7.320  3.2637  2.5029 -0.1289
  112CHL1  H18B14503   5.001   3.676   7.362 -0.9843 -0.3842  1.1510
  112CHL1  H18C14504   5.096   3.577   7.484 -0.4631  0.5748  0.7108
  112CHL1   C1214505   4.806   3.616   7.510 -1.2887 -0.2541 -0.4559
  112CHL1  H12A14506   4.789   3.706   7.448  3.3276  1.2698  0.1357
  112CHL1  H12B14507   4.703   3.575   7.521 -1.5568  0.5251 -0.0139
  112CHL1   C1114508   4.865   3.658   7.645 -0.2047 -0.1159  0.1247
  112CHL1  H11A14509   4.950   3.728   7.632 -0.0674  0.0259  1.6658
  112CHL1  H11B14510   4.783   3.716   7.693  0.5160  1.2285 -0.2186
  112CHL1    C914511   4.908   3.540   7.740  0.2039  0.2178 -0.1206
  112CHL1    H914512   4.811   3.494   7.767  0.6033  0.9140  2.8652
  112CHL1   C1014513   4.974   3.587   7.880  1.2111  0.6716  0.1455
  112CHL1   C1914514   5.095   3.681   7.857 -0.0353 -0.3155  0.4757
  112CHL1  H19A14515   5.165   3.635   7.784  0.9129  0.4880  0.8557
  112CHL1  H19B14516   5.060   3.784   7.836  0.3948  0.1033  1.7202
  112CHL1  H19C14517   5.156   3.694   7.949  2.3245 -0.9364 -0.9075
  112CHL1    C114518   4.869   3.674   7.959 -0.1302 -0.1022 -0.1115
  112CHL1   H1A14519   4.861   3.773   7.910 -0.5310  0.0093  0.1729
  112CHL1   H1B14520   4.772   3.622   7.940  1.5060 -3.1545 -0.7994
  112CHL1    C214521   4.906   3.694   8.108  0.1334 -0.5971 -0.0602
  112CHL1   H2A14522   4.819   3.742   8.156  2.5128  1.8698  2.0744
  112CHL1   H2B14523   5.001   3.752   8.112 -1.5050  2.2082  1.4259
  112CHL1   C2014524   4.828   3.498   7.179  0.2581 -0.5918  0.0953
  112CHL1   H2014525   4.917   3.558   7.154 -0.6101 -0.0011 -1.7491
  112CHL1   C2114526   4.699   3.591   7.181  0.0458 -0.1301  0.0715
  112CHL1  H21A14527   4.722   3.678   7.247  1.8265  0.3127 -1.0478
  112CHL1  H21B14528   4.605   3.534   7.199 -0.0504  0.5331  1.9140
  112CHL1  H21C14529   4.687   3.636   7.080 -1.7161 -1.2533 -0.2629
  112CHL1   C2214530   4.808   3.388   7.061  0.1766 -0.0044 -1.1080
  112CHL1  H22A14531   4.894   3.318   7.059 -0.4581 -0.7835 -1.6282
  112CHL1  H22B14532   4.712   3.332   7.067 -1.8775  3.2433 -0.9558
  112CHL1   C2314533   4.807   3.464   6.930 -0.2448 -0.1996  0.1058
  112CHL1  H23A14534   4.729   3.543   6.925 -0.0178  0.0245  0.0273
  112CHL1  H23B14535   4.908   3.509   6.919  0.0713 -0.4894  1.6352
  112CHL1   C2414536   4.784   3.371   6.810 -0.3995  0.0428 -0.1408
  112CHL1  H24A14537   4.858   3.288   6.809  0.4015  0.7372  0.3379
  112CHL1  H24B14538   4.683   3.327   6.796 -0.8438  1.2885 -1.0785
  112CHL1   C2514539   4.787   3.444   6.678  0.1260 -0.5750  0.1834
  112CHL1   H2514540   4.745   3.379   6.598 -1.6589  1.5518 -0.7126
  112CHL1   C2614541   4.687   3.560   6.685 -0.3245 -0.2447  1.0354
  112CHL1  H26A14542   4.591   3.535   6.736 -2.1086  1.6390 -1.1391
  112CHL1  H26B14543   4.737   3.650   6.727 -0.6050  0.2115  0.4110
  112CHL1  H26C14544   4.656   3.598   6.585 -0.8504 -0.8769  0.9517
  112CHL1   C2714545   4.922   3.498   6.642  0.3037  0.5404  0.3465
  112CHL1  H27A14546   4.974   3.567   6.712  1.4782  2.2214 -2.0089
  112CHL1  H27B14547   4.993   3.413   6.639  3.1928  2.8155  0.0690
  112CHL1  H27C14548   4.922   3.559   6.549  2.5983  1.9085  1.1621
  113CHL1    C314549   1.427   4.595   8.013 -0.0423  0.6570 -0.2126
  113CHL1    H314550   1.496   4.677   7.984  1.0321  0.1949  0.9320
  113CHL1    O314551   1.415   4.594   8.156 -0.4405 -0.9417  0.2279
  113CHL1   H3'14552   1.371   4.513   8.181  1.5912 -1.7616  1.3975
  113CHL1    C414553   1.294   4.610   7.937  0.1730 -0.0396 -0.3679
  113CHL1   H4A14554   1.213   4.544   7.973  1.2564 -1.4668 -0.4778
  113CHL1   H4B14555   1.258   4.714   7.952  1.2617  0.1910  0.8286
  113CHL1    C514556   1.301   4.578   7.790 -0.5676 -0.4065  0.3226
  113CHL1    C614557   1.259   4.673   7.707  0.0123 -0.3278  0.0597
  113CHL1    H614558   1.226   4.769   7.750  0.0817 -1.1460  2.0479
  113CHL1    C714559   1.263   4.668   7.560 -0.1499 -0.2275  0.2173
  113CHL1   H7A14560   1.169   4.710   7.519  0.7147  0.3260 -1.2842
  113CHL1   H7B14561   1.357   4.720   7.530  0.3628  0.0545  2.1833
  113CHL1    C814562   1.277   4.522   7.507  0.3837  0.3068  0.3088
  113CHL1    H814563   1.184   4.466   7.529  0.2420 -0.6529 -2.3537
  113CHL1   C1414564   1.303   4.509   7.360 -0.5784 -0.3104 -0.5605
  113CHL1   H1414565   1.403   4.554   7.345 -0.5683 -1.0347 -3.1412
  113CHL1   C1514566   1.212   4.582   7.259 -0.6890  0.5300 -0.3676
  113CHL1  H15A14567   1.109   4.597   7.297 -1.3681  1.9468 -2.6039
  113CHL1  H15B14568   1.250   4.685   7.245  2.2079 -0.2435  0.8389
  113CHL1   C1614569   1.223   4.500   7.132  0.7075  0.6300 -0.0035
  113CHL1  H16A14570   1.123   4.455   7.117  1.6812 -1.2531 -1.1724
  113CHL1  H16B14571   1.243   4.557   7.038 -1.1807  0.5460 -0.5100
  113CHL1   C1714572   1.323   4.387   7.155  0.5175 -0.4367 -0.1332
  113CHL1   H1714573   1.423   4.432   7.135  1.2468 -1.8463  0.2407
  113CHL1   C1314574   1.317   4.365   7.303  0.3850  0.2712 -0.2870
  113CHL1   C1814575   1.186   4.284   7.336  0.1044 -0.5304 -0.0116
  113CHL1  H18A14576   1.099   4.331   7.287 -0.6834 -0.3727  1.4772
  113CHL1  H18B14577   1.202   4.180   7.299  0.1156 -0.0154 -1.4957
  113CHL1  H18C14578   1.146   4.287   7.440 -1.9501 -2.7958 -0.6305
  113CHL1   C1214579   1.447   4.314   7.370  1.6443 -0.7199  0.4378
  113CHL1  H12A14580   1.470   4.217   7.321 -0.1515 -0.6400 -0.6622
  113CHL1  H12B14581   1.529   4.383   7.341  2.8967 -2.7016 -1.0402
  113CHL1   C1114582   1.435   4.309   7.523  0.6207 -0.6156  0.2405
  113CHL1  H11A14583   1.367   4.230   7.562 -1.4590 -0.1414 -2.2034
  113CHL1  H11B14584   1.535   4.295   7.570  0.8667 -0.0119 -0.0874
  113CHL1    C914585   1.390   4.446   7.583  0.0968  0.2627 -0.3300
  113CHL1    H914586   1.475   4.514   7.563 -0.1721  0.4788 -0.7663
  113CHL1   C1014587   1.373   4.449   7.741  0.4693 -0.6264  0.3714
  113CHL1   C1914588   1.283   4.333   7.786 -0.7422 -0.1952 -0.1080
  113CHL1  H19A14589   1.267   4.333   7.896 -1.9211 -0.4875 -0.2667
  113CHL1  H19B14590   1.183   4.331   7.738 -1.3431  0.0454  1.0837
  113CHL1  H19C14591   1.342   4.241   7.767  1.4562  0.9690  0.6957
  113CHL1    C114592   1.504   4.445   7.821  0.6259  0.0829 -0.3738
  113CHL1   H1A14593   1.557   4.349   7.803  0.9357 -0.2094  1.7647
  113CHL1   H1B14594   1.563   4.527   7.774 -0.8020  1.2797 -0.1171
  113CHL1    C214595   1.492   4.462   7.974 -0.3641  0.0612 -0.3246
  113CHL1   H2A14596   1.592   4.457   8.023 -0.7115  1.3865  0.5514
  113CHL1   H2B14597   1.446   4.370   8.016  0.5424 -0.8624 -1.2764
  113CHL1   C2014598   1.310   4.271   7.051 -0.2142 -0.4130  0.1020
  113CHL1   H2014599   1.223   4.205   7.069 -1.4895  1.1886  0.0234
  113CHL1   C2114600   1.430   4.166   7.066  0.9412 -0.0045 -0.4080
  113CHL1  H21A14601   1.401   4.103   7.152 -2.0693  2.1706  0.3288
  113CHL1  H21B14602   1.524   4.224   7.078  0.7145  1.0039 -2.8284
  113CHL1  H21C14603   1.445   4.105   6.974  0.9051  0.4002 -0.6870
  113CHL1   C2214604   1.306   4.315   6.905 -0.1292  0.0227  0.4337
  113CHL1  H22A14605   1.222   4.387   6.903  0.1002  0.2697 -0.8705
  113CHL1  H22B14606   1.402   4.355   6.868  0.6584 -2.0986  0.0429
  113CHL1   C2314607   1.268   4.206   6.801 -0.1826  0.1993 -0.0555
  113CHL1  H23A14608   1.342   4.126   6.780 -0.5258 -0.3477  0.7636
  113CHL1  H23B14609   1.170   4.154   6.812  0.0963 -0.1805  0.7397
  113CHL1   C2414610   1.238   4.290   6.672  0.0056  0.4173  0.3845
  113CHL1  H24A14611   1.171   4.377   6.687 -2.0877 -0.6092 -2.3137
  113CHL1  H24B14612   1.338   4.332   6.647 -0.0852  1.0797  1.1127
  113CHL1   C2514613   1.179   4.220   6.552  0.0483  0.6929 -0.6260
  113CHL1   H2514614   1.089   4.168   6.592  1.2048 -1.3537 -0.5081
  113CHL1   C2614615   1.114   4.313   6.451  0.1760  0.1761  0.6901
  113CHL1  H26A14616   1.093   4.257   6.357 -0.6312  1.2999  0.1798
  113CHL1  H26B14617   1.012   4.348   6.478  0.3078 -0.2035  1.7237
  113CHL1  H26C14618   1.179   4.398   6.423  1.6428 -1.4403 -1.0927
  113CHL1   C2714619   1.276   4.116   6.491  0.1898 -0.3412  0.4767
  113CHL1  H27A14620   1.352   4.166   6.427  2.1482 -2.8604  0.6727
  113CHL1  H27B14621   1.338   4.059   6.563  0.6406 -2.5589 -1.5501
  113CHL1  H27C14622   1.221   4.047   6.424 -2.2873  0.7355  1.2711
  114CHL1    C314623   4.737   2.395   7.760 -0.6046 -0.8741 -0.1525
  114CHL1    H314624   4.823   2.325   7.748 -1.0707 -1.6592  0.9080
  114CHL1    O314625   4.736   2.446   7.893  0.0341  0.5741 -0.1354
  114CHL1   H3'14626   4.685   2.527   7.899 -1.5974 -0.5306  2.3843
  114CHL1    C414627   4.760   2.523   7.662  0.0756  0.0787  0.1092
  114CHL1   H4A14628   4.684   2.603   7.672 -0.6594 -0.3355 -1.7529
  114CHL1   H4B14629   4.861   2.560   7.693 -0.5160  0.8114  1.2341
  114CHL1    C514630   4.752   2.474   7.516 -0.0589  0.2888 -0.0600
  114CHL1    C614631   4.858   2.491   7.437 -0.3009 -1.0602  1.0105
  114CHL1    H614632   4.946   2.546   7.473 -1.6537  1.3326  0.8740
  114CHL1    C714633   4.848   2.476   7.288  0.4507 -0.1212  0.2954
  114CHL1   H7A14634   4.874   2.559   7.219  0.3832 -2.8560 -3.3309
  114CHL1   H7B14635   4.921   2.400   7.252 -1.2125 -0.8538 -1.7079
  114CHL1    C814636   4.706   2.433   7.231 -0.2324  0.4262  0.1885
  114CHL1    H814637   4.646   2.525   7.219 -1.2133  0.0820  2.0118
  114CHL1   C1414638   4.718   2.358   7.101  0.7132  0.5411  0.2864
  114CHL1   H1414639   4.773   2.265   7.130  0.8223  1.2916  2.7671
  114CHL1   C1514640   4.802   2.417   6.988  0.1007  0.8001 -0.1218
  114CHL1  H15A14641   4.783   2.527   6.989  0.4790  0.8630  0.2518
  114CHL1  H15B14642   4.912   2.420   7.001  0.0395 -0.6000  0.8548
  114CHL1   C1614643   4.749   2.348   6.861  0.0840 -0.4884 -0.5364
  114CHL1  H16A14644   4.703   2.430   6.803  0.6744  0.6059  0.4783
  114CHL1  H16B14645   4.819   2.293   6.794 -0.8975 -1.7717 -0.5523
  114CHL1   C1714646   4.632   2.252   6.907 -0.1648  0.8138  0.4972
  114CHL1   H1714647   4.681   2.158   6.939  1.9998  0.5364 -2.9882
  114CHL1   C1314648   4.582   2.315   7.040  0.1262 -0.1737 -0.4578
  114CHL1   C1814649   4.491   2.440   7.006 -0.0402  0.7785  0.6076
  114CHL1  H18A14650   4.385   2.419   6.979  0.8321 -0.9987 -1.6779
  114CHL1  H18B14651   4.492   2.520   7.084  2.7037  0.1418  1.3180
  114CHL1  H18C14652   4.526   2.487   6.912  1.2700 -0.0740  0.6505
  114CHL1   C1214653   4.505   2.226   7.145 -0.3604 -0.4031 -0.3762
  114CHL1  H12A14654   4.414   2.185   7.098 -0.9680 -1.6645  1.7736
  114CHL1  H12B14655   4.574   2.141   7.164  0.3424  0.0906 -0.6653
  114CHL1   C1114656   4.485   2.306   7.274  0.3404  0.4260 -0.4459
  114CHL1  H11A14657   4.418   2.392   7.254 -1.9004 -0.2541  3.1852
  114CHL1  H11B14658   4.434   2.253   7.358  4.3372  2.9103  4.0017
  114CHL1    C914659   4.628   2.347   7.330  0.6503 -0.5175  0.2610
  114CHL1    H914660   4.680   2.249   7.340 -0.8686 -1.2571  1.4207
  114CHL1   C1014661   4.620   2.406   7.476  0.4634  0.5803 -0.1248
  114CHL1   C1914662   4.509   2.512   7.482  1.0594  0.4060  0.1159
  114CHL1  H19A14663   4.528   2.592   7.408  0.3285  0.2477 -0.2520
  114CHL1  H19B14664   4.414   2.464   7.449  1.0719 -0.2335  0.9757
  114CHL1  H19C14665   4.497   2.555   7.583 -0.7803  0.7625 -0.2200
  114CHL1    C114666   4.590   2.291   7.578  0.2781  0.6779  0.0296
  114CHL1   H1A14667   4.487   2.253   7.560 -0.7012  1.4965  3.3167
  114CHL1   H1B14668   4.665   2.212   7.556 -0.0575  1.0669 -2.8929
  114CHL1    C214669   4.601   2.333   7.730  0.2258 -0.1098 -0.5513
  114CHL1   H2A14670   4.607   2.241   7.792  2.1941  0.0096 -0.4967
  114CHL1   H2B14671   4.523   2.408   7.755  1.6580  1.0728  0.6054
  114CHL1   C2014672   4.542   2.220   6.789  0.1686 -0.4110 -0.5475
  114CHL1   H2014673   4.516   2.316   6.739 -2.0933 -0.0443  1.1908
  114CHL1   C2114674   4.409   2.167   6.838 -0.1717  0.4974  0.2839
  114CHL1  H21A14675   4.414   2.066   6.883 -0.5473  0.1791 -0.3695
  114CHL1  H21B14676   4.335   2.162   6.755 -3.0876  0.7200  2.7121
  114CHL1  H21C14677   4.360   2.232   6.914  0.5983 -1.3672  2.4978
  114CHL1   C2214678   4.606   2.124   6.688  0.1827  0.2206 -0.7624
  114CHL1  H22A14679   4.711   2.145   6.659  0.7622 -0.0402  1.0273
  114CHL1  H22B14680   4.600   2.021   6.730 -0.9138 -0.2046 -1.8898
  114CHL1   C2314681   4.522   2.108   6.558 -0.2738 -0.4203 -0.2636
  114CHL1  H23A14682   4.413   2.099   6.577 -0.6896  0.2872 -2.0802
  114CHL1  H23B14683   4.551   2.194   6.494  0.2358 -1.0506 -0.9010
  114CHL1   C2414684   4.563   1.984   6.480  0.3101  0.2670  0.1949
  114CHL1  H24A14685   4.546   1.892   6.539 -0.4200 -1.2954 -2.3042
  114CHL1  H24B14686   4.502   1.972   6.388 -1.4524  0.3786  1.3071
  114CHL1   C2514687   4.713   1.969   6.443  0.4748 -0.1180  0.2639
  114CHL1   H2514688   4.769   1.960   6.539 -0.3878 -0.4293  0.7524
  114CHL1   C2614689   4.730   1.833   6.373 -0.0935 -0.2996  0.2048
  114CHL1  H26A14690   4.690   1.746   6.429  0.1373 -2.0320 -2.1753
  114CHL1  H26B14691   4.678   1.829   6.274 -1.4370 -0.8243  0.9053
  114CHL1  H26C14692   4.836   1.814   6.349 -0.2614 -0.5541 -0.3541
  114CHL1   C2714693   4.775   2.084   6.355  0.6168 -0.1935  0.0598
  114CHL1  H27A14694   4.725   2.101   6.257  0.1889  0.2397  0.3473
  114CHL1  H27B14695   4.767   2.181   6.410 -1.1915  0.6482 -1.5664
  114CHL1  H27C14696   4.877   2.056   6.323  0.6276 -1.0415  0.7867
  115CHL1    C314697   4.069   3.841   8.325  0.0974 -0.0801 -0.0627
  115CHL1    H314698   4.127   3.750   8.299 -0.5424 -0.3430 -0.6149
  115CHL1    O314699   4.077   3.864   8.463 -0.0761  0.1122 -1.0438
  115CHL1   H3'14700   4.167   3.888   8.488 -0.3243  2.8027 -2.3865
  115CHL1    C414701   4.122   3.961   8.258  0.1400  0.2560  0.3242
  115CHL1   H4A14702   4.052   4.038   8.299  0.6280  0.7443  0.2584
  115CHL1   H4B14703   4.221   3.993   8.299  0.7255 -2.5668  1.3065
  115CHL1    C514704   4.117   3.958   8.108 -1.2968  0.1941  0.2598
  115CHL1    C614705   4.229   3.988   8.043 -0.0295 -0.1803 -0.4078
  115CHL1    H614706   4.310   4.030   8.105 -1.4114  2.1198 -0.0258
  115CHL1    C714707   4.236   3.980   7.901  0.0686  0.1599  0.7820
  115CHL1   H7A14708   4.286   4.067   7.854 -0.4114  0.3214  0.5570
  115CHL1   H7B14709   4.308   3.905   7.862  0.8120  2.0753 -1.7712
  115CHL1    C814710   4.102   3.977   7.820  0.0774  0.8920  0.1177
  115CHL1    H814711   4.054   4.077   7.825  0.2720  0.9466  1.4758
  115CHL1   C1414712   4.114   3.939   7.678 -0.3043  0.2332  0.3977
  115CHL1   H1414713   4.145   3.832   7.680 -2.3559 -0.4150  1.5049
  115CHL1   C1514714   4.217   4.007   7.586  0.3148 -0.2476  0.4943
  115CHL1  H15A14715   4.207   4.112   7.621  2.9429  0.0914  0.4322
  115CHL1  H15B14716   4.316   3.967   7.615 -0.5816 -2.7625  0.3150
  115CHL1   C1614717   4.163   3.972   7.447 -0.3553  0.9172  0.2240
  115CHL1  H16A14718   4.139   4.069   7.399 -0.0099  0.7647 -0.2597
  115CHL1  H16B14719   4.226   3.901   7.389 -2.7401  0.8098 -2.4117
  115CHL1   C1714720   4.028   3.892   7.456  0.7164  0.4941 -0.9955
  115CHL1   H1714721   4.054   3.784   7.456 -2.3238 -0.3659  0.8931
  115CHL1   C1314722   3.982   3.926   7.599  0.1813 -0.6027  0.7735
  115CHL1   C1814723   3.894   4.056   7.591  0.2268  1.0871  0.2825
  115CHL1  H18A14724   3.876   4.100   7.691 -1.2399  2.2352 -0.4489
  115CHL1  H18B14725   3.945   4.127   7.522 -0.4531  1.9596  0.6610
  115CHL1  H18C14726   3.795   4.034   7.547  0.3839  0.5932  0.1673
  115CHL1   C1214727   3.892   3.820   7.668  0.0709  0.5659  0.6944
  115CHL1  H12A14728   3.800   3.796   7.610  2.1185 -0.2249 -2.4714
  115CHL1  H12B14729   3.961   3.734   7.653  0.2619  0.3201  2.7792
  115CHL1   C1114730   3.871   3.847   7.818 -0.4493 -0.2118 -0.2421
  115CHL1  H11A14731   3.806   3.937   7.821  1.0822  1.0676 -2.2314
  115CHL1  H11B14732   3.816   3.761   7.860 -0.1990 -0.5316 -0.5657
  115CHL1    C914733   4.006   3.872   7.894 -0.6792  0.0347  0.8989
  115CHL1    H914734   4.055   3.774   7.875 -2.8696 -0.7532 -1.1025
  115CHL1   C1014735   3.986   3.906   8.040  0.4118 -0.0221 -0.5917
  115CHL1   C1914736   3.889   4.029   8.053 -0.7298 -0.5652  0.0473
  115CHL1  H19A14737   3.785   3.999   8.032 -1.0189  0.1675  0.3939
  115CHL1  H19B14738   3.904   4.069   8.156  0.9791 -1.6409  0.2656
  115CHL1  H19C14739   3.911   4.112   7.982 -1.2797 -0.1387  0.3731
  115CHL1    C114740   3.920   3.793   8.120 -0.4799 -0.2048 -0.4413
  115CHL1   H1A14741   3.810   3.787   8.104 -0.5802 -0.0483  0.1448
  115CHL1   H1B14742   3.973   3.701   8.086  1.6001  1.4003 -1.7359
  115CHL1    C214743   3.925   3.811   8.278  0.6001  0.1501 -0.1199
  115CHL1   H2A14744   3.861   3.735   8.328 -1.4434  1.7948 -0.0971
  115CHL1   H2B14745   3.864   3.903   8.295  0.4672  0.2497 -1.0738
  115CHL1   C2014746   3.928   3.916   7.339  0.0753  0.8371 -0.2104
  115CHL1   H2014747   3.899   4.023   7.327  0.8040  0.9706 -0.8753
  115CHL1   C2114748   3.795   3.832   7.351 -0.3290  0.4304  0.5376
  115CHL1  H21A14749   3.814   3.728   7.386  0.2871  0.8926  1.6353
  115CHL1  H21B14750   3.740   3.827   7.255  0.9670  1.2264 -0.2750
  115CHL1  H21C14751   3.723   3.880   7.421 -2.2204 -0.5867 -0.6045
  115CHL1   C2214752   3.992   3.892   7.200 -0.0117 -0.4771 -0.0948
  115CHL1  H22A14753   4.088   3.948   7.208 -0.2173 -0.3602  2.3271
  115CHL1  H22B14754   4.025   3.788   7.180  1.2418 -0.2713  0.7688
  115CHL1   C2314755   3.907   3.942   7.080  0.0177 -0.8869 -0.1759
  115CHL1  H23A14756   3.807   3.894   7.077 -0.8354  0.5561  2.1916
  115CHL1  H23B14757   3.898   4.052   7.096 -0.1285 -0.8918 -0.2240
  115CHL1   C2414758   3.984   3.920   6.949  0.7272 -0.1131 -0.3347
  115CHL1  H24A14759   4.084   3.968   6.958  0.7962 -0.0064 -1.5170
  115CHL1  H24B14760   3.995   3.812   6.924 -0.2750 -0.1699 -0.5583
  115CHL1   C2514761   3.915   3.990   6.827 -0.2757  0.1824  0.1214
  115CHL1   H2514762   3.903   4.093   6.866  0.2792 -0.4922  2.1898
  115CHL1   C2614763   4.009   3.991   6.707 -0.7498 -0.0648 -0.4396
  115CHL1  H26A14764   4.028   3.891   6.663 -2.0228 -0.2477 -0.6113
  115CHL1  H26B14765   3.970   4.054   6.624  0.3165  0.2543 -0.7123
  115CHL1  H26C14766   4.105   4.038   6.739  0.5917 -0.6419 -3.2629
  115CHL1   C2714767   3.784   3.923   6.797  1.0825  0.0849 -0.7307
  115CHL1  H27A14768   3.728   3.911   6.893  0.3250  1.1951 -1.0095
  115CHL1  H27B14769   3.726   3.989   6.729 -0.0528  0.0444  0.1604
  115CHL1  H27C14770   3.806   3.824   6.752 -2.1248 -0.9257 -0.3414
  116CHL1    C314771   3.896   4.265   8.436  0.6997  1.0327  0.1743
  116CHL1    H314772   3.903   4.167   8.383 -1.2046  1.9761 -2.0017
  116CHL1    O314773   3.889   4.241   8.578 -1.2954  0.6597 -0.7546
  116CHL1   H3'14774   3.980   4.266   8.596 -0.4593 -1.9572 -0.9634
  116CHL1    C414775   4.022   4.342   8.396 -0.3102 -0.0606 -0.2179
  116CHL1   H4A14776   4.020   4.440   8.449  0.5022  0.0187 -0.3153
  116CHL1   H4B14777   4.113   4.291   8.434  0.1738 -0.6339 -2.0045
  116CHL1    C514778   4.039   4.360   8.246  0.4958 -0.4220 -0.7664
  116CHL1    C614779   4.145   4.320   8.178  0.4276  1.0921 -0.2128
  116CHL1    H614780   4.229   4.278   8.235 -1.7607 -2.9984  0.4287
  116CHL1    C714781   4.159   4.345   8.030 -0.0242  0.0347 -0.2475
  116CHL1   H7A14782   4.267   4.363   8.010  0.3248 -2.2256 -0.7476
  116CHL1   H7B14783   4.130   4.246   7.987 -1.3091  1.0657 -1.8576
  116CHL1    C814784   4.058   4.442   7.956  0.2088 -0.6054 -0.3202
  116CHL1    H814785   4.102   4.543   7.965 -0.2152 -0.3319 -1.1255
  116CHL1   C1414786   4.043   4.407   7.804  0.0128  0.2603 -0.8218
  116CHL1   H1414787   4.001   4.304   7.802  0.9095 -0.2322  1.9231
  116CHL1   C1514788   4.177   4.392   7.723  0.6262 -0.5112 -0.5933
  116CHL1  H15A14789   4.239   4.481   7.747  0.2103 -0.4968  0.4762
  116CHL1  H15B14790   4.224   4.295   7.750 -2.2254 -1.3669  1.7746
  116CHL1   C1614791   4.118   4.391   7.583 -0.3056 -0.0362  0.1457
  116CHL1  H16A14792   4.164   4.472   7.523 -0.6812  0.3197  0.3388
  116CHL1  H16B14793   4.122   4.292   7.532 -2.4134  0.1206 -0.4285
  116CHL1   C1714794   3.966   4.438   7.592  0.1497  0.1789  0.5256
  116CHL1   H1714795   3.901   4.348   7.593  1.2627 -0.6782 -0.4010
  116CHL1   C1314796   3.958   4.505   7.727 -0.2039 -0.1114 -0.0313
  116CHL1   C1814797   4.019   4.655   7.720  0.5353  0.1470 -0.4876
  116CHL1  H18A14798   3.948   4.709   7.654 -1.7963 -3.8792 -1.5964
  116CHL1  H18B14799   4.009   4.704   7.819 -3.7515 -1.2475 -0.0211
  116CHL1  H18C14800   4.124   4.655   7.684  0.8503 -1.5980  0.3066
  116CHL1   C1214801   3.813   4.504   7.788 -0.1690 -0.6524  0.3191
  116CHL1  H12A14802   3.767   4.591   7.737  3.7713  0.2724 -2.0475
  116CHL1  H12B14803   3.760   4.410   7.759  0.6173 -0.6751 -1.0925
  116CHL1   C1114804   3.817   4.514   7.943  0.5837  0.2319  0.7591
  116CHL1  H11A14805   3.845   4.621   7.955  0.5471  0.5536 -1.6142
  116CHL1  H11B14806   3.716   4.493   7.985  1.2075  1.3549  2.9866
  116CHL1    C914807   3.916   4.427   8.019 -0.6425 -0.2412 -0.1776
  116CHL1    H914808   3.897   4.318   8.008 -0.5622 -0.2172 -0.5601
  116CHL1   C1014809   3.916   4.426   8.174 -0.2912 -0.9144  0.3920
  116CHL1   C1914810   3.916   4.571   8.209  1.0069 -0.1666 -0.1156
  116CHL1  H19A14811   3.837   4.641   8.174  0.4483 -0.4398  0.5545
  116CHL1  H19B14812   3.908   4.582   8.320  0.3229  0.1470 -0.1911
  116CHL1  H19C14813   4.015   4.611   8.177  1.1170  0.3680  0.8311
  116CHL1    C114814   3.790   4.362   8.226  0.7677 -0.2187 -0.6247
  116CHL1   H1A14815   3.700   4.420   8.195  1.9987  0.9871 -2.0926
  116CHL1   H1B14816   3.775   4.259   8.188 -1.4278 -0.0875 -0.2780
  116CHL1    C214817   3.781   4.337   8.383  0.7913 -0.5623  0.4572
  116CHL1   H2A14818   3.684   4.293   8.411  1.3581 -1.0143  1.7897
  116CHL1   H2B14819   3.779   4.442   8.420  0.4745 -0.4600  0.1591
  116CHL1   C2014820   3.927   4.518   7.468 -0.7314 -0.4173 -0.6151
  116CHL1   H2014821   3.994   4.604   7.443 -1.4448 -0.0165 -1.2202
  116CHL1   C2114822   3.777   4.568   7.466 -0.8953  0.3257 -0.1318
  116CHL1  H21A14823   3.705   4.485   7.483  0.2720 -0.8082 -0.4474
  116CHL1  H21B14824   3.749   4.614   7.369 -0.1683 -1.0485 -1.0273
  116CHL1  H21C14825   3.766   4.648   7.542  1.3857  0.4726  0.1356
  116CHL1   C2214826   3.950   4.429   7.335 -0.0120 -1.5631 -0.1022
  116CHL1  H22A14827   4.058   4.410   7.320  0.5607  0.5887  0.9234
  116CHL1  H22B14828   3.889   4.336   7.326  0.1128 -1.7022  0.4502
  116CHL1   C2314829   3.929   4.515   7.206  0.4324 -0.1308 -0.6809
  116CHL1  H23A14830   3.820   4.522   7.186 -0.0500 -2.0572  0.9502
  116CHL1  H23B14831   3.974   4.616   7.219  1.4773 -0.8288  1.7902
  116CHL1   C2414832   3.981   4.438   7.078 -0.0165 -0.3159  0.1959
  116CHL1  H24A14833   4.091   4.430   7.093 -0.0038  0.2571  0.4162
  116CHL1  H24B14834   3.945   4.335   7.099 -1.3076 -0.0571 -0.6341
  116CHL1   C2514835   3.948   4.498   6.941  0.2282  0.1572 -0.3127
  116CHL1   H2514836   3.955   4.420   6.863 -0.3457 -1.1047  0.8464
  116CHL1   C2614837   3.814   4.565   6.933  0.3193  0.3644 -0.8943
  116CHL1  H26A14838   3.807   4.657   6.997 -0.9932 -0.9956  1.0499
  116CHL1  H26B14839   3.785   4.585   6.828  1.2084  0.2310 -1.1683
  116CHL1  H26C14840   3.734   4.494   6.966  0.2650  0.0698 -1.6484
  116CHL1   C2714841   4.046   4.607   6.903 -0.5816 -0.5420 -0.3751
  116CHL1  H27A14842   4.146   4.565   6.878 -1.1714 -0.3360 -3.4519
  116CHL1  H27B14843   4.013   4.657   6.809  1.0767  0.8916 -0.2276
  116CHL1  H27C14844   4.059   4.680   6.985  1.9844 -1.0972 -0.2164
  117CHL1    C314845   4.542   3.200   8.034  0.5068  0.1799 -0.4271
  117CHL1    H314846   4.489   3.297   8.022 -2.2294 -1.0819  0.7313
  117CHL1    O314847   4.578   3.169   8.166 -0.3088  0.3517  0.4525
  117CHL1   H3'14848   4.621   3.084   8.154 -0.4539  0.2752  0.4620
  117CHL1    C414849   4.439   3.088   7.978 -0.3861 -0.4532 -0.3962
  117CHL1   H4A14850   4.485   2.987   7.986  0.0946 -0.5968 -3.5987
  117CHL1   H4B14851   4.353   3.097   8.047 -0.7302 -0.0519 -0.8713
  117CHL1    C514852   4.391   3.120   7.839 -0.1537 -0.0419  0.1453
  117CHL1    C614853   4.262   3.131   7.807 -0.1739  0.5680 -0.1170
  117CHL1    H614854   4.178   3.139   7.877 -0.6198  2.5237 -0.8092
  117CHL1    C714855   4.219   3.132   7.661 -0.5828  0.4866  0.1323
  117CHL1   H7A14856   4.146   3.053   7.633  0.4792 -0.2272 -0.7044
  117CHL1   H7B14857   4.176   3.232   7.640  0.6088  0.8086 -0.9160
  117CHL1    C814858   4.340   3.110   7.552 -0.2494 -0.7203 -0.0986
  117CHL1    H814859   4.344   2.999   7.551  2.8000 -0.6851  0.2066
  117CHL1   C1414860   4.306   3.162   7.422 -0.8573  0.0979 -0.2178
  117CHL1   H1414861   4.319   3.273   7.424  2.5524 -0.1404 -1.8320
  117CHL1   C1514862   4.161   3.125   7.371 -0.0942 -0.1176  0.1121
  117CHL1  H15A14863   4.122   3.024   7.397 -1.3000  0.0700 -0.8437
  117CHL1  H15B14864   4.092   3.201   7.413  0.7875  0.5081  0.4465
  117CHL1   C1614865   4.170   3.137   7.215  0.2709 -0.2373 -0.2677
  117CHL1  H16A14866   4.132   3.045   7.165 -0.2087 -0.1524 -0.0694
  117CHL1  H16B14867   4.095   3.215   7.189 -0.9804 -1.2705  0.1374
  117CHL1   C1714868   4.315   3.173   7.186 -0.6530  0.4405  0.0635
  117CHL1   H1714869   4.340   3.281   7.195  1.2287 -0.1137  2.7431
  117CHL1   C1314870   4.398   3.128   7.306 -0.5618  0.7426  0.2121
  117CHL1   C1814871   4.414   2.975   7.303  0.4792 -0.0611 -0.0348
  117CHL1  H18A14872   4.464   2.937   7.395 -0.7533 -0.8514  0.3250
  117CHL1  H18B14873   4.315   2.925   7.309 -0.5531  1.6977 -1.4404
  117CHL1  H18C14874   4.453   2.939   7.206  0.1993 -0.4983  0.0130
  117CHL1   C1214875   4.531   3.200   7.337  0.1992  0.7694  0.4416
  117CHL1  H12A14876   4.611   3.169   7.266 -0.8533  0.2718 -0.5681
  117CHL1  H12B14877   4.514   3.309   7.330 -0.4188  0.5640 -4.4251
  117CHL1   C1114878   4.585   3.155   7.475 -0.6472  0.2882  0.3806
  117CHL1  H11A14879   4.622   3.052   7.458  1.2883  1.0953 -0.7510
  117CHL1  H11B14880   4.674   3.219   7.496 -0.2082 -0.7543  1.8024
  117CHL1    C914881   4.481   3.169   7.588 -0.3248  0.4721 -0.3425
  117CHL1    H914882   4.457   3.277   7.594 -0.0105  0.6065 -1.4140
  117CHL1   C1014883   4.519   3.125   7.737  0.1330  0.2593 -0.1966
  117CHL1   C1914884   4.588   2.990   7.728  0.4459 -0.4473 -0.2889
  117CHL1  H19A14885   4.685   2.997   7.674  0.3794 -1.5986 -0.5857
  117CHL1  H19B14886   4.609   2.949   7.829  0.7298  0.6125  0.0943
  117CHL1  H19C14887   4.520   2.916   7.681 -1.5781  0.1400  1.5705
  117CHL1    C114888   4.626   3.225   7.790 -0.0516  0.3423 -0.0617
  117CHL1   H1A14889   4.721   3.211   7.733 -0.4308  0.6893 -0.7910
  117CHL1   H1B14890   4.585   3.328   7.787  1.2638  0.8921 -0.0386
  117CHL1    C214891   4.663   3.198   7.938  0.0196 -0.7039 -0.5716
  117CHL1   H2A14892   4.737   3.277   7.964 -1.0054 -0.4725  1.9599
  117CHL1   H2B14893   4.718   3.101   7.943  2.7037  0.7469  2.9988
  117CHL1   C2014894   4.346   3.133   7.049  0.0548  0.4341  0.6317
  117CHL1   H2014895   4.360   3.024   7.032  0.3752  0.8368 -2.2272
  117CHL1   C2114896   4.475   3.200   6.995 -0.0058  0.2715 -0.3368
  117CHL1  H21A14897   4.564   3.152   7.042 -1.5697 -1.9505  0.5193
  117CHL1  H21B14898   4.484   3.308   7.019 -1.1667  0.1119  0.9553
  117CHL1  H21C14899   4.494   3.208   6.886 -1.8299  1.6676 -0.5926
  117CHL1   C2214900   4.234   3.175   6.946  0.1774  0.4079 -0.5886
  117CHL1  H22A14901   4.136   3.132   6.976  0.7689 -2.4253 -2.3694
  117CHL1  H22B14902   4.224   3.286   6.947  0.0240  0.3969  0.2118
  117CHL1   C2314903   4.265   3.120   6.808 -0.6901 -0.2490  0.2682
  117CHL1  H23A14904   4.299   3.206   6.746  3.8204 -1.4289  0.7214
  117CHL1  H23B14905   4.344   3.042   6.806 -1.3278 -0.8926 -0.4101
  117CHL1   C2414906   4.136   3.071   6.743  0.4160 -0.4152  0.6342
  117CHL1  H24A14907   4.094   2.980   6.791 -0.6801  0.1753  0.8369
  117CHL1  H24B14908   4.060   3.152   6.748  0.4443 -0.0977 -2.2074
  117CHL1   C2514909   4.145   3.026   6.599 -0.0377 -0.4583  0.1855
  117CHL1   H2514910   4.165   3.116   6.537 -2.7802  0.3798  0.4033
  117CHL1   C2614911   4.265   2.939   6.579  0.6858 -0.0795 -0.3366
  117CHL1  H26A14912   4.256   2.894   6.478 -2.3626 -2.2049  0.7118
  117CHL1  H26B14913   4.356   3.000   6.592 -0.1264  0.6669  2.7203
  117CHL1  H26C14914   4.273   2.862   6.659 -1.6968  0.2795  0.3283
  117CHL1   C2714915   4.001   2.972   6.556 -0.2311  0.3019 -0.2618
  117CHL1  H27A14916   3.994   2.960   6.445 -1.0468  2.2736 -0.4642
  117CHL1  H27B14917   3.977   2.876   6.607  1.7939  0.3846  0.9406
  117CHL1  H27C14918   3.929   3.052   6.582  1.2185  2.2826 -2.0036
  118CHL1    C314919   0.224   1.810   7.943 -0.5566  0.2515  0.0071
  118CHL1    H314920   0.330   1.813   7.909 -1.0451  1.2724 -1.5646
  118CHL1    O314921   0.219   1.813   8.085  0.4508 -0.1794  0.0282
  118CHL1   H3'14922   0.128   1.801   8.114 -0.1387 -0.1367 -1.6678
  118CHL1    C414923   0.160   1.935   7.875  0.4599  0.1856 -0.0633
  118CHL1   H4A14924   0.056   1.930   7.912 -0.4511 -2.1470 -2.6472
  118CHL1   H4B14925   0.216   2.024   7.913  0.1984  1.3921 -2.3267
  118CHL1    C514926   0.161   1.917   7.727 -0.8464 -0.3170  0.1118
  118CHL1    C614927   0.228   2.010   7.653 -0.1487  0.3509  0.7338
  118CHL1    H614928   0.275   2.097   7.701  0.2241  0.6770 -0.2007
  118CHL1    C714929   0.213   2.014   7.506  0.2409 -0.4286 -0.2053
  118CHL1   H7A14930   0.188   2.118   7.477 -3.5606 -0.9160  0.8235
  118CHL1   H7B14931   0.307   1.978   7.460 -0.1124 -3.1870  1.0560
  118CHL1    C814932   0.101   1.928   7.454  0.2088  0.0393  0.3618
  118CHL1    H814933   0.009   1.984   7.479  0.5077  0.3900  0.6930
  118CHL1   C1414934   0.117   1.911   7.304  0.2156 -0.3879 -0.3927
  118CHL1   H1414935   0.218   1.868   7.286  0.4631  1.1141 -3.2363
  118CHL1   C1514936   0.130   2.038   7.226  0.1764  0.5611  1.3064
  118CHL1  H15A14937   0.043   2.102   7.252 -0.7089 -1.1992  3.0383
  118CHL1  H15B14938   0.227   2.091   7.240 -0.1633  1.4797  0.2932
  118CHL1   C1614939   0.106   1.995   7.084  0.3302  0.3606 -0.2636
  118CHL1  H16A14940   0.031   2.054   7.028 -2.3366 -0.4778  2.2112
  118CHL1  H16B14941   0.207   1.992   7.036  1.4343 -0.1901  1.9488
  118CHL1   C1714942   0.054   1.846   7.094  0.0533  0.5468  0.1344
  118CHL1   H1714943   0.137   1.772   7.082 -0.6900 -0.5704  1.5531
  118CHL1   C1314944   0.003   1.824   7.242  0.0567 -0.9512 -0.4169
  118CHL1   C1814945  -0.129   1.895   7.257 -0.2782 -0.0401  0.5305
  118CHL1  H18A14946  -0.214   1.840   7.212 -0.4996 -1.2327  2.2789
  118CHL1  H18B14947  -0.163   1.917   7.361  0.7146  0.8607  0.6785
  118CHL1  H18C14948  -0.130   1.994   7.208 -2.3079 -0.3789 -0.2211
  118CHL1   C1214949   0.015   1.687   7.309 -0.3576 -0.7244  0.7028
  118CHL1  H12A14950  -0.067   1.625   7.266 -0.5414  0.2664 -0.4231
  118CHL1  H12B14951   0.106   1.626   7.289 -0.5798 -1.2359  1.2104
  118CHL1   C1114952  -0.013   1.704   7.454 -0.3679  0.0139 -1.0855
  118CHL1  H11A14953  -0.114   1.749   7.458  0.2538  1.6314 -2.4974
  118CHL1  H11B14954  -0.014   1.598   7.489  0.3972 -0.2339 -1.7921
  118CHL1    C914955   0.099   1.788   7.520  0.4182  0.1466 -0.5195
  118CHL1    H914956   0.195   1.738   7.499  0.2055  0.4760 -2.4916
  118CHL1   C1014957   0.085   1.800   7.674  1.0527 -0.4131  0.1375
  118CHL1   C1914958  -0.067   1.821   7.707 -0.2538 -0.2627  0.5744
  118CHL1  H19A14959  -0.088   1.820   7.816 -0.3561 -1.5537  0.5641
  118CHL1  H19B14960  -0.093   1.920   7.664  1.4192 -0.0846 -0.1237
  118CHL1  H19C14961  -0.133   1.742   7.665  1.2221 -1.4504  0.4150
  118CHL1    C114962   0.143   1.673   7.743 -1.0067 -0.0708  0.4400
  118CHL1   H1A14963   0.075   1.586   7.730 -2.3166  1.1625 -1.6032
  118CHL1   H1B14964   0.242   1.652   7.696 -0.6934  2.4757 -0.1912
  118CHL1    C214965   0.154   1.680   7.894  0.2192  0.5919 -0.2205
  118CHL1   H2A14966   0.217   1.598   7.935 -1.8534 -2.6208 -2.9563
  118CHL1   H2B14967   0.052   1.682   7.938 -0.3738 -0.3158 -1.5203
  118CHL1   C2014968  -0.040   1.804   6.980 -0.2535 -0.6238 -0.7211
  118CHL1   H2014969  -0.133   1.864   6.992 -0.1935  0.3568 -4.2379
  118CHL1   C2114970  -0.049   1.657   6.991  0.4568  0.3684 -0.5270
  118CHL1  H21A14971  -0.067   1.609   6.893  1.6836  0.5890 -0.8730
  118CHL1  H21B14972  -0.131   1.631   7.061 -0.3063 -0.2393 -1.6264
  118CHL1  H21C14973   0.043   1.601   7.018  0.7961 -0.4706 -3.1617
  118CHL1   C2214974   0.039   1.841   6.850  0.5386 -0.1968  0.0798
  118CHL1  H22A14975   0.082   1.943   6.860  0.4771 -0.1718  0.0878
  118CHL1  H22B14976   0.123   1.768   6.843  0.4931 -0.3572  1.0655
  118CHL1   C2314977  -0.048   1.843   6.719  0.0211  0.0234 -0.0876
  118CHL1  H23A14978  -0.090   1.741   6.703  0.2537 -0.6967  3.1516
  118CHL1  H23B14979  -0.131   1.915   6.732 -0.5546  0.0108 -3.0016
  118CHL1   C2414980   0.029   1.891   6.606  0.1639 -0.1832 -0.8289
  118CHL1  H24A14981   0.057   1.998   6.614 -1.6972  0.3414 -0.7659
  118CHL1  H24B14982   0.116   1.822   6.611 -0.2240 -1.0915 -4.1033
  118CHL1   C2514983  -0.036   1.866   6.470 -0.2827 -0.4588 -0.2314
  118CHL1   H2514984  -0.055   1.757   6.466 -1.9365 -0.2505  0.8763
  118CHL1   C2614985  -0.160   1.952   6.455  0.3715 -0.6010  0.3332
  118CHL1  H26A14986  -0.145   2.050   6.504  2.1832 -0.7184  0.1047
  118CHL1  H26B14987  -0.178   1.968   6.346 -0.5034  3.9245  0.9575
  118CHL1  H26C14988  -0.253   1.903   6.489 -1.2146  1.4225 -0.9031
  118CHL1   C2714989   0.063   1.886   6.354 -0.3047 -0.2141 -0.2334
  118CHL1  H27A14990   0.166   1.851   6.380 -0.9630 -0.2170  2.8366
  118CHL1  H27B14991   0.038   1.825   6.265  0.5152 -0.3200 -0.4065
  118CHL1  H27C14992   0.053   1.987   6.311 -3.0190 -1.5528 -3.0548
  119CHL1    C314993   1.750   3.170   8.218 -0.8344  0.2174  0.4851
  119CHL1    H314994   1.679   3.085   8.217 -1.8650  1.0123 -1.9465
  119CHL1    O314995   1.734   3.237   8.342  0.0238  0.0844  0.6274
  119CHL1   H3'14996   1.822   3.265   8.368  1.8006 -1.9468 -2.5577
  119CHL1    C414997   1.898   3.122   8.197  0.0643  0.4456  0.4478
  119CHL1   H4A14998   1.959   3.214   8.196  0.3463  0.2612 -0.8738
  119CHL1   H4B14999   1.923   3.060   8.286  1.9834 -1.4157 -1.2725
  119CHL1    C515000   1.902   3.046   8.061  0.0550 -0.9246  0.4252
  119CHL1    C615001   1.940   2.916   8.057  0.3033  0.0097  0.3443
  119CHL1    H615002   1.968   2.870   8.153  0.6489  0.6259  0.5421
  119CHL1    C715003   1.940   2.839   7.930 -0.0701 -0.0248  0.4201
  119CHL1   H7A15004   2.035   2.782   7.918  0.7467  1.2945  0.4985
  119CHL1   H7B15005   1.864   2.758   7.938 -1.9798  1.6854  0.3843
  119CHL1    C815006   1.920   2.924   7.794 -0.2254 -0.2254 -0.1518
  119CHL1    H815007   2.019   2.973   7.779  1.2180 -2.8821  0.0872
  119CHL1   C1415008   1.891   2.826   7.680  0.0993 -0.2076  0.4009
  119CHL1   H1415009   1.787   2.790   7.697  0.0869 -0.5959 -0.4443
  119CHL1   C1515010   1.972   2.698   7.659  0.1413  0.6748 -0.0608
  119CHL1  H15A15011   2.079   2.721   7.676 -0.1360  0.9125  1.5789
  119CHL1  H15B15012   1.930   2.613   7.718 -0.2608  1.1789  0.3863
  119CHL1   C1615013   1.945   2.673   7.510 -0.1108 -0.8771 -0.3308
  119CHL1  H16A15014   2.043   2.658   7.462 -0.8669 -2.1020 -1.5452
  119CHL1  H16B15015   1.891   2.577   7.496 -1.3483 -0.4218  1.0053
  119CHL1   C1715016   1.864   2.781   7.444 -0.2557  0.1508  0.6113
  119CHL1   H1715017   1.755   2.759   7.450 -0.4919  0.4797 -1.4800
  119CHL1   C1315018   1.886   2.896   7.537  0.1508  0.1191 -0.1175
  119CHL1   C1815019   2.019   2.966   7.500  0.0612 -0.2344 -0.5699
  119CHL1  H18A15020   2.043   3.054   7.563  1.2111 -0.6361 -0.4118
  119CHL1  H18B15021   2.109   2.902   7.516  1.0298  1.0822 -0.5868
  119CHL1  H18C15022   2.001   3.015   7.402 -0.8689  1.1020  0.2357
  119CHL1   C1215023   1.771   2.997   7.563 -0.0491  0.2785  0.2492
  119CHL1  H12A15024   1.763   3.066   7.476  2.9653  2.7505  1.7551
  119CHL1  H12B15025   1.670   2.951   7.558  0.2228 -0.3393  0.3386
  119CHL1   C1115026   1.776   3.096   7.679 -0.3956 -0.0551 -0.5368
  119CHL1  H11A15027   1.859   3.162   7.646  0.0051 -0.4469 -0.3341
  119CHL1  H11B15028   1.685   3.158   7.669  1.6669  3.4771  0.8710
  119CHL1    C915029   1.815   3.030   7.816  0.8993  0.3200  0.2522
  119CHL1    H915030   1.723   2.974   7.844  1.3672 -1.1218 -1.0038
  119CHL1   C1015031   1.851   3.122   7.936  1.6658  0.1350 -0.2946
  119CHL1   C1915032   1.947   3.228   7.884  0.4565 -0.3988  0.4647
  119CHL1  H19A15033   2.039   3.191   7.833  0.0356 -0.0921 -0.5466
  119CHL1  H19B15034   1.888   3.301   7.825  0.1423  0.5560  1.9206
  119CHL1  H19C15035   1.978   3.288   7.971 -0.7360  1.2019 -0.1644
  119CHL1    C115036   1.716   3.192   7.979 -0.1140  0.2261  0.2075
  119CHL1   H1A15037   1.681   3.254   7.894 -0.7428 -1.7312 -1.0264
  119CHL1   H1B15038   1.639   3.113   7.991  2.0647 -2.2282 -0.7461
  119CHL1    C215039   1.705   3.267   8.109 -0.9453  0.5670  0.3322
  119CHL1   H2A15040   1.601   3.300   8.130 -1.1097 -0.4551  1.2261
  119CHL1   H2B15041   1.773   3.355   8.100  2.7615 -2.1450 -0.7305
  119CHL1   C2015042   1.908   2.806   7.293  0.2712  0.3262  0.1653
  119CHL1   H2015043   2.009   2.853   7.290  0.2753  0.4557  1.5918
  119CHL1   C2115044   1.798   2.891   7.226  0.1821  0.2919  0.2535
  119CHL1  H21A15045   1.776   2.988   7.276  0.8366  0.6802 -0.2033
  119CHL1  H21B15046   1.698   2.842   7.232 -1.0842  2.5574 -0.7468
  119CHL1  H21C15047   1.815   2.909   7.118 -0.0491 -2.4609 -0.2991
  119CHL1   C2215048   1.916   2.672   7.214  0.2217 -1.2542  0.5435
  119CHL1  H22A15049   1.987   2.603   7.265  0.2335 -0.3842  1.7259
  119CHL1  H22B15050   1.818   2.620   7.205 -0.2622 -0.2600 -0.0682
  119CHL1   C2315051   1.967   2.674   7.064  0.0376 -0.3193  1.0432
  119CHL1  H23A15052   1.904   2.746   7.008  0.6618 -0.7774 -0.3008
  119CHL1  H23B15053   2.069   2.717   7.070 -0.7229  1.4370  2.2639
  119CHL1   C2415054   1.949   2.537   7.005 -0.5221  0.2478  0.0322
  119CHL1  H24A15055   2.022   2.469   7.054 -0.4881 -0.0926 -0.4885
  119CHL1  H24B15056   1.844   2.506   7.026 -1.0881  3.2123  2.1759
  119CHL1   C2515057   1.973   2.534   6.855 -0.6577 -0.0717  0.4093
  119CHL1   H2515058   1.889   2.595   6.815 -1.7582 -2.2031 -0.6707
  119CHL1   C2615059   2.104   2.594   6.814 -0.4260  0.1267  0.2057
  119CHL1  H26A15060   2.190   2.573   6.880 -0.8301 -0.1825  0.6403
  119CHL1  H26B15061   2.121   2.565   6.708 -0.2072  0.4538  0.1482
  119CHL1  H26C15062   2.086   2.704   6.813 -0.5834  0.0992 -0.2788
  119CHL1   C2715063   1.950   2.396   6.795  0.0999  0.2066 -0.0104
  119CHL1  H27A15064   2.034   2.324   6.808 -1.1147 -1.5874 -1.6121
  119CHL1  H27B15065   1.849   2.354   6.817 -0.2223 -0.4401 -2.4583
  119CHL1  H27C15066   1.955   2.399   6.684 -0.7950 -1.0821 -0.1162
  120CHL1    C315067   4.394   0.783   8.202  0.2875  0.3141  0.6294
  120CHL1    H315068   4.473   0.707   8.220 -1.0949 -0.8764  1.9518
  120CHL1    O315069   4.350   0.842   8.325 -0.6648  0.3721 -0.0488
  120CHL1   H3'15070   4.424   0.903   8.339 -0.4724  0.3354 -0.8687
  120CHL1    C415071   4.429   0.902   8.109  0.1670 -0.8205 -0.1444
  120CHL1   H4A15072   4.362   0.988   8.124 -1.8015 -2.0110 -1.6028
  120CHL1   H4B15073   4.531   0.939   8.136  0.6334 -1.7368 -0.5980
  120CHL1    C515074   4.424   0.875   7.961  0.1727  0.8872  0.7227
  120CHL1    C615075   4.533   0.910   7.890 -0.0515  0.2856  0.1685
  120CHL1    H615076   4.620   0.960   7.936  1.6344 -0.4674 -2.0217
  120CHL1    C715077   4.531   0.891   7.738  0.5377 -0.3529 -0.2763
  120CHL1   H7A15078   4.592   0.965   7.682 -0.3386  0.3785 -0.2801
  120CHL1   H7B15079   4.574   0.789   7.727  1.5755 -0.1839  1.8182
  120CHL1    C815080   4.391   0.875   7.676  0.4670  0.2628  0.0185
  120CHL1    H815081   4.336   0.972   7.672 -2.3620 -1.1649  1.3884
  120CHL1   C1415082   4.401   0.817   7.539 -0.3497 -0.0279 -0.0992
  120CHL1   H1415083   4.450   0.718   7.545 -0.0648  0.0107 -1.5061
  120CHL1   C1515084   4.493   0.895   7.440 -0.0466 -0.2958 -0.1684
  120CHL1  H15A15085   4.477   1.004   7.453  2.1878 -0.0211  0.7298
  120CHL1  H15B15086   4.598   0.866   7.461  0.2071  1.4203  1.1552
  120CHL1   C1615087   4.447   0.845   7.300 -0.2622 -0.3627  0.1460
  120CHL1  H16A15088   4.418   0.933   7.239  2.8094 -0.2513 -1.3211
  120CHL1  H16B15089   4.533   0.791   7.255  1.4369  0.7477  1.9303
  120CHL1   C1715090   4.328   0.748   7.312  0.7343  0.5180  0.8199
  120CHL1   H1715091   4.368   0.647   7.336 -1.5141 -0.9050 -1.0218
  120CHL1   C1315092   4.268   0.786   7.456 -0.2412  0.3458 -0.1405
  120CHL1   C1815093   4.173   0.910   7.444  0.1442 -0.3992  0.4324
  120CHL1  H18A15094   4.087   0.880   7.380  1.3010 -0.1093 -1.3328
  120CHL1  H18B15095   4.122   0.939   7.538 -2.8385 -1.1621 -0.8428
  120CHL1  H18C15096   4.220   1.002   7.401 -0.8776 -0.0862 -0.0496
  120CHL1   C1215097   4.207   0.671   7.537  0.5653  0.1885  0.6832
  120CHL1  H12A15098   4.111   0.633   7.495 -0.3550  0.8135  2.1552
  120CHL1  H12B15099   4.279   0.587   7.540  1.2024  0.5770 -1.5882
  120CHL1   C1115100   4.178   0.717   7.682  0.3667  0.3977 -0.5175
  120CHL1  H11A15101   4.103   0.798   7.693  0.0088  0.0026 -0.0284
  120CHL1  H11B15102   4.155   0.624   7.737  0.5715  0.0969 -0.9345
  120CHL1    C915103   4.312   0.770   7.756 -0.0453  0.0166 -0.0944
  120CHL1    H915104   4.373   0.677   7.753  1.9141  1.2190  0.7695
  120CHL1   C1015105   4.298   0.811   7.902 -0.0788  0.7120 -0.3832
  120CHL1   C1915106   4.185   0.917   7.919 -0.5368 -0.4547 -0.7617
  120CHL1  H19A15107   4.167   0.940   8.026 -0.0817 -1.5339 -0.4395
  120CHL1  H19B15108   4.205   1.012   7.865  1.3756 -1.4501 -1.9384
  120CHL1  H19C15109   4.095   0.867   7.876 -0.7790  1.1228 -2.2001
  120CHL1    C115110   4.285   0.680   8.000 -0.0178  0.0742  0.0204
  120CHL1   H1A15111   4.188   0.632   7.975  0.0672 -0.2894  0.3852
  120CHL1   H1B15112   4.364   0.606   7.975 -0.3820 -0.0970 -0.6474
  120CHL1    C215113   4.278   0.706   8.145  0.6965  0.1244 -0.8090
  120CHL1   H2A15114   4.268   0.617   8.210  0.6966  1.6118  1.3558
  120CHL1   H2B15115   4.182   0.762   8.149 -0.3659 -1.5132 -2.3825
  120CHL1   C2015116   4.230   0.740   7.191  0.2240 -0.1465 -0.4272
  120CHL1   H2015117   4.181   0.838   7.171  0.5038  0.0610 -0.1053
  120CHL1   C2115118   4.120   0.634   7.218  1.2324  0.3595  0.3056
  120CHL1  H21A15119   4.074   0.602   7.122  0.6250  0.8649  0.4155
  120CHL1  H21B15120   4.037   0.676   7.280  0.6769  2.7993 -1.8921
  120CHL1  H21C15121   4.172   0.543   7.255  1.1005 -0.1167 -0.6611
  120CHL1   C2215122   4.310   0.696   7.061 -0.1939  0.1431 -0.4261
  120CHL1  H22A15123   4.391   0.772   7.063 -1.1890  1.2251 -0.5176
  120CHL1  H22B15124   4.365   0.602   7.085  0.2067  0.4225 -0.2460
  120CHL1   C2315125   4.226   0.705   6.930  0.2308  0.6609  0.5016
  120CHL1  H23A15126   4.134   0.643   6.932 -0.8223  2.1987  1.5508
  120CHL1  H23B15127   4.187   0.807   6.913  0.1363  0.0820 -3.7844
  120CHL1   C2415128   4.320   0.668   6.813  0.3465  0.4934  0.2771
  120CHL1  H24A15129   4.420   0.710   6.833  1.2519 -1.2661 -0.3760
  120CHL1  H24B15130   4.332   0.558   6.809 -2.0326  0.0267  2.6681
  120CHL1   C2515131   4.273   0.706   6.673  0.0283 -0.3838  0.8652
  120CHL1   H2515132   4.248   0.814   6.674  0.1483 -0.3536  0.4626
  120CHL1   C2615133   4.390   0.684   6.574 -0.6845  0.2964  0.1674
  120CHL1  H26A15134   4.397   0.576   6.547  0.6358  0.9291 -2.2801
  120CHL1  H26B15135   4.377   0.750   6.486 -0.8912 -1.9726 -1.5983
  120CHL1  H26C15136   4.486   0.714   6.620 -1.0872  0.3304  0.9972
  120CHL1   C2715137   4.144   0.633   6.626  0.5825 -1.0004 -1.0127
  120CHL1  H27A15138   4.144   0.523   6.638  1.3808 -0.8559  0.5464
  120CHL1  H27B15139   4.061   0.660   6.695  2.0237 -1.8626  1.1747
  120CHL1  H27C15140   4.122   0.664   6.522  0.5496  0.9910 -0.4524
  121CHL1    C315141   3.295   5.097   5.128  0.2037 -0.3503  0.6069
  121CHL1    H315142   3.193   5.140   5.139  0.9498  1.9041 -0.6159
  121CHL1    O315143   3.340   5.088   4.991  0.2845  0.2663  0.0632
  121CHL1   H3'15144   3.264   5.055   4.942 -0.6847  0.5915  1.2760
  121CHL1    C415145   3.394   5.191   5.197 -0.8133 -0.2640  0.0558
  121CHL1   H4A15146   3.498   5.153   5.181 -1.0321 -0.6860 -0.4142
  121CHL1   H4B15147   3.386   5.295   5.158 -0.5101 -0.4844 -0.6083
  121CHL1    C515148   3.380   5.205   5.351  0.2822 -0.1812 -0.2552
  121CHL1    C615149   3.368   5.320   5.419 -0.4734 -0.3733 -0.2957
  121CHL1    H615150   3.383   5.418   5.369  2.6000 -0.3342  0.4692
  121CHL1    C715151   3.365   5.327   5.567  0.2647 -0.0695 -0.4167
  121CHL1   H7A15152   3.443   5.402   5.593  2.7258 -1.4626 -3.2163
  121CHL1   H7B15153   3.262   5.357   5.596  0.3478 -0.5178  0.3589
  121CHL1    C815154   3.393   5.197   5.645 -0.6300 -0.2069  0.8458
  121CHL1    H815155   3.502   5.176   5.632 -0.4022  0.1794  2.0098
  121CHL1   C1415156   3.353   5.202   5.792 -0.1984  0.9886 -0.2792
  121CHL1   H1415157   3.243   5.207   5.781 -0.2931 -2.5488 -2.8114
  121CHL1   C1515158   3.398   5.314   5.879 -0.3913 -0.6928 -0.4335
  121CHL1  H15A15159   3.507   5.333   5.866 -0.1968  0.9049  2.5821
  121CHL1  H15B15160   3.340   5.406   5.857  0.4759 -0.2146 -0.7626
  121CHL1   C1615161   3.377   5.258   6.017 -0.6781 -0.1061  0.1570
  121CHL1  H16A15162   3.475   5.270   6.069  0.3935 -1.7539 -1.3601
  121CHL1  H16B15163   3.293   5.309   6.069 -2.0166 -0.7362 -1.2949
  121CHL1   C1715164   3.345   5.109   6.005  0.1852  0.1312  0.2895
  121CHL1   H1715165   3.234   5.099   6.006  0.2517 -1.2802  2.7235
  121CHL1   C1315166   3.386   5.072   5.867 -0.5178  0.2143 -0.1223
  121CHL1   C1815167   3.535   5.038   5.857  0.7901  0.8757 -0.0773
  121CHL1  H18A15168   3.576   5.018   5.756 -2.2360 -2.7739 -0.8218
  121CHL1  H18B15169   3.596   5.118   5.903 -1.8711  0.9936  3.7236
  121CHL1  H18C15170   3.547   4.941   5.911 -2.0046  0.1859 -0.5191
  121CHL1   C1215171   3.306   4.964   5.793 -0.6503  0.6353 -0.5868
  121CHL1  H12A15172   3.337   4.865   5.832 -3.3508 -0.1742 -0.3309
  121CHL1  H12B15173   3.198   4.969   5.821  0.0279 -1.6591  3.1793
  121CHL1   C1115174   3.337   4.954   5.651  0.6905  0.2240  0.4209
  121CHL1  H11A15175   3.443   4.926   5.636  0.2789 -0.5351 -1.2132
  121CHL1  H11B15176   3.279   4.867   5.614 -2.0316  1.0439  2.4354
  121CHL1    C915177   3.320   5.087   5.566  0.2983 -0.4294 -0.0415
  121CHL1    H915178   3.213   5.116   5.561  0.1534 -1.2045 -2.1509
  121CHL1   C1015179   3.368   5.068   5.421  0.0067 -1.1088  0.1189
  121CHL1   C1915180   3.509   5.002   5.415 -0.2002 -0.1998 -0.4245
  121CHL1  H19A15181   3.500   4.901   5.459 -0.4978  0.0059  0.0017
  121CHL1  H19B15182   3.550   4.991   5.313  1.2561 -0.8114  0.2094
  121CHL1  H19C15183   3.586   5.054   5.476  0.2426 -0.9539 -0.3312
  121CHL1    C115184   3.267   4.976   5.350 -0.0059 -0.5656  0.2088
  121CHL1   H1A15185   3.255   4.875   5.394 -0.6500 -1.0182 -0.9845
  121CHL1   H1B15186   3.172   5.033   5.366 -0.0220 -0.3350 -0.6575
  121CHL1    C215187   3.293   4.958   5.195 -0.2910 -0.8398  0.0383
  121CHL1   H2A15188   3.208   4.898   5.156 -1.4307 -1.4668  3.2081
  121CHL1   H2B15189   3.385   4.906   5.162 -0.0916 -1.4023  1.4532
  121CHL1   C2015190   3.388   5.023   6.123  0.7006  0.2027  0.7853
  121CHL1   H2015191   3.497   5.001   6.117  0.1809 -2.3369 -1.2313
  121CHL1   C2115192   3.323   4.881   6.122 -0.2161 -0.2434  1.0737
  121CHL1  H21A15193   3.330   4.827   6.219 -0.3853  0.7590  1.6558
  121CHL1  H21B15194   3.375   4.819   6.046  1.3852  1.3042  0.8413
  121CHL1  H21C15195   3.214   4.894   6.106  0.0517  1.0616  0.1412
  121CHL1   C2215196   3.362   5.089   6.261 -0.0778  0.1119 -0.2565
  121CHL1  H22A15197   3.406   5.019   6.335 -1.7830 -1.2876 -0.5153
  121CHL1  H22B15198   3.408   5.187   6.284 -1.0819 -0.0646  2.8690
  121CHL1   C2315199   3.215   5.106   6.302 -0.0749 -0.1291  0.4596
  121CHL1  H23A15200   3.165   5.167   6.224 -1.3613  0.2039  1.5038
  121CHL1  H23B15201   3.155   5.013   6.308 -0.6645  0.1594 -0.5912
  121CHL1   C2415202   3.208   5.175   6.436  0.4508 -0.9256 -0.0291
  121CHL1  H24A15203   3.215   5.093   6.510  1.3387 -0.4408  0.4457
  121CHL1  H24B15204   3.297   5.239   6.453 -0.7662  0.9576 -0.4274
  121CHL1   C2515205   3.086   5.256   6.458  0.3866 -0.7612 -0.3636
  121CHL1   H2515206   3.072   5.326   6.373  1.1901  0.2959  0.3498
  121CHL1   C2615207   2.949   5.170   6.459 -0.7501  0.9217  0.0819
  121CHL1  H26A15208   2.865   5.239   6.436 -0.6899  1.3835  1.2222
  121CHL1  H26B15209   2.960   5.101   6.372 -0.3562 -0.8048  1.4386
  121CHL1  H26C15210   2.946   5.110   6.552  3.2562 -0.7445 -0.6212
  121CHL1   C2715211   3.105   5.345   6.586 -0.7982  0.4113  0.2039
  121CHL1  H27A15212   3.193   5.412   6.577 -1.3193  1.1402  0.4085
  121CHL1  H27B15213   3.017   5.411   6.604 -1.9836 -0.2932 -2.4490
  121CHL1  H27C15214   3.116   5.284   6.678  1.1452  0.6349  0.1685
  122CHL1    C315215   2.275   4.963   5.139 -0.0707  0.3095  0.1038
  122CHL1    H315216   2.191   4.893   5.118  0.4929 -0.3376 -0.0465
  122CHL1    O315217   2.316   5.001   5.016 -0.3783 -0.3642  0.9060
  122CHL1   H3'15218   2.391   5.058   5.031 -0.9690  1.3997 -2.0570
  122CHL1    C415219   2.225   5.085   5.218 -0.3577  0.5408  0.9147
  122CHL1   H4A15220   2.301   5.165   5.225  0.2885  0.0176  0.0732
  122CHL1   H4B15221   2.140   5.136   5.167  0.7041  1.9485  0.4853
  122CHL1    C515222   2.192   5.053   5.363 -0.3263  0.1598  0.4858
  122CHL1    C615223   2.074   5.080   5.426 -0.1284  0.3861  0.4109
  122CHL1    H615224   1.991   5.120   5.366  0.0838 -1.9645 -1.6164
  122CHL1    C715225   2.038   5.048   5.568 -0.2015  0.4648  0.1612
  122CHL1   H7A15226   1.974   5.128   5.611 -1.2153  0.0595 -0.5682
  122CHL1   H7B15227   1.982   4.952   5.568  0.2896  0.1694 -0.7592
  122CHL1    C815228   2.167   5.024   5.649 -0.2883 -0.7691  0.1622
  122CHL1    H815229   2.220   5.118   5.674 -0.4976 -0.8943  1.1393
  122CHL1   C1415230   2.134   4.975   5.789 -0.3641  0.3609 -0.7577
  122CHL1   H1415231   2.071   4.885   5.768  1.0296 -1.0665  0.8136
  122CHL1   C1515232   2.042   5.067   5.887  0.1570  0.0360  0.6847
  122CHL1  H15A15233   2.074   5.173   5.886 -0.0007  0.0999 -1.2401
  122CHL1  H15B15234   1.942   5.060   5.838  1.2747  0.0601 -1.7941
  122CHL1   C1615235   2.058   4.995   6.018 -0.6622 -0.6155  0.7875
  122CHL1  H16A15236   2.090   5.078   6.083 -2.6342  0.4755  0.4406
  122CHL1  H16B15237   1.960   4.963   6.060 -1.3725  0.8097  0.2710
  122CHL1   C1715238   2.169   4.880   6.003 -0.3438  0.3196 -0.2414
  122CHL1   H1715239   2.115   4.786   5.979 -0.2138 -0.0927  1.0073
  122CHL1   C1315240   2.253   4.924   5.874 -0.0703 -0.0707 -0.1845
  122CHL1   C1815241   2.346   5.039   5.913  0.7390  0.0172  0.2891
  122CHL1  H18A15242   2.430   5.002   5.977 -0.0784  1.2066  2.1194
  122CHL1  H18B15243   2.407   5.080   5.830  0.1623  0.9583  0.3190
  122CHL1  H18C15244   2.292   5.120   5.967  1.2288 -1.1259  2.6181
  122CHL1   C1215245   2.331   4.815   5.799  0.1393 -0.0802 -0.2988
  122CHL1  H12A15246   2.427   4.783   5.846  0.1381 -0.9660 -0.8783
  122CHL1  H12B15247   2.272   4.721   5.791  0.8399 -0.5215 -0.3163
  122CHL1   C1115248   2.372   4.862   5.654  0.0615  0.3900 -0.5536
  122CHL1  H11A15249   2.458   4.929   5.677  1.3221 -0.4635 -2.4828
  122CHL1  H11B15250   2.423   4.776   5.605  3.7972  0.3461  2.9114
  122CHL1    C915251   2.260   4.925   5.576  1.1190  0.2480  0.1693
  122CHL1    H915252   2.184   4.849   5.549  1.2105  0.4310 -0.6271
  122CHL1   C1015253   2.306   4.979   5.437  0.3446  0.6832 -0.2132
  122CHL1   C1915254   2.422   5.081   5.468  0.0099  0.5257  0.3613
  122CHL1  H19A15255   2.443   5.137   5.374  0.2735 -1.0443 -0.5442
  122CHL1  H19B15256   2.400   5.152   5.551  3.7692  0.6062  1.4550
  122CHL1  H19C15257   2.513   5.024   5.495 -0.1188  0.3222  0.3664
  122CHL1    C115258   2.354   4.861   5.353 -0.7447 -0.6407 -0.2659
  122CHL1   H1A15259   2.439   4.818   5.409 -0.8628 -0.0295  0.3889
  122CHL1   H1B15260   2.281   4.777   5.349  1.3395 -2.5943  0.7368
  122CHL1    C215261   2.388   4.902   5.216 -0.8787  0.0226  1.2436
  122CHL1   H2A15262   2.424   4.817   5.154  0.9092  1.3447  0.3505
  122CHL1   H2B15263   2.476   4.971   5.220 -0.0021 -0.5810 -2.8729
  122CHL1   C2015264   2.243   4.863   6.139  0.0435  0.9881  0.8301
  122CHL1   H2015265   2.297   4.957   6.164 -2.2628  2.8866 -0.9620
  122CHL1   C2115266   2.350   4.749   6.115  0.2399 -0.1255 -0.3644
  122CHL1  H21A15267   2.448   4.800   6.124 -0.2343  0.3217  4.0305
  122CHL1  H21B15268   2.337   4.689   6.022 -0.5029  0.9285 -0.9662
  122CHL1  H21C15269   2.349   4.677   6.200  2.2384 -0.5521 -0.6506
  122CHL1   C2215270   2.158   4.823   6.256 -0.2220 -0.2219  0.1690
  122CHL1  H22A15271   2.054   4.863   6.252  0.8993  3.1140  1.4131
  122CHL1  H22B15272   2.133   4.715   6.270  0.4740 -0.4154 -0.0296
  122CHL1   C2315273   2.221   4.885   6.387  0.1262 -0.0361 -0.4850
  122CHL1  H23A15274   2.321   4.845   6.412 -1.2326 -1.8205  2.5957
  122CHL1  H23B15275   2.212   4.994   6.368 -0.6723 -0.1562 -0.8073
  122CHL1   C2415276   2.133   4.839   6.502 -0.1752  0.4403 -0.6331
  122CHL1  H24A15277   2.030   4.835   6.462 -0.1245 -2.2945 -0.6611
  122CHL1  H24B15278   2.148   4.732   6.526 -0.4755  0.9531  2.1533
  122CHL1   C2515279   2.148   4.930   6.629  0.3944  0.4064 -0.3415
  122CHL1   H2515280   2.130   5.034   6.594  0.5157 -0.5069 -3.4363
  122CHL1   C2615281   2.027   4.898   6.719  0.3604 -0.3549 -0.4051
  122CHL1  H26A15282   2.033   4.956   6.813  0.2798 -2.2511  0.8241
  122CHL1  H26B15283   1.937   4.924   6.660 -0.2812 -0.4185  0.5352
  122CHL1  H26C15284   2.027   4.792   6.753 -1.3723 -0.1219  0.4341
  122CHL1   C2715285   2.281   4.928   6.704 -0.3443 -0.1311  0.0822
  122CHL1  H27A15286   2.374   4.938   6.644  0.2590  2.5371  1.3397
  122CHL1  H27B15287   2.286   5.018   6.769  1.1588 -0.4959  0.5242
  122CHL1  H27C15288   2.286   4.833   6.763 -0.7622 -0.0229  0.2996
  123CHL1    C315289   3.532   4.035   4.738 -0.1230  0.9980  0.0112
  123CHL1    H315290   3.490   3.934   4.756  0.3006  0.9282  0.6466
  123CHL1    O315291   3.541   4.052   4.600 -0.6858 -0.1368 -0.0547
  123CHL1   H3'15292   3.461   4.102   4.585 -1.1884 -1.4228 -2.0277
  123CHL1    C415293   3.433   4.139   4.797 -0.3635 -0.0409  0.2564
  123CHL1   H4A15294   3.470   4.242   4.776 -0.4526 -0.0981 -0.1977
  123CHL1   H4B15295   3.333   4.137   4.750 -1.4112 -3.2720  2.3573
  123CHL1    C515296   3.417   4.127   4.942  0.2790 -0.3206  0.2905
  123CHL1    C615297   3.302   4.088   4.995 -1.0254  0.1801  0.3914
  123CHL1    H615298   3.220   4.051   4.933 -0.4656 -0.2038 -0.1271
  123CHL1    C715299   3.271   4.067   5.137 -0.1684  0.1584 -1.3344
  123CHL1   H7A15300   3.177   4.120   5.162 -0.4495 -0.3559 -1.2936
  123CHL1   H7B15301   3.242   3.962   5.159 -0.3527 -0.0017 -2.3389
  123CHL1    C815302   3.385   4.118   5.234  0.2682  0.7462 -0.4660
  123CHL1    H815303   3.367   4.225   5.258 -0.3995  0.0609  2.4903
  123CHL1   C1415304   3.367   4.054   5.381 -0.4696 -0.2975  0.8769
  123CHL1   H1415305   3.365   3.944   5.370  0.9276 -0.2904  0.2284
  123CHL1   C1515306   3.231   4.074   5.447 -0.2507  0.0004 -0.3031
  123CHL1  H15A15307   3.203   4.180   5.430 -0.2207 -0.2408 -2.0025
  123CHL1  H15B15308   3.145   4.020   5.403 -1.6821  1.1462  0.9464
  123CHL1   C1615309   3.263   4.039   5.602  0.0321  0.0564 -0.2234
  123CHL1  H16A15310   3.236   4.128   5.663 -1.7654  0.5376 -1.6122
  123CHL1  H16B15311   3.193   3.962   5.640 -0.7986  0.6167 -0.5705
  123CHL1   C1715312   3.413   4.013   5.606 -0.5960  0.6409  0.4982
  123CHL1   H1715313   3.425   3.906   5.578 -0.5049  0.5877  0.7428
  123CHL1   C1315314   3.480   4.082   5.481  0.3209 -0.3423  0.1083
  123CHL1   C1815315   3.496   4.242   5.501  0.1524  0.1609  0.7294
  123CHL1  H18A15316   3.557   4.241   5.593  0.5477 -1.7841  0.4966
  123CHL1  H18B15317   3.544   4.294   5.415 -1.1241  3.4645  1.8635
  123CHL1  H18C15318   3.396   4.281   5.532 -1.7356 -1.1900 -2.9593
  123CHL1   C1215319   3.609   4.032   5.424  0.3343  0.6089 -0.4214
  123CHL1  H12A15320   3.693   4.067   5.488  1.2659 -1.4445 -0.4316
  123CHL1  H12B15321   3.615   3.922   5.412  1.9250  0.8170 -2.2337
  123CHL1   C1115322   3.633   4.085   5.284 -0.0084 -0.1424  0.5091
  123CHL1  H11A15323   3.668   4.191   5.288 -0.7577  0.0971  1.0631
  123CHL1  H11B15324   3.723   4.029   5.251 -0.3206 -1.2821  1.5635
  123CHL1    C915325   3.515   4.074   5.179 -0.7218  0.5798  0.5986
  123CHL1    H915326   3.515   3.965   5.160 -0.0062  0.8221 -0.9863
  123CHL1   C1015327   3.545   4.135   5.033 -0.0812 -0.2391  0.5125
  123CHL1   C1915328   3.591   4.280   5.044 -0.7172 -0.1600 -0.4539
  123CHL1  H19A15329   3.513   4.339   5.097  0.0580  0.1363  0.3748
  123CHL1  H19B15330   3.685   4.285   5.103 -0.2214 -1.4143 -1.1080
  123CHL1  H19C15331   3.588   4.332   4.945 -0.6314  0.6622 -0.0383
  123CHL1    C115332   3.652   4.048   4.967 -0.1392  0.1265  0.0130
  123CHL1   H1A15333   3.753   4.079   5.003  1.2753 -0.2907 -3.2199
  123CHL1   H1B15334   3.644   3.942   4.998  0.4203  0.5874  1.8707
  123CHL1    C215335   3.665   4.053   4.811  0.2632  0.1076  0.0079
  123CHL1   H2A15336   3.734   3.974   4.773 -0.5380 -0.5360 -0.1343
  123CHL1   H2B15337   3.700   4.155   4.786  0.5328  0.1165  0.4210
  123CHL1   C2015338   3.480   4.017   5.745 -0.0824  0.1847 -0.2698
  123CHL1   H2015339   3.520   4.117   5.772  2.0808 -0.6626 -0.0843
  123CHL1   C2115340   3.599   3.915   5.753 -0.4539 -0.2646  0.3052
  123CHL1  H21A15341   3.660   3.928   5.845  0.8864 -0.3922 -0.5338
  123CHL1  H21B15342   3.673   3.935   5.673 -1.1437 -0.9799 -0.5374
  123CHL1  H21C15343   3.582   3.806   5.741 -1.3822 -0.0895 -0.0997
  123CHL1   C2215344   3.379   3.981   5.858  0.4854 -0.9783  1.2593
  123CHL1  H22A15345   3.289   4.046   5.862  0.5108 -0.6812 -1.3392
  123CHL1  H22B15346   3.342   3.879   5.839  1.8908 -1.2186 -0.4330
  123CHL1   C2315347   3.444   3.973   6.004 -0.0312 -0.1955 -0.1406
  123CHL1  H23A15348   3.353   3.956   6.066 -1.1074  0.8411 -1.3586
  123CHL1  H23B15349   3.498   3.876   6.011 -1.2448 -1.0395 -1.7567
  123CHL1   C2415350   3.527   4.081   6.064 -0.6077 -0.3147  0.3398
  123CHL1  H24A15351   3.626   4.094   6.016  0.0455 -2.4093  1.0313
  123CHL1  H24B15352   3.476   4.177   6.037 -0.1475 -0.1555  0.0314
  123CHL1   C2515353   3.532   4.069   6.218  0.3925 -0.0126  0.4814
  123CHL1   H2515354   3.429   4.091   6.252  0.2348  1.0757 -0.6065
  123CHL1   C2615355   3.573   3.933   6.270 -0.0479 -0.5761  0.0345
  123CHL1  H26A15356   3.500   3.857   6.234 -0.0253 -0.2659 -0.6906
  123CHL1  H26B15357   3.666   3.894   6.224 -0.8184  0.6792 -2.8226
  123CHL1  H26C15358   3.578   3.924   6.380 -2.5157 -2.3372  0.0953
  123CHL1   C2715359   3.634   4.170   6.275  0.0934 -0.0098 -0.0838
  123CHL1  H27A15360   3.728   4.162   6.216 -0.5685  0.8487 -1.3117
  123CHL1  H27B15361   3.591   4.270   6.256  0.4919 -0.3019 -3.1131
  123CHL1  H27C15362   3.658   4.172   6.383 -1.3542  1.6256  0.2413
  124CHL1    C315363   2.224   6.149   5.179 -0.3186  0.9245 -0.0342
  124CHL1    H315364   2.207   6.255   5.205 -1.1200  1.2145 -1.5878
  124CHL1    O315365   2.272   6.133   5.048 -0.1790 -0.2665 -0.6409
  124CHL1   H3'15366   2.265   6.039   5.031 -0.0305 -0.1098 -1.6582
  124CHL1    C415367   2.328   6.087   5.269 -0.5500  1.0638  0.6794
  124CHL1   H4A15368   2.357   5.991   5.221 -1.1286  0.6474  1.1366
  124CHL1   H4B15369   2.415   6.155   5.266  0.2898  0.0420  1.2701
  124CHL1    C515370   2.277   6.088   5.412 -0.3450  0.0751 -0.8277
  124CHL1    C615371   2.340   6.148   5.511 -0.5283  0.4788 -1.3394
  124CHL1    H615372   2.438   6.196   5.493 -1.1134  1.4399 -2.0483
  124CHL1    C715373   2.310   6.144   5.661  1.0373  0.0814  1.3820
  124CHL1   H7A15374   2.400   6.136   5.726  1.0052 -0.6919  1.3422
  124CHL1   H7B15375   2.260   6.239   5.687 -1.2602 -0.8558  0.6025
  124CHL1    C815376   2.212   6.031   5.686 -0.1610  0.2571 -0.1371
  124CHL1    H815377   2.258   5.931   5.675 -0.7176 -0.1978  1.4767
  124CHL1   C1415378   2.149   6.046   5.822  0.0417 -0.0456 -0.0338
  124CHL1   H1415379   2.091   6.141   5.825  0.6577  0.3366  0.0689
  124CHL1   C1515380   2.250   6.069   5.935 -1.0059 -0.3619 -0.0431
  124CHL1  H15A15381   2.345   6.016   5.912 -0.0642  1.7829 -1.4563
  124CHL1  H15B15382   2.276   6.175   5.959  1.1295 -0.9469  0.4962
  124CHL1   C1615383   2.173   6.011   6.057 -0.7080 -0.4795  0.0764
  124CHL1  H16A15384   2.234   5.923   6.085  0.7185  0.3643 -0.2891
  124CHL1  H16B15385   2.164   6.079   6.145 -1.7225 -0.2334 -0.2010
  124CHL1   C1715386   2.035   5.962   6.005 -0.4809 -0.0018  1.0439
  124CHL1   H1715387   1.977   6.057   6.009  1.7910  1.4991  0.4231
  124CHL1   C1315388   2.053   5.936   5.854  0.2159  0.5325 -0.6871
  124CHL1   C1815389   2.122   5.800   5.836 -0.0434 -0.4484 -0.5645
  124CHL1  H18A15390   2.058   5.727   5.891 -2.2271  1.5499 -0.2609
  124CHL1  H18B15391   2.141   5.774   5.730 -0.8379 -2.0342 -0.3449
  124CHL1  H18C15392   2.223   5.785   5.879  0.0458 -1.0059 -0.9629
  124CHL1   C1215393   1.923   5.961   5.770 -0.1020 -0.2908  0.0315
  124CHL1  H12A15394   1.844   5.885   5.786  1.3031 -2.7040 -3.2886
  124CHL1  H12B15395   1.896   6.066   5.796 -0.4092 -0.4332  0.2918
  124CHL1   C1115396   1.964   5.951   5.623 -0.0169 -0.4643 -0.6132
  124CHL1  H11A15397   1.980   5.845   5.596  0.7165 -0.7956  0.9956
  124CHL1  H11B15398   1.878   5.988   5.563  0.7030 -0.2879 -1.5494
  124CHL1    C915399   2.088   6.031   5.580 -0.6910 -0.8216  0.2097
  124CHL1    H915400   2.046   6.134   5.584 -0.8589 -0.9134  0.8547
  124CHL1   C1015401   2.145   6.010   5.437 -0.3842 -0.1421 -0.4815
  124CHL1   C1915402   2.169   5.857   5.411  0.1256  0.2076 -0.6241
  124CHL1  H19A15403   2.247   5.816   5.479 -1.5895 -0.5451  0.9793
  124CHL1  H19B15404   2.073   5.802   5.415 -1.1348  2.3456  0.5227
  124CHL1  H19C15405   2.205   5.843   5.307 -3.0688 -0.1948 -1.7709
  124CHL1    C115406   2.046   6.066   5.335  0.4134 -0.1103  0.6751
  124CHL1   H1A15407   1.952   6.007   5.340  0.4821 -0.2080  0.8134
  124CHL1   H1B15408   2.013   6.168   5.365 -1.9592  0.1668 -2.3865
  124CHL1    C215409   2.092   6.076   5.188  0.2117 -0.8044 -0.0093
  124CHL1   H2A15410   2.015   6.119   5.122 -0.2198 -1.0315  0.3423
  124CHL1   H2B15411   2.103   5.972   5.151  0.4773 -0.4416 -0.9855
  124CHL1   C2015412   1.954   5.866   6.098  0.0196 -0.2109  0.0640
  124CHL1   H2015413   1.873   5.815   6.041 -0.0805 -0.6786  0.6212
  124CHL1   C2115414   1.869   5.949   6.208 -0.2854  0.0330  0.4768
  124CHL1  H21A15415   1.810   5.893   6.284 -0.4376  0.9300  1.0450
  124CHL1  H21B15416   1.802   6.011   6.144 -1.0059 -1.0406  0.1596
  124CHL1  H21C15417   1.934   6.025   6.256 -0.1044  0.0993  0.1229
  124CHL1   C2215418   2.033   5.750   6.172 -0.2486 -0.5232  0.7519
  124CHL1  H22A15419   2.093   5.695   6.096  0.5340 -1.2883  1.8861
  124CHL1  H22B15420   2.105   5.803   6.238  0.3569  0.3334 -0.5675
  124CHL1   C2315421   1.953   5.637   6.245 -0.5259  0.5833  0.1206
  124CHL1  H23A15422   1.905   5.674   6.338 -2.4499  1.8791 -1.2974
  124CHL1  H23B15423   1.867   5.603   6.183  0.4258 -0.3111 -0.7572
  124CHL1   C2415424   2.037   5.515   6.261 -0.2315  0.6622  0.2322
  124CHL1  H24A15425   2.053   5.481   6.157 -0.0706  2.4496 -0.3536
  124CHL1  H24B15426   2.131   5.557   6.302  0.0366  2.8852 -2.4099
  124CHL1   C2515427   1.977   5.398   6.348  0.2326  0.4154  0.4302
  124CHL1   H2515428   1.868   5.408   6.325  0.1158 -1.4040 -0.0109
  124CHL1   C2615429   2.021   5.258   6.297  0.4503 -0.9965  1.1510
  124CHL1  H26A15430   1.983   5.244   6.193  0.0851  0.4833  1.0690
  124CHL1  H26B15431   2.132   5.254   6.298  0.7262  2.5488 -0.3099
  124CHL1  H26C15432   1.988   5.176   6.364 -0.2557 -0.5218  1.4029
  124CHL1   C2715433   1.999   5.409   6.502  0.2993 -0.5644  0.1572
  124CHL1  H27A15434   1.961   5.502   6.550 -1.6626 -1.4580  0.4322
  124CHL1  H27B15435   1.947   5.327   6.557 -2.0782  1.0080  0.4202
  124CHL1  H27C15436   2.107   5.395   6.520  0.0445 -0.7027  1.7278
  125CHL1    C315437   3.967   6.090   4.766  0.3872  0.1865 -0.0298
  125CHL1    H315438   4.021   6.186   4.755 -0.7920  0.8406 -0.2000
  125CHL1    O315439   3.907   6.055   4.638  0.1447 -0.2700  0.2876
  125CHL1   H3'15440   3.902   6.135   4.585 -2.2860  1.1205  2.3684
  125CHL1    C415441   4.072   5.981   4.820  0.8432 -0.7397 -0.2578
  125CHL1   H4A15442   4.022   5.884   4.799  1.8462 -1.7271  1.6177
  125CHL1   H4B15443   4.162   5.989   4.756  1.0948  1.4298  0.3194
  125CHL1    C515444   4.098   5.988   4.968 -0.0873 -1.2689  1.7815
  125CHL1    C615445   4.222   5.977   5.011 -0.1407  0.0293  0.3786
  125CHL1    H615446   4.304   5.961   4.940 -0.1291  0.1270  0.3688
  125CHL1    C715447   4.260   5.989   5.157  0.8413  0.1843  0.0686
  125CHL1   H7A15448   4.337   5.918   5.193  0.9188 -0.7688 -1.8165
  125CHL1   H7B15449   4.306   6.087   5.180  0.0563  0.2631  1.3553
  125CHL1    C815450   4.141   5.994   5.260 -0.5233  0.6037  0.6930
  125CHL1    H815451   4.107   5.889   5.266  0.9071  0.1614  1.5287
  125CHL1   C1415452   4.183   6.052   5.392  0.6965  0.1842  0.3303
  125CHL1   H1415453   4.221   6.153   5.364  2.2122 -1.2965 -3.5746
  125CHL1   C1515454   4.310   5.985   5.453  0.0750 -0.2387 -0.1619
  125CHL1  H15A15455   4.301   5.875   5.440 -0.7323 -0.1222 -0.6327
  125CHL1  H15B15456   4.401   6.019   5.398 -0.1575 -0.3956 -0.6521
  125CHL1   C1615457   4.303   6.030   5.596  0.1251  0.1065 -0.0628
  125CHL1  H16A15458   4.309   5.946   5.668  1.8228  0.4655  0.2419
  125CHL1  H16B15459   4.385   6.101   5.620  0.0437 -0.2107  1.2533
  125CHL1   C1715460   4.163   6.100   5.624 -0.2164 -0.0679  0.4849
  125CHL1   H1715461   4.195   6.205   5.607 -1.2519  0.1555 -0.1761
  125CHL1   C1315462   4.075   6.061   5.500  0.0165 -0.0790  0.0725
  125CHL1   C1815463   4.017   5.916   5.518  0.0428  0.1306 -0.0066
  125CHL1  H18A15464   4.082   5.841   5.568 -2.1506 -1.3234  0.7948
  125CHL1  H18B15465   3.928   5.919   5.584  0.6633 -0.3319  0.8740
  125CHL1  H18C15466   3.977   5.877   5.422 -0.6477 -0.7742  0.6384
  125CHL1   C1215467   3.965   6.146   5.441 -0.1974 -0.0945  0.1345
  125CHL1  H12A15468   3.887   6.164   5.518 -2.5005  0.1663 -2.1297
  125CHL1  H12B15469   4.001   6.249   5.421  1.7279 -0.3296  1.9500
  125CHL1   C1115470   3.913   6.098   5.312  0.3910 -0.2736 -0.0488
  125CHL1  H11A15471   3.858   6.003   5.327  0.6592 -0.4427 -0.1471
  125CHL1  H11B15472   3.837   6.165   5.266 -0.5004 -1.5355 -0.4635
  125CHL1    C915473   4.026   6.078   5.202  0.1547  0.6697 -0.9005
  125CHL1    H915474   4.070   6.179   5.192  2.2738 -0.3616 -2.9109
  125CHL1   C1015475   3.978   6.026   5.064 -0.1148  0.5473 -0.3040
  125CHL1   C1915476   3.903   5.892   5.090 -0.2233 -0.4758  0.2053
  125CHL1  H19A15477   3.809   5.907   5.147 -0.2724  0.3787 -0.0900
  125CHL1  H19B15478   3.881   5.838   4.996  1.6269 -1.0351  0.0530
  125CHL1  H19C15479   3.965   5.823   5.151  0.1868 -0.8550 -0.6332
  125CHL1    C115480   3.886   6.127   5.000 -0.5279  0.7943 -0.5251
  125CHL1   H1A15481   3.791   6.124   5.057  0.3411 -4.0773  1.1362
  125CHL1   H1B15482   3.937   6.224   5.019  0.7328 -0.3260  2.3748
  125CHL1    C215483   3.849   6.115   4.849  0.2469 -0.3503 -0.1011
  125CHL1   H2A15484   3.818   6.216   4.817  1.7646 -0.3084 -1.5729
  125CHL1   H2B15485   3.771   6.038   4.831 -0.0516 -0.6429  2.0888
  125CHL1   C2015486   4.108   6.086   5.766  1.0642  0.3302 -0.6753
  125CHL1   H2015487   4.091   5.981   5.796  0.7880  1.2241  2.7134
  125CHL1   C2115488   3.965   6.140   5.769  0.4928 -0.0102 -0.0678
  125CHL1  H21A15489   3.885   6.076   5.727 -0.1224  0.6336  0.0919
  125CHL1  H21B15490   3.951   6.242   5.727 -3.7541  0.7581  2.5448
  125CHL1  H21C15491   3.942   6.146   5.878  0.5823  1.8547 -0.1073
  125CHL1   C2215492   4.195   6.133   5.880 -0.1853  0.4195  0.0493
  125CHL1  H22A15493   4.297   6.097   5.852  0.1933  0.4634  1.2757
  125CHL1  H22B15494   4.196   6.243   5.893  0.6197  0.8897 -3.2415
  125CHL1   C2315495   4.178   6.073   6.024  0.4773  0.0903  0.2463
  125CHL1  H23A15496   4.084   6.118   6.064  0.5535  0.9990 -0.5598
  125CHL1  H23B15497   4.172   5.962   6.020 -2.7976  0.0672  2.0769
  125CHL1   C2415498   4.298   6.122   6.110 -0.3240 -0.1365 -0.6069
  125CHL1  H24A15499   4.390   6.079   6.064  0.3578  2.6241 -2.0622
  125CHL1  H24B15500   4.300   6.232   6.099  1.0959  0.0004  0.6998
  125CHL1   C2515501   4.291   6.093   6.260 -0.1155 -0.2749 -0.5496
  125CHL1   H2515502   4.189   6.129   6.286 -0.7758  0.0404 -3.3271
  125CHL1   C2615503   4.301   5.946   6.287 -0.5195  0.3910  0.5570
  125CHL1  H26A15504   4.216   5.896   6.237 -0.7324  1.3039 -0.0221
  125CHL1  H26B15505   4.398   5.909   6.247 -0.2123  1.1086  0.6190
  125CHL1  H26C15506   4.302   5.918   6.395  1.2028 -0.0604  0.4533
  125CHL1   C2715507   4.402   6.162   6.342  0.0054 -0.1562 -0.4027
  125CHL1  H27A15508   4.504   6.130   6.314 -0.7548 -2.5543 -0.6313
  125CHL1  H27B15509   4.391   6.271   6.319  1.0715  0.0363 -0.0409
  125CHL1  H27C15510   4.386   6.148   6.451 -0.6466  3.5708  0.1285
  126CHL1    C315511   2.181   6.663   5.391 -0.0237  0.7022  0.4831
  126CHL1    H315512   2.215   6.761   5.431  1.4935  0.8818 -1.1036
  126CHL1    O315513   2.221   6.658   5.254  0.6094 -0.0775 -0.2451
  126CHL1   H3'15514   2.317   6.650   5.250  0.5806 -0.0402 -1.0838
  126CHL1    C415515   2.249   6.540   5.466 -0.2147  0.2159  0.0593
  126CHL1   H4A15516   2.217   6.445   5.419 -0.7327 -0.4922  1.7583
  126CHL1   H4B15517   2.358   6.547   5.444  0.0285 -2.0048  0.3454
  126CHL1    C515518   2.221   6.535   5.613 -0.1829  0.0948  0.7118
  126CHL1    C615519   2.324   6.534   5.700  0.5234  0.3442 -0.5288
  126CHL1    H615520   2.426   6.546   5.660  1.3673 -0.5704  1.2570
  126CHL1    C715521   2.314   6.527   5.846  0.8893 -0.3941 -0.5245
  126CHL1   H7A15522   2.370   6.440   5.886  0.3243 -1.6485 -2.3624
  126CHL1   H7B15523   2.361   6.623   5.878 -0.1288  0.4906 -1.5852
  126CHL1    C815524   2.168   6.500   5.889 -0.1084 -0.3049 -0.2243
  126CHL1    H815525   2.149   6.391   5.887 -0.7737 -0.2370  1.2174
  126CHL1   C1415526   2.146   6.549   6.033  0.4869  0.1156  0.0329
  126CHL1   H1415527   2.167   6.658   6.035  1.5836  0.0090  4.3201
  126CHL1   C1515528   2.238   6.489   6.139  0.0715 -0.1291  0.2919
  126CHL1  H15A15529   2.229   6.380   6.118 -0.6177  0.4469 -3.0052
  126CHL1  H15B15530   2.342   6.527   6.136 -0.1481  0.4461 -0.6857
  126CHL1   C1615531   2.162   6.528   6.272 -0.1532  0.0897  0.0942
  126CHL1  H16A15532   2.171   6.438   6.337  0.0810 -0.6973 -0.9994
  126CHL1  H16B15533   2.209   6.614   6.325 -0.6125 -0.9904  2.3657
  126CHL1   C1715534   2.017   6.573   6.230  0.5118  0.5971 -0.2180
  126CHL1   H1715535   2.027   6.683   6.231 -1.3883  0.8014 -0.2910
  126CHL1   C1315536   2.001   6.531   6.081 -0.4243  0.2568  0.1652
  126CHL1   C1815537   1.950   6.382   6.072 -0.2064  0.2729  0.2490
  126CHL1  H18A15538   1.842   6.376   6.096 -0.6621  0.9125 -1.4792
  126CHL1  H18B15539   1.951   6.348   5.966 -1.1832 -1.2790  0.7177
  126CHL1  H18C15540   2.017   6.316   6.130 -0.7230 -2.4118 -2.0001
  126CHL1   C1215541   1.907   6.619   5.997 -0.4378  0.0656  0.1375
  126CHL1  H12A15542   1.800   6.595   6.015 -0.7063 -0.0097 -1.4485
  126CHL1  H12B15543   1.933   6.726   6.005 -1.4131  0.4365 -1.3340
  126CHL1   C1115544   1.925   6.584   5.850  0.5528  0.0291  0.0870
  126CHL1  H11A15545   1.878   6.486   5.828  1.8356 -0.6362  0.1904
  126CHL1  H11B15546   1.866   6.665   5.803 -0.1928 -1.2023 -1.1695
  126CHL1    C915547   2.066   6.581   5.801 -0.3428 -0.0955  0.3869
  126CHL1    H915548   2.095   6.688   5.803 -0.3495  0.0010 -2.0300
  126CHL1   C1015549   2.073   6.546   5.650  0.6017 -0.1417 -0.1981
  126CHL1   C1915550   2.003   6.414   5.616 -0.0110  0.3944  0.3031
  126CHL1  H19A15551   2.042   6.329   5.676 -0.0046  0.8825  0.9943
  126CHL1  H19B15552   1.892   6.423   5.626  0.0780  1.9303  0.0388
  126CHL1  H19C15553   2.015   6.395   5.507 -2.0892  1.3624 -0.1462
  126CHL1    C115554   2.003   6.665   5.570  0.6192  0.4061 -0.3572
  126CHL1   H1A15555   1.893   6.657   5.587  0.7972  1.6315  1.7499
  126CHL1   H1B15556   2.033   6.765   5.607 -0.1477  0.8431 -0.8855
  126CHL1    C215557   2.029   6.657   5.417 -0.0639  0.7459 -0.1217
  126CHL1   H2A15558   1.985   6.742   5.359 -0.5421  0.7845  0.2899
  126CHL1   H2B15559   1.994   6.559   5.378  1.0568  0.1852  0.2541
  126CHL1   C2015560   1.907   6.539   6.336  0.0745  0.0731 -0.3333
  126CHL1   H2015561   1.905   6.429   6.355  1.2736 -0.0527 -0.8908
  126CHL1   C2115562   1.770   6.589   6.287  0.1386  0.2737  0.0932
  126CHL1  H21A15563   1.691   6.578   6.365  0.1545 -0.3599  0.0246
  126CHL1  H21B15564   1.723   6.535   6.202 -0.3245  1.9893 -0.7907
  126CHL1  H21C15565   1.784   6.694   6.253  0.0679  0.3695  0.3553
  126CHL1   C2215566   1.940   6.608   6.472 -0.0643 -0.3132 -0.2894
  126CHL1  H22A15567   2.040   6.582   6.511 -0.6439 -0.6572  1.0338
  126CHL1  H22B15568   1.932   6.714   6.440  1.0899 -0.5042 -1.2440
  126CHL1   C2315569   1.844   6.563   6.585  0.6940 -0.2616 -0.9221
  126CHL1  H23A15570   1.883   6.612   6.677 -0.5083 -0.2054 -0.4227
  126CHL1  H23B15571   1.738   6.593   6.568  0.1596 -2.7203 -2.4524
  126CHL1   C2415572   1.861   6.414   6.624 -0.3370 -0.2636 -0.4833
  126CHL1  H24A15573   1.855   6.348   6.535 -0.7678 -2.4903  1.0985
  126CHL1  H24B15574   1.964   6.405   6.666  0.4263  0.4400 -2.1102
  126CHL1   C2515575   1.756   6.355   6.716 -0.9387  0.5872 -0.2439
  126CHL1   H2515576   1.659   6.372   6.665 -2.0521  2.0262  2.1828
  126CHL1   C2615577   1.778   6.199   6.734 -0.3136 -0.2415  0.7281
  126CHL1  H26A15578   1.692   6.146   6.780 -0.7953  0.3294  0.4950
  126CHL1  H26B15579   1.787   6.153   6.633 -1.0089 -0.8027  0.9196
  126CHL1  H26C15580   1.876   6.181   6.783  1.3351 -3.5134 -3.1950
  126CHL1   C2715581   1.738   6.419   6.850 -0.3080  0.3843  0.1861
  126CHL1  H27A15582   1.650   6.381   6.905  0.0317  1.4048  1.4783
  126CHL1  H27B15583   1.819   6.380   6.915  1.7388  1.0644 -1.8055
  126CHL1  H27C15584   1.726   6.529   6.853  0.6511  0.5604 -1.3083
  127CHL1    C315585   4.066   0.572   4.774  0.0678  0.2536 -0.4394
  127CHL1    H315586   4.154   0.505   4.764  1.3381  1.9485 -1.1299
  127CHL1    O315587   4.005   0.586   4.640 -0.2472 -0.0067 -0.4799
  127CHL1   H3'15588   4.057   0.658   4.604  2.2479 -1.1968  0.5210
  127CHL1    C415589   3.976   0.497   4.864  0.2651 -0.4243 -0.2124
  127CHL1   H4A15590   3.882   0.554   4.871  0.6394  0.4081 -1.7067
  127CHL1   H4B15591   3.961   0.396   4.820  0.1410 -0.6085  0.2393
  127CHL1    C515592   4.035   0.483   5.006  0.0390 -0.6518 -0.0715
  127CHL1    C615593   4.041   0.362   5.064  0.4277 -0.0210  0.0049
  127CHL1    H615594   4.004   0.269   5.019  0.5620  0.7198 -1.6799
  127CHL1    C715595   4.108   0.346   5.196  0.3392  0.1448 -0.3656
  127CHL1   H7A15596   4.065   0.260   5.252  2.5728 -2.5674 -2.5317
  127CHL1   H7B15597   4.205   0.299   5.171  0.0408 -1.0164  0.5247
  127CHL1    C815598   4.117   0.472   5.280  0.2872  0.1125 -0.5414
  127CHL1    H815599   4.013   0.500   5.306  0.3408 -0.0730 -0.1192
  127CHL1   C1415600   4.201   0.444   5.396 -0.1857 -0.2381 -0.1337
  127CHL1   H1415601   4.304   0.422   5.361 -0.7862 -2.3261 -0.7181
  127CHL1   C1515602   4.177   0.314   5.472 -1.4386 -0.5828  0.0866
  127CHL1  H15A15603   4.068   0.301   5.492 -1.5218  0.1130  0.0916
  127CHL1  H15B15604   4.217   0.222   5.424 -0.9574 -0.3976  0.1274
  127CHL1   C1615605   4.245   0.339   5.612 -0.2562  0.5734  0.5008
  127CHL1  H16A15606   4.157   0.337   5.679 -0.8453  2.7212 -0.1224
  127CHL1  H16B15607   4.313   0.258   5.646 -0.6318 -0.0043 -0.0887
  127CHL1   C1715608   4.297   0.486   5.606 -0.1856  0.0473 -0.0511
  127CHL1   H1715609   4.399   0.477   5.563 -0.6189 -0.9832 -0.8944
  127CHL1   C1315610   4.208   0.555   5.498  0.1845  1.3024 -0.8791
  127CHL1   C1815611   4.065   0.591   5.553  0.0612 -0.4467  0.0308
  127CHL1  H18A15612   4.002   0.633   5.472  3.0451  1.5431 -1.4544
  127CHL1  H18B15613   4.016   0.508   5.608  1.3615  0.8514  3.4475
  127CHL1  H18C15614   4.079   0.675   5.625  0.9161 -3.2778  3.4559
  127CHL1   C1215615   4.270   0.667   5.417  0.0359 -0.4597  0.3807
  127CHL1  H12A15616   4.260   0.762   5.475  1.3188 -0.7382  1.0885
  127CHL1  H12B15617   4.379   0.660   5.394  0.4707  0.9793  1.7944
  127CHL1   C1115618   4.192   0.706   5.289  0.3061  0.2261  0.0008
  127CHL1  H11A15619   4.094   0.741   5.329 -0.1546 -1.2905  0.2619
  127CHL1  H11B15620   4.232   0.793   5.232  1.0694 -1.5934 -2.3852
  127CHL1    C915621   4.167   0.589   5.197 -0.4344 -0.7838 -0.4553
  127CHL1    H915622   4.271   0.557   5.173 -0.4104 -1.3294  0.3366
  127CHL1   C1015623   4.080   0.611   5.074  0.5015 -0.9781  0.3850
  127CHL1   C1915624   3.953   0.691   5.120  0.7098  0.7859  0.4936
  127CHL1  H19A15625   3.985   0.794   5.149  1.8135  0.1170  1.7481
  127CHL1  H19B15626   3.888   0.699   5.030  1.3268 -2.8292 -0.4081
  127CHL1  H19C15627   3.902   0.632   5.198  0.4087 -0.7934 -0.8513
  127CHL1    C115628   4.160   0.695   4.969  0.3274 -0.1199  0.9618
  127CHL1   H1A15629   4.176   0.800   5.003  1.6538  0.1024 -0.2551
  127CHL1   H1B15630   4.255   0.639   4.952 -1.1204 -2.5719  0.6064
  127CHL1    C215631   4.098   0.708   4.831  0.6473  0.2693  0.1325
  127CHL1   H2A15632   4.162   0.772   4.767 -0.3655  1.5285  0.3416
  127CHL1   H2B15633   4.003   0.765   4.837  0.2536 -0.1106 -1.8651
  127CHL1   C2015634   4.309   0.551   5.745 -0.7778  0.2846  0.4136
  127CHL1   H2015635   4.209   0.552   5.792 -1.5903 -2.6486 -0.9958
  127CHL1   C2115636   4.365   0.694   5.735  0.0928 -0.3711 -0.3551
  127CHL1  H21A15637   4.385   0.754   5.826  0.4697 -0.4690 -0.3710
  127CHL1  H21B15638   4.300   0.767   5.683 -0.6719  1.4469  2.8999
  127CHL1  H21C15639   4.456   0.700   5.672  0.6388  0.1767  0.4751
  127CHL1   C2215640   4.402   0.466   5.842  0.0259 -0.0954 -0.2464
  127CHL1  H22A15641   4.358   0.364   5.847  2.2721 -1.1271 -0.1374
  127CHL1  H22B15642   4.501   0.450   5.793  0.2173  0.6472 -0.1023
  127CHL1   C2315643   4.430   0.525   5.981 -0.6751 -0.0696 -0.0553
  127CHL1  H23A15644   4.500   0.448   6.021 -0.6260 -1.1042 -1.9663
  127CHL1  H23B15645   4.483   0.622   5.973  0.6035 -0.7122  0.3341
  127CHL1   C2415646   4.312   0.546   6.073 -0.2265  0.1982 -0.3844
  127CHL1  H24A15647   4.338   0.610   6.160  2.4109 -3.6524  1.9955
  127CHL1  H24B15648   4.245   0.608   6.010  1.0087  1.4275 -0.5342
  127CHL1   C2515649   4.249   0.423   6.143 -0.9590 -0.2146  0.4835
  127CHL1   H2515650   4.334   0.355   6.165  0.2370  0.0441 -2.7780
  127CHL1   C2615651   4.172   0.463   6.266  0.4099 -0.4463 -0.0617
  127CHL1  H26A15652   4.123   0.371   6.304 -0.0363 -0.8047 -1.4301
  127CHL1  H26B15653   4.235   0.515   6.341 -0.8690  0.3761  0.4597
  127CHL1  H26C15654   4.096   0.536   6.231 -0.3826 -0.6601  1.1448
  127CHL1   C2715655   4.146   0.353   6.040  0.6603 -0.4078 -0.2718
  127CHL1  H27A15656   4.099   0.265   6.089 -0.6911  0.3552 -0.1541
  127CHL1  H27B15657   4.068   0.426   6.010  1.0965 -0.1746 -0.8666
  127CHL1  H27C15658   4.194   0.311   5.950 -0.8445 -2.8753 -0.0143
  128CHL1    C315659   2.825   2.149   4.380  0.3945 -0.1925 -0.0304
  128CHL1    H315660   2.934   2.173   4.380  0.4061 -0.1257 -1.5854
  128CHL1    O315661   2.789   2.111   4.244  0.1240 -0.3873 -0.0820
  128CHL1   H3'15662   2.704   2.069   4.259  0.0245 -0.1978 -0.1156
  128CHL1    C415663   2.803   2.020   4.459  0.9856 -0.2296 -0.4171
  128CHL1   H4A15664   2.696   1.991   4.452  1.4364 -2.6361  1.4632
  128CHL1   H4B15665   2.856   1.936   4.409 -0.9635 -0.4180 -2.2824
  128CHL1    C515666   2.834   2.045   4.600  0.5692 -0.2955  0.0908
  128CHL1    C615667   2.922   1.971   4.671  0.1983 -0.5439 -0.2894
  128CHL1    H615668   2.978   1.895   4.614  0.7181  0.1956 -0.7796
  128CHL1    C715669   2.954   1.978   4.820 -0.0926 -0.0763 -0.0340
  128CHL1   H7A15670   2.955   1.877   4.866 -1.2250  0.4053  1.1213
  128CHL1   H7B15671   3.053   2.028   4.825  1.7892 -3.4517 -0.5354
  128CHL1    C815672   2.846   2.055   4.896  0.8219 -0.2866  0.1871
  128CHL1    H815673   2.751   1.998   4.900  1.8041 -1.9415  1.0177
  128CHL1   C1415674   2.883   2.089   5.035  0.3774 -0.6639 -0.2322
  128CHL1   H1415675   2.966   2.162   5.027 -0.6078  0.3479 -1.8693
  128CHL1   C1515676   2.933   1.972   5.125  0.7981  0.1097  0.5822
  128CHL1  H15A15677   2.872   1.881   5.105 -0.0061  0.8277 -0.3438
  128CHL1  H15B15678   3.037   1.941   5.103  1.2054  1.5780  0.3367
  128CHL1   C1615679   2.919   2.025   5.269 -0.0825  0.0083  0.0403
  128CHL1  H16A15680   2.848   1.958   5.323  1.0136 -1.2053  0.0232
  128CHL1  H16B15681   3.012   2.016   5.329 -0.1318 -3.2740 -0.2101
  128CHL1   C1715682   2.849   2.162   5.253 -0.1353 -0.0776  0.3592
  128CHL1   H1715683   2.939   2.227   5.249 -0.8495  0.8971 -3.2881
  128CHL1   C1315684   2.779   2.170   5.116 -0.6272 -0.3017 -0.1763
  128CHL1   C1815685   2.643   2.102   5.129  0.7083  0.6991  0.5090
  128CHL1  H18A15686   2.570   2.163   5.186  0.5427 -0.1639  1.2538
  128CHL1  H18B15687   2.597   2.080   5.031  2.5906 -0.5129 -0.1604
  128CHL1  H18C15688   2.643   2.008   5.189 -0.8895  1.4170  1.6925
  128CHL1   C1215689   2.756   2.308   5.043 -0.8181 -0.2724 -0.1104
  128CHL1  H12A15690   2.681   2.374   5.091  0.9788  2.4088 -0.7422
  128CHL1  H12B15691   2.851   2.367   5.048 -2.1310  1.8626  2.2290
  128CHL1   C1115692   2.724   2.289   4.898 -0.2191  0.1716  0.3619
  128CHL1  H11A15693   2.622   2.246   4.905  0.1025 -0.6809 -0.0747
  128CHL1  H11B15694   2.721   2.380   4.833 -0.2317 -0.6682 -0.8443
  128CHL1    C915695   2.812   2.187   4.818  0.1553  0.2440 -0.1261
  128CHL1    H915696   2.912   2.233   4.809 -0.3876  1.3184 -0.9268
  128CHL1   C1015697   2.755   2.156   4.672  0.1273 -0.1628 -0.1881
  128CHL1   C1915698   2.603   2.115   4.680 -0.3583 -0.2523 -0.2055
  128CHL1  H19A15699   2.576   2.021   4.733 -1.5599 -0.6927 -1.5361
  128CHL1  H19B15700   2.549   2.200   4.727 -1.0983 -2.3303  3.0468
  128CHL1  H19C15701   2.558   2.092   4.582 -0.9082 -1.8390  0.3835
  128CHL1    C115702   2.774   2.286   4.584  0.3723 -0.1205  0.2448
  128CHL1   H1A15703   2.714   2.364   4.634  1.9664  0.1862  1.7709
  128CHL1   H1B15704   2.874   2.329   4.601  0.7614 -0.4649 -1.0398
  128CHL1    C215705   2.739   2.263   4.436  0.2124 -0.0578 -0.3346
  128CHL1   H2A15706   2.750   2.365   4.391  0.8017 -0.9771 -2.3846
  128CHL1   H2B15707   2.632   2.237   4.423 -1.0277  4.3608 -0.6595
  128CHL1   C2015708   2.770   2.203   5.375  0.5929 -0.1254 -0.3549
  128CHL1   H2015709   2.677   2.142   5.371  1.4551 -1.8043  2.5728
  128CHL1   C2115710   2.723   2.354   5.359 -0.2111  0.5973  0.5680
  128CHL1  H21A15711   2.722   2.404   5.459 -3.0663  2.5464 -0.3031
  128CHL1  H21B15712   2.613   2.353   5.340 -0.1998 -3.4047  0.0289
  128CHL1  H21C15713   2.780   2.411   5.283 -2.2145 -0.0347 -1.5037
  128CHL1   C2215714   2.842   2.185   5.513  0.2676  0.7839 -0.0889
  128CHL1  H22A15715   2.864   2.076   5.523  0.7576  0.8110 -0.8352
  128CHL1  H22B15716   2.934   2.246   5.514  0.6064  0.2789  0.6563
  128CHL1   C2315717   2.756   2.221   5.632 -0.0447  0.5619 -0.0483
  128CHL1  H23A15718   2.757   2.331   5.650  1.4091  0.3722  1.1800
  128CHL1  H23B15719   2.652   2.183   5.620  0.0948  0.0241  0.4389
  128CHL1   C2415720   2.809   2.169   5.767 -0.1674 -0.2264  0.1612
  128CHL1  H24A15721   2.828   2.060   5.758  0.4551 -0.0102 -1.2397
  128CHL1  H24B15722   2.910   2.209   5.788 -0.2791  0.9019 -1.3154
  128CHL1   C2515723   2.713   2.195   5.887  0.5253 -0.1273  0.2142
  128CHL1   H2515724   2.612   2.180   5.844 -0.0514 -1.0496  1.8183
  128CHL1   C2615725   2.744   2.089   5.989 -0.1494  0.4022  0.3158
  128CHL1  H26A15726   2.683   2.110   6.079  1.9386  4.3396  1.0189
  128CHL1  H26B15727   2.730   1.983   5.960 -0.5438  0.1982  1.2176
  128CHL1  H26C15728   2.854   2.088   6.008  0.1007  0.2849 -1.0329
  128CHL1   C2715729   2.730   2.337   5.942 -0.1858 -0.3185  0.1163
  128CHL1  H27A15730   2.704   2.409   5.862  1.9094  0.3684 -0.0107
  128CHL1  H27B15731   2.665   2.349   6.032  0.7454 -0.3270  0.8075
  128CHL1  H27C15732   2.839   2.347   5.960 -0.2586 -3.7237  3.9287
  129CHL1    C315733   4.494   5.755   4.567  0.5303  0.5661 -0.5499
  129CHL1    H315734   4.412   5.817   4.607  0.4895  0.1765 -0.0052
  129CHL1    O315735   4.485   5.738   4.429 -0.4764 -0.0837  0.1231
  129CHL1   H3'15736   4.401   5.694   4.413 -1.5234  0.6953  2.9922
  129CHL1    C415737   4.628   5.817   4.605 -0.2829  0.1349  0.0604
  129CHL1   H4A15738   4.708   5.750   4.566 -0.4253  1.0433 -1.9486
  129CHL1   H4B15739   4.646   5.915   4.554 -1.0128 -0.4727 -1.4398
  129CHL1    C515740   4.627   5.822   4.756  0.2391  0.5930 -0.0866
  129CHL1    C615741   4.650   5.938   4.807  0.0420 -0.3117  0.3868
  129CHL1    H615742   4.682   6.016   4.737  0.3349 -0.4634  0.3527
  129CHL1    C715743   4.673   5.954   4.958  0.0804 -0.1526  0.2737
  129CHL1   H7A15744   4.754   6.024   4.987  0.4183 -1.3780  2.5643
  129CHL1   H7B15745   4.584   6.009   4.996  0.1927  0.1748  0.0618
  129CHL1    C815746   4.690   5.820   5.042  0.1655 -0.1894  0.3120
  129CHL1    H815747   4.792   5.779   5.028  0.9351  0.7083  2.6620
  129CHL1   C1415748   4.661   5.847   5.187 -0.1500  1.0117 -0.6693
  129CHL1   H1415749   4.551   5.866   5.187 -0.6448 -1.4004  0.8990
  129CHL1   C1515750   4.723   5.959   5.263 -0.0038  0.1913  0.0135
  129CHL1  H15A15751   4.826   5.986   5.231 -0.4281 -0.2529 -1.9117
  129CHL1  H15B15752   4.651   6.043   5.257 -0.5308 -0.2892 -0.7040
  129CHL1   C1615753   4.714   5.916   5.415  0.1240  0.4214  0.4355
  129CHL1  H16A15754   4.818   5.908   5.455 -0.2577  0.1313  1.4121
  129CHL1  H16B15755   4.653   5.989   5.473 -1.0648  0.9189 -1.3600
  129CHL1   C1715756   4.641   5.778   5.412  0.3908 -0.1197  0.4808
  129CHL1   H1715757   4.532   5.802   5.414  0.0707 -1.0464 -2.0115
  129CHL1   C1315758   4.668   5.719   5.275  0.8461  0.1976 -0.0651
  129CHL1   C1815759   4.807   5.658   5.264  0.2344  0.2336  0.1432
  129CHL1  H18A15760   4.824   5.638   5.157 -3.7166  0.0649 -0.6135
  129CHL1  H18B15761   4.885   5.723   5.309  1.2568 -1.0670  0.3057
  129CHL1  H18C15762   4.809   5.563   5.322 -1.3921  0.7597  1.1628
  129CHL1   C1215763   4.561   5.612   5.225 -0.0885  0.3352  0.4122
  129CHL1  H12A15764   4.583   5.519   5.282 -0.9193  0.4831  0.9960
  129CHL1  H12B15765   4.462   5.653   5.254  0.3757  1.0510  1.0396
  129CHL1   C1115766   4.580   5.584   5.075  0.0496  0.0939  0.3414
  129CHL1  H11A15767   4.670   5.520   5.074 -0.4162 -0.5606 -0.6002
  129CHL1  H11B15768   4.493   5.531   5.032  0.1592  0.2454 -0.0661
  129CHL1    C915769   4.591   5.712   4.985 -0.3606 -0.2512 -0.0277
  129CHL1    H915770   4.491   5.761   4.985 -0.7324 -1.0048 -0.3235
  129CHL1   C1015771   4.610   5.682   4.835  0.0833 -0.0455 -0.3175
  129CHL1   C1915772   4.734   5.589   4.814 -0.3462 -0.0962  0.6365
  129CHL1  H19A15773   4.741   5.558   4.707 -1.0343  0.1171  0.5271
  129CHL1  H19B15774   4.824   5.648   4.841  0.1803 -0.8800  0.6191
  129CHL1  H19C15775   4.724   5.495   4.872 -2.2608 -0.8929 -0.8697
  129CHL1    C115776   4.478   5.626   4.777  0.0513  0.9025 -0.5198
  129CHL1   H1A15777   4.440   5.537   4.832  0.0214  2.9681  3.1006
  129CHL1   H1B15778   4.397   5.698   4.799 -1.7643 -0.9031 -1.0164
  129CHL1    C215779   4.472   5.606   4.624 -0.7277 -0.2205 -0.0807
  129CHL1   H2A15780   4.381   5.549   4.595  0.8151 -0.8564 -4.4264
  129CHL1   H2B15781   4.555   5.540   4.591  0.5665  0.6709  1.2530
  129CHL1   C2015782   4.672   5.700   5.539 -0.0753 -0.3364 -0.3148
  129CHL1   H2015783   4.780   5.679   5.547 -0.1224 -0.8647 -0.9967
  129CHL1   C2115784   4.600   5.562   5.548 -0.0228 -0.5251 -0.2687
  129CHL1  H21A15785   4.649   5.487   5.483  0.6199  0.6499 -1.1799
  129CHL1  H21B15786   4.496   5.589   5.520 -0.6723 -1.8081  0.7897
  129CHL1  H21C15787   4.597   5.531   5.655 -1.8352  2.0014  0.5135
  129CHL1   C2215788   4.635   5.786   5.668  0.1361  0.0892 -0.6015
  129CHL1  H22A15789   4.662   5.894   5.663 -0.3939  0.2514 -0.0210
  129CHL1  H22B15790   4.524   5.784   5.679  0.1261  1.5623 -0.1663
  129CHL1   C2315791   4.702   5.733   5.796 -0.2712  0.0615 -0.4321
  129CHL1  H23A15792   4.672   5.628   5.818 -3.1616  0.4553 -2.0284
  129CHL1  H23B15793   4.813   5.732   5.788 -0.2301  0.5054  0.0725
  129CHL1   C2415794   4.671   5.824   5.916  0.7677  0.2974  0.0235
  129CHL1  H24A15795   4.708   5.926   5.895 -0.4889  0.6575 -0.5393
  129CHL1  H24B15796   4.563   5.840   5.938 -0.0003 -0.7265 -2.5891
  129CHL1   C2515797   4.722   5.763   6.047  0.0305 -0.3835  0.4634
  129CHL1   H2515798   4.814   5.709   6.016  0.4555  1.8066 -2.5807
  129CHL1   C2615799   4.755   5.879   6.151 -0.6197 -0.0157  0.4382
  129CHL1  H26A15800   4.746   5.835   6.252 -3.7924  1.7353  1.0456
  129CHL1  H26B15801   4.846   5.936   6.122 -0.6076 -0.7223 -1.0417
  129CHL1  H26C15802   4.680   5.960   6.140  0.6289  1.3817  1.8503
  129CHL1   C2715803   4.622   5.668   6.113 -0.8419  0.8398  0.4609
  129CHL1  H27A15804   4.648   5.655   6.220 -4.0331 -0.7836  1.1813
  129CHL1  H27B15805   4.517   5.705   6.105 -1.8716 -2.0116 -0.5446
  129CHL1  H27C15806   4.614   5.564   6.074 -0.4735  0.3444  1.6681
  130CHL1    C315807   3.449   1.845   4.658  0.6420 -0.4434  0.1327
  130CHL1    H315808   3.516   1.756   4.651 -1.1757 -1.9734  1.0556
  130CHL1    O315809   3.409   1.878   4.517  0.0352 -0.7391 -0.1600
  130CHL1   H3'15810   3.491   1.900   4.472  0.0438 -0.4335  0.0070
  130CHL1    C415811   3.327   1.802   4.752  0.2479 -0.0885  0.1230
  130CHL1   H4A15812   3.262   1.891   4.747  0.9650  0.5794  1.6992
  130CHL1   H4B15813   3.260   1.721   4.716 -1.4073  1.1047  0.4124
  130CHL1    C515814   3.370   1.777   4.899  0.5620  0.1223  0.3751
  130CHL1    C615815   3.346   1.669   4.956 -0.0438  0.4003 -0.8849
  130CHL1    H615816   3.288   1.588   4.910 -2.1084  0.0263  2.1434
  130CHL1    C715817   3.372   1.653   5.100 -0.6414 -0.1475 -0.7435
  130CHL1   H7A15818   3.277   1.615   5.143 -2.4380 -0.0380 -4.2819
  130CHL1   H7B15819   3.453   1.577   5.102 -0.9986 -0.5608  1.8891
  130CHL1    C815820   3.421   1.782   5.176  1.0496 -0.6985  0.7045
  130CHL1    H815821   3.334   1.846   5.202 -0.3305 -0.6762 -3.2592
  130CHL1   C1415822   3.487   1.745   5.306 -0.4355  0.0228  0.0402
  130CHL1   H1415823   3.567   1.672   5.281 -1.2734 -1.7925  2.2547
  130CHL1   C1515824   3.394   1.679   5.410 -0.8247  0.2267 -0.1137
  130CHL1  H15A15825   3.305   1.745   5.418 -2.0208 -1.1379 -1.6170
  130CHL1  H15B15826   3.368   1.574   5.384  1.0392 -0.4086  0.3979
  130CHL1   C1615827   3.469   1.691   5.542 -0.4947 -0.8193  0.2620
  130CHL1  H16A15828   3.401   1.749   5.608 -1.0815 -0.5268 -0.5834
  130CHL1  H16B15829   3.493   1.596   5.594  1.1166  0.9321  2.9241
  130CHL1   C1715830   3.591   1.786   5.515 -0.7280 -0.4483  0.5980
  130CHL1   H1715831   3.677   1.725   5.480  1.2652  2.2868  0.4816
  130CHL1   C1315832   3.554   1.855   5.382 -0.0246 -1.0502  0.1282
  130CHL1   C1815833   3.448   1.962   5.421  0.5139  0.4693  0.0400
  130CHL1  H18A15834   3.398   2.000   5.330  1.4725 -1.3420 -1.3240
  130CHL1  H18B15835   3.366   1.930   5.490 -0.3358  2.1282 -0.1545
  130CHL1  H18C15836   3.495   2.054   5.461  0.4880 -1.1589  4.3325
  130CHL1   C1215837   3.662   1.926   5.297 -0.4468  0.0999 -0.0125
  130CHL1  H12A15838   3.716   2.006   5.351  0.2337 -0.6588  0.4548
  130CHL1  H12B15839   3.737   1.849   5.270 -0.3435  0.0382  0.4387
  130CHL1   C1115840   3.604   1.968   5.162  0.2254 -0.1007  0.4145
  130CHL1  H11A15841   3.526   2.046   5.176 -0.6375 -1.2424  2.3598
  130CHL1  H11B15842   3.688   2.009   5.102 -0.9181  0.2609 -0.9959
  130CHL1    C915843   3.518   1.861   5.089 -0.3937 -0.0146 -0.0525
  130CHL1    H915844   3.590   1.781   5.060 -0.6515 -0.0941 -0.4795
  130CHL1   C1015845   3.451   1.892   4.958  0.4055 -0.4233  0.1122
  130CHL1   C1915846   3.354   2.017   4.982 -0.5290 -0.1375 -0.1696
  130CHL1  H19A15847   3.414   2.108   5.005 -0.1170  0.5459 -3.4250
  130CHL1  H19B15848   3.310   2.040   4.883 -0.0671 -1.4540 -0.7091
  130CHL1  H19C15849   3.270   2.007   5.054 -0.3953 -0.4343 -0.0499
  130CHL1    C115850   3.558   1.939   4.855 -0.3871 -0.0743 -0.2950
  130CHL1   H1A15851   3.603   2.033   4.893  0.3003  0.3822 -2.1194
  130CHL1   H1B15852   3.638   1.862   4.850  1.2967  1.5848 -0.0555
  130CHL1    C215853   3.512   1.970   4.717  0.8293 -0.1877  0.1697
  130CHL1   H2A15854   3.598   1.998   4.653 -0.8505 -0.7642 -2.5201
  130CHL1   H2B15855   3.434   2.048   4.720 -2.1273 -2.8376 -1.2588
  130CHL1   C2015856   3.654   1.866   5.631 -0.1406 -1.1396  0.0154
  130CHL1   H2015857   3.617   1.969   5.614  1.6750 -0.6615 -1.4736
  130CHL1   C2115858   3.803   1.883   5.606  0.1146 -0.8162  0.2803
  130CHL1  H21A15859   3.838   1.924   5.508  0.1494  0.6391  0.8655
  130CHL1  H21B15860   3.857   1.787   5.618  0.7019 -0.9073 -2.4161
  130CHL1  H21C15861   3.847   1.953   5.681 -2.2966  1.4810 -0.2892
  130CHL1   C2215862   3.624   1.813   5.774  0.1730  0.6865 -0.4281
  130CHL1  H22A15863   3.516   1.805   5.797  0.2489  1.0075  0.0590
  130CHL1  H22B15864   3.676   1.715   5.789 -0.3136  0.3900 -0.6761
  130CHL1   C2315865   3.691   1.903   5.885  0.2628  0.4758 -0.1210
  130CHL1  H23A15866   3.797   1.920   5.855 -0.3374  0.1041 -2.6655
  130CHL1  H23B15867   3.636   1.999   5.883 -2.0966 -0.7425  1.8008
  130CHL1   C2415868   3.688   1.852   6.025 -0.1637 -0.3008  0.2449
  130CHL1  H24A15869   3.591   1.806   6.049 -1.2190  1.9277  0.5451
  130CHL1  H24B15870   3.761   1.769   6.026 -0.6668 -0.7415  0.7827
  130CHL1   C2515871   3.732   1.955   6.133 -0.2431  0.0208  0.0222
  130CHL1   H2515872   3.821   1.999   6.083  0.5759 -2.1605 -0.5621
  130CHL1   C2615873   3.633   2.068   6.167 -0.3339 -0.6816  0.6261
  130CHL1  H26A15874   3.685   2.164   6.148 -3.1830  0.4983 -2.1578
  130CHL1  H26B15875   3.542   2.056   6.104 -0.4645 -4.1362  1.2585
  130CHL1  H26C15876   3.614   2.061   6.276  1.6803 -1.6519  0.9723
  130CHL1   C2715877   3.781   1.873   6.252 -0.0195  0.9439 -0.7729
  130CHL1  H27A15878   3.848   1.789   6.223 -1.5756 -0.9856  0.8892
  130CHL1  H27B15879   3.841   1.939   6.319  3.3337 -1.7865 -0.7856
  130CHL1  H27C15880   3.696   1.827   6.307  0.9317 -0.0987 -0.1275
  131CHL1    C315881   1.232   6.074   4.961 -0.0049 -0.1782 -0.1974
  131CHL1    H315882   1.201   5.968   4.948  0.8747 -0.6318  1.1849
  131CHL1    O315883   1.279   6.115   4.833  0.1346  0.1761 -0.7539
  131CHL1   H3'15884   1.312   6.205   4.839  1.4912 -0.3812  1.0822
  131CHL1    C415885   1.116   6.167   4.997  0.0909  0.5809  0.9518
  131CHL1   H4A15886   1.142   6.273   4.977 -2.1688  0.8939 -0.7190
  131CHL1   H4B15887   1.034   6.147   4.924  0.0999  0.7989  0.8819
  131CHL1    C515888   1.064   6.153   5.140 -0.0735 -0.2153 -0.0960
  131CHL1    C615889   0.941   6.115   5.165  0.1580  0.3790 -0.6795
  131CHL1    H615890   0.867   6.093   5.087  0.0882  0.5295 -0.6567
  131CHL1    C715891   0.889   6.101   5.304 -0.5369  0.3066 -0.3397
  131CHL1   H7A15892   0.793   6.156   5.311 -2.5936 -3.1407  1.1391
  131CHL1   H7B15893   0.870   5.994   5.326  2.7802  0.1201  2.6639
  131CHL1    C815894   0.982   6.153   5.418 -0.6762 -0.8562  0.2518
  131CHL1    H815895   0.988   6.264   5.412  0.2813 -0.6812  2.9269
  131CHL1   C1415896   0.935   6.098   5.549 -0.1183  0.6042 -0.5588
  131CHL1   H1415897   0.964   5.991   5.553  0.9373  0.8765 -0.6405
  131CHL1   C1515898   0.786   6.099   5.577  0.4142 -0.4634 -0.2530
  131CHL1  H15A15899   0.745   6.201   5.560  0.6272 -0.3749 -0.2449
  131CHL1  H15B15900   0.737   6.021   5.515 -1.6024 -1.5553  2.5501
  131CHL1   C1615901   0.785   6.072   5.723  0.5430 -0.5077  0.2586
  131CHL1  H16A15902   0.729   6.159   5.762  0.3945 -0.9172  0.9809
  131CHL1  H16B15903   0.722   5.985   5.749 -1.7357  0.6407 -1.1766
  131CHL1   C1715904   0.930   6.072   5.782  0.0538  0.2611 -1.0628
  131CHL1   H1715905   0.964   5.967   5.791  0.3874  0.4145 -0.4765
  131CHL1   C1315906   1.007   6.147   5.675  0.2379  0.6149  0.2426
  131CHL1   C1815907   0.988   6.300   5.694  0.3388  0.0418  0.8459
  131CHL1  H18A15908   0.882   6.330   5.707 -0.2110 -1.3959 -0.0294
  131CHL1  H18B15909   1.030   6.331   5.792  2.2805 -1.1857  0.4581
  131CHL1  H18C15910   1.042   6.363   5.621 -1.0130  0.6937  0.3698
  131CHL1   C1215911   1.152   6.111   5.656 -0.1302 -0.6306  0.0837
  131CHL1  H12A15912   1.213   6.162   5.734 -1.0768  0.8199 -0.0900
  131CHL1  H12B15913   1.165   6.002   5.674 -0.7328 -0.5063  1.3907
  131CHL1   C1115914   1.219   6.160   5.515  0.0049 -0.3063 -0.1965
  131CHL1  H11A15915   1.224   6.271   5.524 -0.2345 -0.3839  1.0959
  131CHL1  H11B15916   1.319   6.114   5.497 -0.8085 -2.0298 -0.5172
  131CHL1    C915917   1.131   6.120   5.390  0.5969  0.5804  0.2792
  131CHL1    H915918   1.129   6.009   5.388  2.0027  0.5412  0.1254
  131CHL1   C1015919   1.174   6.164   5.248 -0.0741 -0.1968 -0.5511
  131CHL1   C1915920   1.220   6.312   5.260 -0.3432  0.2931  0.6511
  131CHL1  H19A15921   1.314   6.317   5.319  1.5430 -0.3611 -2.0939
  131CHL1  H19B15922   1.258   6.357   5.165 -0.2014  1.5149  1.2654
  131CHL1  H19C15923   1.140   6.379   5.299 -0.5355  0.1265  0.5463
  131CHL1    C115924   1.298   6.079   5.208 -0.0116 -0.3987 -0.2231
  131CHL1   H1A15925   1.388   6.097   5.271  1.5419 -1.4496 -2.0502
  131CHL1   H1B15926   1.266   5.974   5.230 -1.2317 -0.0805 -0.4006
  131CHL1    C215927   1.340   6.103   5.064 -0.3775  0.8391  0.7285
  131CHL1   H2A15928   1.423   6.036   5.032 -0.6358  0.8836 -0.0761
  131CHL1   H2B15929   1.379   6.206   5.044 -0.8848  0.8438 -0.3033
  131CHL1   C2015930   0.933   6.131   5.930  0.2637 -0.5817  0.0520
  131CHL1   H2015931   0.899   6.235   5.918  3.8843  0.6073 -1.1201
  131CHL1   C2115932   1.080   6.129   5.984 -0.0168 -0.2758  0.1342
  131CHL1  H21A15933   1.151   6.186   5.920 -0.2811 -2.1373 -1.9036
  131CHL1  H21B15934   1.120   6.026   5.978 -2.0035 -1.2268  1.8544
  131CHL1  H21C15935   1.090   6.160   6.090 -2.3118  0.0916  0.2859
  131CHL1   C2215936   0.834   6.054   6.022  0.1484  0.1630  0.0174
  131CHL1  H22A15937   0.813   6.107   6.117 -0.9647 -2.1116  1.1426
  131CHL1  H22B15938   0.739   6.025   5.973  0.3948 -0.0661 -0.3369
  131CHL1   C2315939   0.904   5.924   6.073 -0.3370 -0.2306 -0.1082
  131CHL1  H23A15940   0.922   5.865   5.980  0.7112 -0.4974  0.2467
  131CHL1  H23B15941   0.994   5.939   6.136  0.3794  0.7410 -1.3069
  131CHL1   C2415942   0.804   5.838   6.152 -0.0580 -0.0346  0.5122
  131CHL1  H24A15943   0.764   5.894   6.240  0.7551  0.1967  0.7475
  131CHL1  H24B15944   0.722   5.822   6.079 -1.1767  0.6318  1.5778
  131CHL1   C2515945   0.863   5.707   6.195  0.2996  0.4979  0.1581
  131CHL1   H2515946   0.922   5.658   6.114  0.9198  0.5964  0.5436
  131CHL1   C2615947   0.961   5.725   6.318 -0.4903 -0.8101  0.0020
  131CHL1  H26A15948   1.044   5.791   6.284 -1.0479  0.2022  0.5670
  131CHL1  H26B15949   0.914   5.773   6.406  0.0535 -2.2996  1.1483
  131CHL1  H26C15950   1.007   5.632   6.356  0.8123  0.7132  2.4158
  131CHL1   C2715951   0.750   5.613   6.243 -0.4057 -0.5322 -0.3075
  131CHL1  H27A15952   0.686   5.571   6.163 -1.5720  1.0657 -0.2439
  131CHL1  H27B15953   0.793   5.530   6.303  1.9359  0.5865 -0.3154
  131CHL1  H27C15954   0.685   5.673   6.309 -1.8791 -1.0910 -1.2062
  132CHL1    C315955   3.564   0.217   4.810  0.0213 -0.0251 -0.1288
  132CHL1    H315956   3.639   0.136   4.819  0.1982  0.3106  1.9624
  132CHL1    O315957   3.503   0.230   4.683 -0.0750 -0.0849 -0.2218
  132CHL1   H3'15958   3.457   0.315   4.683  1.1941  0.7493  2.9260
  132CHL1    C415959   3.451   0.188   4.904  0.5827 -0.1503 -0.0121
  132CHL1   H4A15960   3.367   0.262   4.900  0.2168 -0.5513  0.1435
  132CHL1   H4B15961   3.398   0.096   4.871 -2.8807  0.8729  2.1475
  132CHL1    C515962   3.500   0.182   5.042  0.1435  0.1067 -0.3423
  132CHL1    C615963   3.490   0.080   5.122 -0.1510  0.2925 -1.0573
  132CHL1    H615964   3.444  -0.014   5.089 -0.7935 -0.1186  0.8963
  132CHL1    C715965   3.530   0.068   5.267  0.2836  0.3790 -0.3121
  132CHL1   H7A15966   3.452   0.026   5.334 -1.8848  2.0197 -1.6482
  132CHL1   H7B15967   3.614  -0.002   5.283 -0.2570 -0.8377 -2.4616
  132CHL1    C815968   3.555   0.205   5.332  0.6235  0.1445 -0.2923
  132CHL1    H815969   3.454   0.250   5.343  0.2670 -0.4595 -0.9599
  132CHL1   C1415970   3.618   0.195   5.470 -0.4027  0.0504 -0.3079
  132CHL1   H1415971   3.722   0.163   5.448 -0.8605 -1.2677 -0.6896
  132CHL1   C1515972   3.558   0.099   5.573 -0.0740 -0.3237 -0.0567
  132CHL1  H15A15973   3.452   0.080   5.549 -1.3156  2.1495  2.7356
  132CHL1  H15B15974   3.616   0.005   5.560  0.0644 -0.0838 -1.3706
  132CHL1   C1615975   3.592   0.158   5.707  0.3268  0.0091 -0.8561
  132CHL1  H16A15976   3.500   0.183   5.765 -1.2931  1.4297 -3.7990
  132CHL1  H16B15977   3.667   0.088   5.749  0.8857  0.7419 -0.5962
  132CHL1   C1715978   3.675   0.291   5.684 -0.7191  0.5760  0.8147
  132CHL1   H1715979   3.784   0.270   5.678 -1.4935 -4.3898 -0.8457
  132CHL1   C1315980   3.635   0.331   5.539  0.4115  0.7995 -0.8675
  132CHL1   C1815981   3.498   0.403   5.547 -0.2407 -0.0191 -0.4596
  132CHL1  H18A15982   3.421   0.342   5.599 -0.4731 -1.0361 -1.9556
  132CHL1  H18B15983   3.508   0.497   5.607  0.5957  0.3739 -1.1849
  132CHL1  H18C15984   3.463   0.439   5.448  0.3195  1.2927 -0.2137
  132CHL1   C1215985   3.729   0.413   5.455 -0.0413 -0.1905 -0.2038
  132CHL1  H12A15986   3.738   0.519   5.488  1.0439 -0.0952 -0.7507
  132CHL1  H12B15987   3.829   0.366   5.457  0.0923 -0.0178 -1.5541
  132CHL1   C1115988   3.684   0.424   5.309  0.7095 -0.2226  0.6122
  132CHL1  H11A15989   3.601   0.498   5.310  0.2161 -0.6716 -1.8562
  132CHL1  H11B15990   3.761   0.475   5.248  1.1402 -1.7446 -0.1776
  132CHL1    C915991   3.641   0.291   5.241  0.2995  0.4133  0.6769
  132CHL1    H915992   3.737   0.239   5.223  0.2252  0.3189  0.5459
  132CHL1   C1015993   3.579   0.316   5.095  0.0673 -0.0335 -0.1965
  132CHL1   C1915994   3.470   0.424   5.109  0.1551 -0.5008 -0.0013
  132CHL1  H19A15995   3.409   0.437   5.018  0.0443  1.6744  0.3247
  132CHL1  H19B15996   3.395   0.402   5.188  0.8491 -1.4179  0.4233
  132CHL1  H19C15997   3.516   0.525   5.120 -3.2068  1.1438  0.0787
  132CHL1    C115998   3.683   0.346   4.990  0.3052 -0.3530 -0.0705
  132CHL1   H1A15999   3.725   0.443   5.025  0.8259 -0.3943 -0.5705
  132CHL1   H1B16000   3.775   0.284   4.987  1.1699  0.9053 -0.6751
  132CHL1    C216001   3.632   0.348   4.844  0.0767  0.1773  0.3310
  132CHL1   H2A16002   3.706   0.377   4.766  0.5229 -1.8761 -0.0710
  132CHL1   H2B16003   3.547   0.419   4.827  0.3135  0.0008 -1.9419
  132CHL1   C2016004   3.680   0.396   5.794  0.0339  0.0261  0.0221
  132CHL1   H2016005   3.574   0.427   5.800  0.4024  1.1577  1.0361
  132CHL1   C2116006   3.777   0.509   5.764  0.4796 -0.4735  0.6446
  132CHL1  H21A16007   3.876   0.471   5.730  0.1252 -1.2353  0.4375
  132CHL1  H21B16008   3.788   0.568   5.857  0.9012 -1.1922  1.0595
  132CHL1  H21C16009   3.738   0.585   5.692  1.8348  0.3760  0.7602
  132CHL1   C2216010   3.724   0.314   5.918 -0.1310 -0.0961 -0.7233
  132CHL1  H22A16011   3.670   0.218   5.935  1.3676 -0.5255  2.2019
  132CHL1  H22B16012   3.828   0.279   5.899 -0.3985 -1.3616  0.0171
  132CHL1   C2316013   3.710   0.398   6.048 -0.4212  0.5296  0.4503
  132CHL1  H23A16014   3.763   0.494   6.030 -0.5720  0.6490  0.6393
  132CHL1  H23B16015   3.603   0.425   6.062 -0.7946 -0.4037 -0.4505
  132CHL1   C2416016   3.775   0.322   6.165 -0.3147  0.3538 -0.2823
  132CHL1  H24A16017   3.725   0.223   6.162 -0.6465  0.5384 -1.1524
  132CHL1  H24B16018   3.885   0.309   6.153  0.0742  2.1865  0.9299
  132CHL1   C2516019   3.749   0.380   6.308 -0.8622  0.6522  0.2353
  132CHL1   H2516020   3.641   0.386   6.331 -1.8179 -1.2195 -3.0848
  132CHL1   C2616021   3.816   0.300   6.419  0.0182  0.4364  0.2471
  132CHL1  H26A16022   3.800   0.190   6.409  1.4531  0.2619 -0.3470
  132CHL1  H26B16023   3.927   0.302   6.416  0.0700 -1.3407 -1.1576
  132CHL1  H26C16024   3.774   0.342   6.513  1.4291  1.3554  0.4835
  132CHL1   C2716025   3.787   0.527   6.325 -0.2313 -0.6121 -0.2171
  132CHL1  H27A16026   3.765   0.555   6.430 -2.7507 -0.4502 -0.7037
  132CHL1  H27B16027   3.893   0.550   6.303 -1.0345  1.2089 -2.5506
  132CHL1  H27C16028   3.729   0.595   6.260 -1.4007 -0.3350  1.0697
  133CHL1    C316029   0.872   3.708   4.352 -0.5857 -0.0069 -0.0703
  133CHL1    H316030   0.969   3.654   4.353  0.4025  1.6049  2.9028
  133CHL1    O316031   0.840   3.706   4.215  0.0885  0.0772  0.5976
  133CHL1   H3'16032   0.903   3.657   4.161 -0.8824 -0.2961 -0.2340
  133CHL1    C416033   0.768   3.632   4.435 -0.0151 -0.2881 -0.2563
  133CHL1   H4A16034   0.670   3.679   4.413  0.3224  1.5358  1.8943
  133CHL1   H4B16035   0.759   3.530   4.390 -1.1382 -0.0849 -0.5318
  133CHL1    C516036   0.807   3.629   4.581  0.1730  0.0103  1.0790
  133CHL1    C616037   0.828   3.513   4.635  0.2196  0.1390 -0.2788
  133CHL1    H616038   0.818   3.417   4.583 -0.6139 -0.0381  0.1962
  133CHL1    C716039   0.847   3.499   4.784  0.4716 -0.1341  0.0265
  133CHL1   H7A16040   0.770   3.434   4.832  1.4561 -0.6777  0.8976
  133CHL1   H7B16041   0.947   3.454   4.804  1.0817  1.4953  0.7510
  133CHL1    C816042   0.826   3.635   4.857 -0.0901 -0.1582 -0.6920
  133CHL1    H816043   0.716   3.640   4.867 -0.1091  0.0772 -1.0169
  133CHL1   C1416044   0.881   3.621   4.997  0.4317 -0.2932 -0.0002
  133CHL1   H1416045   0.990   3.610   4.982 -0.0220 -1.1486 -3.2409
  133CHL1   C1516046   0.842   3.503   5.090 -0.0407 -0.3731 -0.4292
  133CHL1  H15A16047   0.732   3.497   5.101  0.1304 -1.6058  0.9254
  133CHL1  H15B16048   0.886   3.410   5.047 -1.2718 -1.8079  1.2523
  133CHL1   C1616049   0.897   3.553   5.223 -0.2590 -0.4240  0.4974
  133CHL1  H16A16050   0.814   3.543   5.296 -1.0878  0.1951 -0.3443
  133CHL1  H16B16051   0.978   3.492   5.269  0.6341 -0.6738 -1.2928
  133CHL1   C1716052   0.928   3.705   5.212  0.4493  0.6845 -0.6186
  133CHL1   H1716053   1.035   3.702   5.181  1.6597  1.7343  3.0096
  133CHL1   C1316054   0.862   3.750   5.076  0.3032  0.0341 -0.8793
  133CHL1   C1816055   0.710   3.781   5.102  0.1014 -0.3746 -0.0389
  133CHL1  H18A16056   0.659   3.809   5.007  0.0344 -0.1837  0.0535
  133CHL1  H18B16057   0.648   3.696   5.140  0.3587  0.0923  1.4731
  133CHL1  H18C16058   0.686   3.869   5.165 -0.3269  0.9278 -1.9072
  133CHL1   C1216059   0.929   3.868   5.008  0.0416 -0.0723  0.0304
  133CHL1  H12A16060   0.896   3.960   5.062  1.9071 -1.0917  3.1404
  133CHL1  H12B16061   1.039   3.859   5.017  0.1162 -0.2629 -0.9457
  133CHL1   C1116062   0.879   3.886   4.869 -0.6241  0.2145 -0.1891
  133CHL1  H11A16063   0.777   3.930   4.880 -0.0995  1.3205  0.3800
  133CHL1  H11B16064   0.931   3.965   4.811  0.1472 -0.9769 -1.1611
  133CHL1    C916065   0.893   3.755   4.783  0.4360 -0.2308  0.2578
  133CHL1    H916066   0.999   3.721   4.781  0.7718  0.7589  0.4799
  133CHL1   C1016067   0.834   3.770   4.638  0.1914 -0.0792  0.0676
  133CHL1   C1916068   0.700   3.849   4.644 -0.1732  0.1115  0.0097
  133CHL1  H19A16069   0.710   3.953   4.680 -0.7387  0.0146  0.4608
  133CHL1  H19B16070   0.656   3.841   4.542 -0.5903 -1.5408  0.2945
  133CHL1  H19C16071   0.638   3.791   4.715  0.7429 -0.0674  0.6800
  133CHL1    C116072   0.930   3.853   4.557  0.0245  0.0569  0.1560
  133CHL1   H1A16073   0.930   3.963   4.575 -0.9072 -0.2416  2.2408
  133CHL1   H1B16074   1.033   3.820   4.577 -0.4406 -0.7832  1.2377
  133CHL1    C216075   0.897   3.850   4.406 -0.1837 -0.2960  0.5316
  133CHL1   H2A16076   0.978   3.884   4.338 -0.7163 -0.1850 -0.0576
  133CHL1   H2B16077   0.807   3.913   4.389 -1.3672 -2.2410 -0.8262
  133CHL1   C2016078   0.922   3.783   5.346  0.5164  0.5968 -0.1003
  133CHL1   H2016079   0.939   3.889   5.320 -0.6943  0.6722 -0.6255
  133CHL1   C2116080   1.048   3.750   5.432 -0.7189  0.8904  0.1072
  133CHL1  H21A16081   1.073   3.830   5.504  0.5392  0.6627 -0.0530
  133CHL1  H21B16082   1.131   3.752   5.358 -1.5503  1.0651 -0.8510
  133CHL1  H21C16083   1.043   3.647   5.473 -2.7405 -0.1853 -2.4994
  133CHL1   C2216084   0.800   3.777   5.441 -0.3378 -0.0930 -0.2401
  133CHL1  H22A16085   0.710   3.762   5.378 -2.4574  0.1251  2.4915
  133CHL1  H22B16086   0.812   3.684   5.501  1.2623  0.3657  0.1993
  133CHL1   C2316087   0.779   3.902   5.527 -0.1560  0.9446 -0.1746
  133CHL1  H23A16088   0.872   3.943   5.571 -0.9057  1.5050  0.9501
  133CHL1  H23B16089   0.734   3.988   5.474 -0.0032  0.5459 -0.9569
  133CHL1   C2416090   0.700   3.863   5.654 -0.1110  0.5981  0.2760
  133CHL1  H24A16091   0.593   3.842   5.633  0.1089 -0.9910  0.6469
  133CHL1  H24B16092   0.744   3.763   5.677 -1.2630 -0.6688 -2.6394
  133CHL1   C2516093   0.713   3.960   5.778  0.6053 -0.6088 -0.2899
  133CHL1   H2516094   0.711   4.063   5.736  0.8347 -0.7333 -0.6091
  133CHL1   C2616095   0.610   3.937   5.886 -0.0914 -0.0382  0.4973
  133CHL1  H26A16096   0.508   3.964   5.852 -0.1683  0.4292  1.0899
  133CHL1  H26B16097   0.603   3.830   5.917  1.7486  0.2498  2.1053
  133CHL1  H26C16098   0.637   3.999   5.974  0.4493  0.3959  0.0287
  133CHL1   C2716099   0.849   3.948   5.848  0.3348  0.0101  0.2881
  133CHL1  H27A16100   0.843   3.978   5.955 -0.7168 -1.0451  0.5499
  133CHL1  H27B16101   0.879   3.841   5.844 -2.4286 -0.8325 -0.0269
  133CHL1  H27C16102   0.926   4.006   5.793  0.2318  1.1191  1.2746
  134CHL1    C316103   6.060   4.360   4.548  0.2588 -0.0528 -0.3190
  134CHL1    H316104   5.963   4.414   4.550  0.3389  0.0770  0.4790
  134CHL1    O316105   6.099   4.321   4.416  0.6419  0.6713 -0.5693
  134CHL1   H3'16106   6.094   4.406   4.372  0.2394  1.0648  0.2033
  134CHL1    C416107   6.171   4.452   4.606  0.0553 -1.2852 -0.3953
  134CHL1   H4A16108   6.277   4.425   4.583  0.4260 -0.2242 -0.0001
  134CHL1   H4B16109   6.168   4.549   4.552  3.0344  0.4703  2.2601
  134CHL1    C516110   6.148   4.477   4.754  0.1051  0.3570  0.1353
  134CHL1    C616111   6.178   4.597   4.808 -0.4853  0.0431  0.1969
  134CHL1    H616112   6.222   4.674   4.743  1.5218 -0.1848  1.2026
  134CHL1    C716113   6.159   4.629   4.954 -0.2247  0.7026  0.3141
  134CHL1   H7A16114   6.249   4.688   4.979 -0.6524  0.7222  1.8942
  134CHL1   H7B16115   6.066   4.689   4.943 -0.5419  0.0351 -0.8308
  134CHL1    C816116   6.139   4.509   5.049 -0.3627  0.4797  0.2301
  134CHL1    H816117   6.241   4.472   5.072 -0.3298  0.6495  0.3577
  134CHL1   C1416118   6.083   4.551   5.183  0.3358 -0.4003 -0.4422
  134CHL1   H1416119   5.977   4.584   5.175  0.5241  0.3405 -0.0316
  134CHL1   C1516120   6.161   4.664   5.255 -0.1246 -0.5530  0.6918
  134CHL1  H15A16121   6.271   4.646   5.247 -0.3448 -1.3783 -0.8518
  134CHL1  H15B16122   6.144   4.760   5.201  0.7896 -1.3128 -1.0452
  134CHL1   C1616123   6.107   4.655   5.394 -0.1195  0.7540  0.3703
  134CHL1  H16A16124   6.195   4.642   5.460  1.3896 -1.0228 -1.8267
  134CHL1  H16B16125   6.052   4.747   5.423 -1.0979 -0.4629  2.6399
  134CHL1   C1716126   6.021   4.523   5.410 -0.0256 -0.3955  0.0548
  134CHL1   H1716127   5.915   4.545   5.386  0.1975 -0.3385 -0.9317
  134CHL1   C1316128   6.069   4.436   5.288  0.3848 -0.4454  0.3421
  134CHL1   C1816129   6.201   4.367   5.309 -0.2509 -0.3303 -0.4091
  134CHL1  H18A16130   6.277   4.443   5.339 -0.9107 -0.1630  0.8800
  134CHL1  H18B16131   6.199   4.297   5.395  3.1690 -1.3196 -0.9844
  134CHL1  H18C16132   6.241   4.304   5.227  2.1668 -0.6493  0.9162
  134CHL1   C1216133   5.975   4.331   5.227 -0.7186  0.3913 -0.9770
  134CHL1  H12A16134   5.973   4.238   5.289 -0.8569 -0.9979 -2.9739
  134CHL1  H12B16135   5.874   4.377   5.235 -0.2199  1.2607  1.1205
  134CHL1   C1116136   6.009   4.286   5.082  0.1182 -0.2922 -0.1401
  134CHL1  H11A16137   6.092   4.216   5.101 -0.3996 -0.6106  1.0936
  134CHL1  H11B16138   5.925   4.229   5.038 -0.2489  0.9285 -1.0845
  134CHL1    C916139   6.053   4.397   4.984 -0.0927  0.3264 -0.0280
  134CHL1    H916140   5.959   4.448   4.956  0.2334 -0.1259 -2.1101
  134CHL1   C1016141   6.109   4.354   4.847  0.1756  0.0454 -0.1701
  134CHL1   C1916142   6.236   4.270   4.862  0.2852  0.2691 -0.4069
  134CHL1  H19A16143   6.210   4.175   4.913  1.1768  1.8551  3.3547
  134CHL1  H19B16144   6.284   4.247   4.765  0.6771 -0.6158 -0.0099
  134CHL1  H19C16145   6.312   4.328   4.918  1.0476 -1.6027  0.5874
  134CHL1    C116146   6.003   4.266   4.775  0.3708  0.3867 -0.1290
  134CHL1   H1A16147   6.001   4.167   4.826  1.8160 -0.1631 -1.0722
  134CHL1   H1B16148   5.901   4.308   4.773 -0.2570 -0.8067  2.6375
  134CHL1    C216149   6.046   4.230   4.633  0.1070 -0.4961  1.0096
  134CHL1   H2A16150   5.963   4.171   4.590 -0.7742  0.5997  1.1656
  134CHL1   H2B16151   6.142   4.174   4.627  2.8948  3.8928 -1.0151
  134CHL1   C2016152   6.039   4.458   5.550  0.2209  0.2933 -0.4351
  134CHL1   H2016153   6.145   4.430   5.565  0.0561  1.0883  3.2467
  134CHL1   C2116154   5.936   4.341   5.565 -0.2152  0.1873 -0.6156
  134CHL1  H21A16155   5.927   4.288   5.662 -1.6099 -0.9904 -1.3360
  134CHL1  H21B16156   5.935   4.258   5.491 -3.0904 -0.5008  0.0580
  134CHL1  H21C16157   5.833   4.381   5.555 -0.3803 -0.4700 -1.8181
  134CHL1   C2216158   6.014   4.559   5.668  0.5787 -0.5194  0.8044
  134CHL1  H22A16159   6.070   4.653   5.655 -2.0032  0.7791 -2.4584
  134CHL1  H22B16160   5.905   4.578   5.679  0.4834 -0.6482  0.1348
  134CHL1   C2316161   6.052   4.496   5.805 -0.0816  0.1739  0.2337
  134CHL1  H23A16162   5.990   4.406   5.823 -0.8086  0.9402  1.7964
  134CHL1  H23B16163   6.158   4.464   5.805  0.1397  0.8463  1.3415
  134CHL1   C2416164   6.039   4.599   5.916  0.0887 -0.0255 -0.0067
  134CHL1  H24A16165   6.078   4.701   5.892 -2.5927  0.7971 -1.2328
  134CHL1  H24B16166   5.930   4.621   5.918  0.3959  1.5992  1.0052
  134CHL1   C2516167   6.083   4.543   6.060  0.1609  0.6391  0.5841
  134CHL1   H2516168   6.041   4.441   6.068  4.6026 -1.4358  0.3709
  134CHL1   C2616169   6.237   4.528   6.067 -0.7890  0.5698  0.3915
  134CHL1  H26A16170   6.279   4.631   6.065  0.5818  0.0546  1.0305
  134CHL1  H26B16171   6.281   4.479   6.157  0.8870  0.2483 -0.5649
  134CHL1  H26C16172   6.274   4.460   5.987 -0.1777  0.3612  0.8411
  134CHL1   C2716173   6.023   4.626   6.178 -0.3348 -0.1013  0.1244
  134CHL1  H27A16174   6.065   4.725   6.153  1.3735 -0.7417  0.3130
  134CHL1  H27B16175   5.912   4.631   6.170 -0.2710 -0.8861 -1.8741
  134CHL1  H27C16176   6.063   4.584   6.273 -0.9219  1.8278  1.2684
  135CHL1    C316177   0.248   3.950   4.351 -0.4001 -1.0647 -0.0364
  135CHL1    H316178   0.223   3.843   4.365 -0.2649 -1.1404 -0.3613
  135CHL1    O316179   0.253   3.971   4.208 -0.7187  0.2509 -0.4719
  135CHL1   H3'16180   0.261   4.065   4.191 -0.2668  0.2293 -0.3820
  135CHL1    C416181   0.140   4.038   4.414  0.6668 -0.1232 -0.2682
  135CHL1   H4A16182   0.168   4.145   4.401 -0.1302  0.4967  2.4517
  135CHL1   H4B16183   0.042   4.010   4.370  1.3355 -0.3904 -1.6329
  135CHL1    C516184   0.141   4.013   4.571 -0.5201 -0.2178  1.0658
  135CHL1    C616185   0.030   3.986   4.631 -0.5770  0.4139 -0.6612
  135CHL1    H616186  -0.058   3.972   4.566  0.1713 -1.5600 -1.3336
  135CHL1    C716187   0.019   3.971   4.779  0.2048  0.1731 -0.1604
  135CHL1   H7A16188  -0.073   4.022   4.814  0.7217 -0.7904  2.9210
  135CHL1   H7B16189   0.003   3.866   4.812 -0.5045 -0.3455 -1.9948
  135CHL1    C816190   0.141   4.018   4.860  0.4059 -0.4633  0.7350
  135CHL1    H816191   0.122   4.127   4.863 -2.6194 -0.9172  1.3632
  135CHL1   C1416192   0.135   3.963   5.002 -0.6491 -0.0384  0.5457
  135CHL1   H1416193   0.149   3.853   4.997  2.1799  0.2255  0.7073
  135CHL1   C1516194   0.009   4.004   5.084 -0.1291 -0.4020  0.7237
  135CHL1  H15A16195  -0.021   4.111   5.070 -0.7785 -0.8011 -1.2126
  135CHL1  H15B16196  -0.080   3.949   5.048 -0.5748  0.6573  0.1587
  135CHL1   C1616197   0.045   3.978   5.229 -0.6263 -0.1879 -1.0809
  135CHL1  H16A16198   0.021   4.070   5.286  0.0778 -0.5550 -0.1758
  135CHL1  H16B16199  -0.010   3.891   5.270 -0.4916 -0.9728 -2.4751
  135CHL1   C1716200   0.197   3.951   5.225 -0.7163 -0.0228  0.3270
  135CHL1   H1716201   0.217   3.842   5.214  4.2891  0.6242  0.6003
  135CHL1   C1316202   0.250   4.006   5.093 -0.5974 -0.1953 -0.1094
  135CHL1   C1816203   0.262   4.156   5.118  0.0546  0.1300  0.1337
  135CHL1  H18A16204   0.265   4.210   5.021  0.7015  1.1042  0.6838
  135CHL1  H18B16205   0.172   4.199   5.166  0.2222 -1.4291  1.9690
  135CHL1  H18C16206   0.352   4.186   5.176 -0.0923  3.8083 -1.3075
  135CHL1   C1216207   0.374   3.954   5.030 -1.0286  0.4316 -0.2349
  135CHL1  H12A16208   0.462   3.985   5.090  0.3941 -1.0201 -1.4469
  135CHL1  H12B16209   0.379   3.843   5.037  0.2543  0.3589 -1.5970
  135CHL1   C1116210   0.394   4.012   4.887 -0.0946  0.4947 -0.1285
  135CHL1  H11A16211   0.414   4.121   4.892 -2.8611  1.1826 -1.6418
  135CHL1  H11B16212   0.486   3.966   4.846 -0.0782  1.1376 -0.8319
  135CHL1    C916213   0.271   3.981   4.791 -0.5271 -0.0869 -0.2102
  135CHL1    H916214   0.263   3.871   4.778 -1.4562 -0.1121  0.4957
  135CHL1   C1016215   0.276   4.037   4.645 -0.2267  0.3110  0.8862
  135CHL1   C1916216   0.306   4.183   4.648  0.8818 -0.4189  0.6402
  135CHL1  H19A16217   0.402   4.214   4.695  1.9122 -0.7917 -1.1425
  135CHL1  H19B16218   0.319   4.237   4.552 -1.2891  0.7049  0.9352
  135CHL1  H19C16219   0.230   4.242   4.702  2.0466  1.9956 -0.2117
  135CHL1    C116220   0.390   3.975   4.565  0.0234 -0.0545 -0.3620
  135CHL1   H1A16221   0.489   4.005   4.606 -0.2342  1.6408 -0.9391
  135CHL1   H1B16222   0.380   3.866   4.587 -0.2853  0.0758  0.1479
  135CHL1    C216223   0.388   3.981   4.409 -0.5287 -0.0919  0.2520
  135CHL1   H2A16224   0.456   3.906   4.363 -1.2353  0.7340 -2.3132
  135CHL1   H2B16225   0.417   4.080   4.368  1.1062 -0.7763 -0.3336
  135CHL1   C2016226   0.273   3.996   5.355 -0.2873  0.2419 -1.2110
  135CHL1   H2016227   0.273   4.105   5.375  1.9217 -0.3357  3.2409
  135CHL1   C2116228   0.422   3.945   5.343  0.3441  0.5857 -0.5169
  135CHL1  H21A16229   0.457   3.903   5.440 -1.7686 -0.1876 -0.0332
  135CHL1  H21B16230   0.489   4.032   5.325 -0.1024  0.6145 -2.1276
  135CHL1  H21C16231   0.435   3.862   5.271  2.3949 -0.8389  1.3453
  135CHL1   C2216232   0.205   3.938   5.485 -0.0313 -0.0353  0.2454
  135CHL1  H22A16233   0.100   3.974   5.487  0.0916  0.3032  1.3786
  135CHL1  H22B16234   0.195   3.827   5.490 -2.1378  0.1496  0.9072
  135CHL1   C2316235   0.262   3.985   5.623  0.0390 -0.2530 -0.0395
  135CHL1  H23A16236   0.367   3.951   5.633  0.9729  2.1074 -0.9821
  135CHL1  H23B16237   0.262   4.095   5.638 -0.5592 -0.0100 -1.6158
  135CHL1   C2416238   0.182   3.932   5.746  0.6310  0.2108  0.3581
  135CHL1  H24A16239   0.076   3.947   5.717  0.9375  2.4193  0.2109
  135CHL1  H24B16240   0.195   3.821   5.746 -0.2558  0.0911 -0.6571
  135CHL1   C2516241   0.195   4.007   5.877 -0.0322  0.5972  0.2283
  135CHL1   H2516242   0.305   4.022   5.883 -0.1565  1.8669 -0.3624
  135CHL1   C2616243   0.123   4.141   5.882  0.0917  0.4282  0.2288
  135CHL1  H26A16244   0.014   4.135   5.866  0.2896 -1.7721 -0.7574
  135CHL1  H26B16245   0.142   4.186   5.981  2.2824 -0.0165  0.0684
  135CHL1  H26C16246   0.176   4.208   5.811  1.0386  0.0899  0.5942
  135CHL1   C2716247   0.138   3.921   5.999  0.0717  0.0596 -0.1289
  135CHL1  H27A16248   0.142   3.974   6.096  0.0206  0.9313 -0.5899
  135CHL1  H27B16249   0.031   3.911   5.972  0.5090  0.5229 -2.2592
  135CHL1  H27C16250   0.186   3.821   6.006  0.1940 -0.1638 -2.9543
  136CHL1    C316251   4.410   1.274   4.433 -0.3152  1.2145 -0.1585
  136CHL1    H316252   4.496   1.204   4.446 -2.1619 -0.8129  1.9896
  136CHL1    O316253   4.354   1.269   4.300 -0.2681  0.2935  0.5025
  136CHL1   H3'16254   4.298   1.346   4.285  1.1055  1.6381  1.9197
  136CHL1    C416255   4.311   1.219   4.528  0.4697  0.0509  0.5595
  136CHL1   H4A16256   4.211   1.264   4.512 -0.2572 -1.4934  0.5962
  136CHL1   H4B16257   4.307   1.112   4.496  0.6163 -0.2538  1.5340
  136CHL1    C516258   4.344   1.235   4.672  0.5328  0.0247  0.3324
  136CHL1    C616259   4.336   1.134   4.761 -0.4721  0.2548  0.6681
  136CHL1    H616260   4.302   1.033   4.736  1.2881  0.0903 -1.4300
  136CHL1    C716261   4.348   1.151   4.911  0.0371 -0.6111  0.0096
  136CHL1   H7A16262   4.256   1.116   4.962  1.1697 -0.9878  1.9023
  136CHL1   H7B16263   4.425   1.081   4.949  0.8856  0.7750  0.9373
  136CHL1    C816264   4.387   1.301   4.956 -0.1982 -0.5169  0.1769
  136CHL1    H816265   4.300   1.369   4.970 -0.9096 -1.2828 -0.3772
  136CHL1   C1416266   4.467   1.292   5.087  0.4302 -0.0160  0.1578
  136CHL1   H1416267   4.558   1.236   5.057  0.7242  0.6192 -0.1509
  136CHL1   C1516268   4.387   1.221   5.202  0.6542 -0.2632 -0.1502
  136CHL1  H15A16269   4.283   1.262   5.204  0.9049  0.5020 -1.6738
  136CHL1  H15B16270   4.383   1.111   5.191 -1.4127 -0.1886 -0.6979
  136CHL1   C1616271   4.462   1.275   5.331 -0.4603 -0.0687  0.1553
  136CHL1  H16A16272   4.388   1.324   5.398 -0.7402 -1.7866  1.1558
  136CHL1  H16B16273   4.514   1.194   5.386 -0.3185 -0.8145 -1.0313
  136CHL1   C1716274   4.563   1.382   5.282  0.1164 -0.3947 -0.6252
  136CHL1   H1716275   4.660   1.330   5.265  0.7057 -0.0114  1.2440
  136CHL1   C1316276   4.514   1.427   5.140  0.2171 -0.1879  0.2616
  136CHL1   C1816277   4.388   1.523   5.157 -0.2310 -0.1321 -0.6385
  136CHL1  H18A16278   4.331   1.541   5.063  0.3885  0.3462 -0.9266
  136CHL1  H18B16279   4.305   1.489   5.223 -0.6172  1.5295 -0.2251
  136CHL1  H18C16280   4.444   1.612   5.191  0.4006 -0.4989 -0.7106
  136CHL1   C1216281   4.609   1.494   5.036  0.9081 -0.3458 -0.0737
  136CHL1  H12A16282   4.645   1.591   5.076 -1.1906 -0.1688  1.5206
  136CHL1  H12B16283   4.698   1.430   5.016  0.6682 -1.6035  2.4517
  136CHL1   C1116284   4.538   1.507   4.901  0.4782  0.0020  0.6452
  136CHL1  H11A16285   4.456   1.580   4.919 -1.5412 -2.0880  0.3444
  136CHL1  H11B16286   4.604   1.547   4.821 -1.2113  0.5682 -0.5171
  136CHL1    C916287   4.477   1.371   4.851  0.1137  0.3313 -0.0324
  136CHL1    H916288   4.567   1.309   4.831  0.4197  1.1081 -1.1740
  136CHL1   C1016289   4.396   1.379   4.716 -0.1140  0.2141  0.3247
  136CHL1   C1916290   4.270   1.473   4.728 -0.1167 -0.1536  0.2019
  136CHL1  H19A16291   4.292   1.579   4.755 -2.3733  0.6345 -0.7813
  136CHL1  H19B16292   4.230   1.478   4.624  1.1276 -1.6892 -0.3812
  136CHL1  H19C16293   4.181   1.441   4.788 -1.4511  3.2924  0.3052
  136CHL1    C116294   4.503   1.429   4.612  0.0102 -0.3631  0.2336
  136CHL1   H1A16295   4.529   1.536   4.630  1.2855 -0.6383  0.1095
  136CHL1   H1B16296   4.597   1.370   4.613 -0.3128 -0.9179 -0.9961
  136CHL1    C216297   4.455   1.416   4.468 -0.7814  0.0914  0.1718
  136CHL1   H2A16298   4.542   1.454   4.409 -0.2900 -0.4453  0.5321
  136CHL1   H2B16299   4.368   1.481   4.448 -0.6127 -0.2992 -2.0539
  136CHL1   C2016300   4.607   1.488   5.382 -0.1197 -0.1213  0.5965
  136CHL1   H2016301   4.517   1.549   5.404 -1.5156 -1.8326 -0.1413
  136CHL1   C2116302   4.730   1.573   5.334  0.2879  0.2643 -0.4233
  136CHL1  H21A16303   4.710   1.675   5.294  2.2631  2.1246  2.8408
  136CHL1  H21B16304   4.766   1.508   5.252 -2.9037 -0.4945 -1.3625
  136CHL1  H21C16305   4.808   1.586   5.412 -1.3913 -0.4146  1.4605
  136CHL1   C2216306   4.642   1.432   5.514  0.0360 -0.0752 -0.3010
  136CHL1  H22A16307   4.557   1.373   5.557 -1.2037 -0.2391 -2.7853
  136CHL1  H22B16308   4.719   1.354   5.496 -1.0649 -1.2077 -0.2869
  136CHL1   C2316309   4.688   1.528   5.626  0.2365 -0.6462 -0.8145
  136CHL1  H23A16310   4.795   1.550   5.607 -0.0593  1.0575 -0.6078
  136CHL1  H23B16311   4.637   1.625   5.604  3.4355  1.6999  1.2941
  136CHL1   C2416312   4.674   1.468   5.771 -0.3154 -0.1873 -0.5314
  136CHL1  H24A16313   4.572   1.437   5.802 -0.1711 -0.6021 -0.4654
  136CHL1  H24B16314   4.730   1.372   5.767  0.3610  0.1925 -0.3102
  136CHL1   C2516315   4.723   1.556   5.885  0.1366 -0.1248  1.0570
  136CHL1   H2516316   4.811   1.615   5.851  0.9549 -0.9947  1.6123
  136CHL1   C2616317   4.609   1.658   5.916 -0.5108  1.2688  0.9260
  136CHL1  H26A16318   4.526   1.605   5.967 -0.4701  0.2517 -0.0135
  136CHL1  H26B16319   4.645   1.742   5.979  1.8378 -0.9396  2.7871
  136CHL1  H26C16320   4.584   1.711   5.822  0.5012 -1.0288 -0.7444
  136CHL1   C2716321   4.751   1.477   6.016 -0.3716  0.1885 -0.2429
  136CHL1  H27A16322   4.661   1.416   6.037  0.6935 -0.7471  2.0050
  136CHL1  H27B16323   4.839   1.411   6.005 -0.6455 -0.0960 -0.7072
  136CHL1  H27C16324   4.769   1.539   6.107 -1.0478  0.5285 -0.3370
  137CHL1    C316325   5.287   2.514   3.771  0.2978 -0.6109  0.1066
  137CHL1    H316326   5.337   2.416   3.759 -0.5224 -0.9123 -1.0300
  137CHL1    O316327   5.265   2.572   3.639 -0.5486  0.2747 -0.1310
  137CHL1   H3'16328   5.223   2.499   3.592 -0.7046  1.3672 -1.7739
  137CHL1    C416329   5.146   2.498   3.829  0.1697 -0.0487 -0.5847
  137CHL1   H4A16330   5.082   2.586   3.807 -1.0362 -1.0885 -1.3486
  137CHL1   H4B16331   5.106   2.413   3.769  0.0849  0.8537 -1.8629
  137CHL1    C516332   5.153   2.464   3.976 -0.3446 -0.4963  0.5949
  137CHL1    C616333   5.089   2.356   4.028  0.3671 -0.7025 -0.8554
  137CHL1    H616334   5.019   2.306   3.959  1.7150 -0.2820 -2.5999
  137CHL1    C716335   5.098   2.318   4.174  0.4656 -0.3469 -0.2427
  137CHL1   H7A16336   5.001   2.277   4.210  0.0594  0.1174 -0.7830
  137CHL1   H7B16337   5.170   2.234   4.180  0.2317 -0.4223  2.4451
  137CHL1    C816338   5.151   2.427   4.270  0.5774  0.0295  0.3983
  137CHL1    H816339   5.069   2.501   4.275  1.0446  0.5560  0.3702
  137CHL1   C1416340   5.194   2.376   4.408  0.2806  0.1879 -0.4129
  137CHL1   H1416341   5.287   2.321   4.383  0.9665  1.4346 -0.6897
  137CHL1   C1516342   5.106   2.284   4.486  0.1229  0.2058  0.1986
  137CHL1  H15A16343   5.002   2.320   4.474 -0.0131 -0.2047  0.1375
  137CHL1  H15B16344   5.107   2.182   4.443 -3.4591 -0.1920  0.7865
  137CHL1   C1616345   5.146   2.297   4.634  0.0954  0.4770  0.3464
  137CHL1  H16A16346   5.052   2.326   4.685 -0.9043  1.5052 -1.9835
  137CHL1  H16B16347   5.190   2.203   4.674 -0.1131  0.1431 -0.2147
  137CHL1   C1716348   5.254   2.402   4.636  0.3575  0.4569  0.3523
  137CHL1   H1716349   5.350   2.351   4.611 -0.5178 -0.5529 -1.0965
  137CHL1   C1316350   5.231   2.489   4.506  0.6854  0.1202 -0.5125
  137CHL1   C1816351   5.112   2.587   4.523  0.3309  0.7321  0.4072
  137CHL1  H18A16352   5.090   2.641   4.429  2.6076  0.1117 -0.5621
  137CHL1  H18B16353   5.024   2.538   4.570 -0.8855  1.2527 -1.2334
  137CHL1  H18C16354   5.139   2.677   4.582 -1.1272  0.8002  1.0112
  137CHL1   C1216355   5.355   2.554   4.439  0.9423 -0.3012 -0.1824
  137CHL1  H12A16356   5.369   2.641   4.507 -3.1342 -0.2359  0.8744
  137CHL1  H12B16357   5.435   2.478   4.434  1.0540 -0.1170 -1.5639
  137CHL1   C1116358   5.333   2.615   4.298  0.1551  0.3147 -1.0218
  137CHL1  H11A16359   5.268   2.704   4.309  0.1930  0.1440  1.0253
  137CHL1  H11B16360   5.426   2.663   4.261 -1.9195  4.3704 -1.4963
  137CHL1    C916361   5.271   2.502   4.207  0.4636 -0.3814  0.6190
  137CHL1    H916362   5.351   2.426   4.196  0.1138 -0.5287 -1.0827
  137CHL1   C1016363   5.249   2.555   4.060  0.5461 -0.7061 -0.4875
  137CHL1   C1916364   5.173   2.688   4.070 -0.6298  0.4089  0.7479
  137CHL1  H19A16365   5.151   2.717   3.965  2.1030  1.0142  0.2586
  137CHL1  H19B16366   5.081   2.679   4.130 -0.3839 -2.5929  0.8352
  137CHL1  H19C16367   5.234   2.768   4.116  1.8640 -0.0660 -1.4677
  137CHL1    C116368   5.393   2.570   3.989  0.3978 -0.1462 -0.4916
  137CHL1   H1A16369   5.441   2.652   4.046 -0.2573 -0.2477  0.2356
  137CHL1   H1B16370   5.454   2.480   4.007  1.3200  0.4689 -0.4888
  137CHL1    C216371   5.374   2.607   3.844 -0.1877 -0.0341 -0.4046
  137CHL1   H2A16372   5.473   2.602   3.795 -0.2562 -2.3730 -0.3908
  137CHL1   H2B16373   5.337   2.712   3.837  1.1615  0.5416  0.6331
  137CHL1   C2016374   5.256   2.472   4.777 -0.6038 -0.2433 -0.2069
  137CHL1   H2016375   5.164   2.534   4.780 -2.3412 -2.6147  3.3016
  137CHL1   C2116376   5.389   2.542   4.800  0.1609 -0.4101 -0.4634
  137CHL1  H21A16377   5.442   2.596   4.719  1.7647  1.4610  1.7085
  137CHL1  H21B16378   5.462   2.468   4.840  1.0114  1.3604  1.4733
  137CHL1  H21C16379   5.372   2.607   4.889  0.3200 -1.7521  0.5842
  137CHL1   C2216380   5.216   2.373   4.901 -0.5237 -0.3204 -0.1309
  137CHL1  H22A16381   5.111   2.338   4.899 -0.7557  0.3239  0.3288
  137CHL1  H22B16382   5.267   2.278   4.876  1.7673  0.3646  1.6032
  137CHL1   C2316383   5.251   2.434   5.035  0.6985 -0.6270  0.0410
  137CHL1  H23A16384   5.360   2.453   5.043  0.2989  1.3268  1.6710
  137CHL1  H23B16385   5.195   2.528   5.054 -0.2613 -0.4963 -2.9735
  137CHL1   C2416386   5.208   2.346   5.152  0.4302  0.2942 -0.2691
  137CHL1  H24A16387   5.100   2.323   5.134  0.4424 -0.1589  0.2008
  137CHL1  H24B16388   5.270   2.254   5.151  0.1434  0.0743  0.8199
  137CHL1   C2516389   5.213   2.402   5.296  0.0373  0.5256  0.2149
  137CHL1   H2516390   5.145   2.490   5.300  1.1556  1.5088 -1.1659
  137CHL1   C2616391   5.159   2.301   5.398  0.6756  0.2648 -0.9096
  137CHL1  H26A16392   5.057   2.273   5.365  0.1774  1.9342 -0.8488
  137CHL1  H26B16393   5.224   2.211   5.404 -0.5866 -0.6195 -0.0782
  137CHL1  H26C16394   5.163   2.350   5.497  1.6316 -1.8960  0.2106
  137CHL1   C2716395   5.358   2.450   5.328  1.3295 -0.1002 -0.0334
  137CHL1  H27A16396   5.369   2.476   5.436 -0.2617 -2.8368  0.9046
  137CHL1  H27B16397   5.426   2.367   5.299  0.4909 -1.0486  0.6293
  137CHL1  H27C16398   5.379   2.545   5.275 -0.0692  1.1591  1.5583
  138CHL1    C316399   5.427   2.164   3.873 -0.4010  0.4471 -0.2883
  138CHL1    H316400   5.377   2.254   3.914  1.5094  1.0857  0.7879
  138CHL1    O316401   5.422   2.172   3.735  0.6015 -0.7434 -0.2595
  138CHL1   H3'16402   5.337   2.142   3.703  1.5177 -1.8205 -1.7864
  138CHL1    C416403   5.577   2.165   3.920  1.0969  0.6269 -0.1204
  138CHL1   H4A16404   5.629   2.079   3.874 -0.3691 -0.5280  0.2971
  138CHL1   H4B16405   5.621   2.260   3.883  0.6801  0.5068 -0.9442
  138CHL1    C516406   5.581   2.150   4.070  0.2594 -0.2375  0.7703
  138CHL1    C616407   5.638   2.249   4.138 -0.0162 -0.5927 -0.4563
  138CHL1    H616408   5.693   2.333   4.093  1.5769 -0.3770  1.7603
  138CHL1    C716409   5.651   2.268   4.287  0.0225 -0.0338  0.7197
  138CHL1   H7A16410   5.757   2.298   4.306  0.9789 -0.4876 -3.1260
  138CHL1   H7B16411   5.581   2.349   4.319 -0.4324 -0.7750  1.6520
  138CHL1    C816412   5.613   2.132   4.351 -0.3135 -0.0573  0.1907
  138CHL1    H816413   5.698   2.062   4.339 -1.2806 -1.2838  0.1703
  138CHL1   C1416414   5.573   2.154   4.493 -0.0799 -0.8559  0.0150
  138CHL1   H1416415   5.476   2.207   4.498  0.1363 -0.5703  2.2648
  138CHL1   C1516416   5.670   2.231   4.582 -0.0561  0.0562  0.7835
  138CHL1  H15A16417   5.769   2.192   4.550 -0.7996  0.7675 -2.7895
  138CHL1  H15B16418   5.673   2.342   4.571  1.2908 -0.0697 -0.4708
  138CHL1   C1616419   5.642   2.191   4.721 -0.3977  0.1235 -0.2847
  138CHL1  H16A16420   5.728   2.137   4.766  0.8591  1.8625 -0.4689
  138CHL1  H16B16421   5.607   2.279   4.779  0.4794  1.2573 -1.4218
  138CHL1   C1716422   5.524   2.086   4.719 -0.2534  0.3243  0.0728
  138CHL1   H1716423   5.431   2.140   4.745  0.3549  0.2777  2.6412
  138CHL1   C1316424   5.530   2.029   4.573  0.2225  0.6746  0.2780
  138CHL1   C1816425   5.642   1.921   4.571 -0.9300 -0.4278  0.4121
  138CHL1  H18A16426   5.668   1.879   4.472 -0.2933 -0.2830  0.5102
  138CHL1  H18B16427   5.736   1.972   4.601 -1.4665  0.5443  0.5044
  138CHL1  H18C16428   5.623   1.837   4.642  2.9716 -1.0417  0.9693
  138CHL1   C1216429   5.400   1.981   4.511  0.0789 -1.1455  0.4268
  138CHL1  H12A16430   5.364   1.886   4.556  2.0308 -1.2663  1.8688
  138CHL1  H12B16431   5.323   2.061   4.507  0.7818 -0.4998 -0.4218
  138CHL1   C1116432   5.432   1.942   4.366  0.7379 -0.6685  0.0069
  138CHL1  H11A16433   5.496   1.851   4.358 -0.9064 -1.7287 -2.1388
  138CHL1  H11B16434   5.336   1.915   4.318 -0.0953  0.7022  0.8488
  138CHL1    C916435   5.495   2.057   4.286 -0.1335 -0.0788 -0.2426
  138CHL1    H916436   5.416   2.134   4.301  1.9747  1.7766  2.2501
  138CHL1   C1016437   5.501   2.031   4.132 -0.1143  0.2391 -0.1021
  138CHL1   C1916438   5.569   1.896   4.111  0.4661 -0.2980  0.1023
  138CHL1  H19A16439   5.509   1.810   4.146  0.3041  0.3807  1.5666
  138CHL1  H19B16440   5.592   1.887   4.002  0.7373 -0.3685  0.1642
  138CHL1  H19C16441   5.664   1.896   4.168  0.5798 -0.5564 -0.0828
  138CHL1    C116442   5.356   2.019   4.072  0.7215  0.4844 -0.7952
  138CHL1   H1A16443   5.312   1.921   4.098 -1.4323  1.8956  1.2854
  138CHL1   H1B16444   5.297   2.104   4.113  1.5110  1.4296 -1.5453
  138CHL1    C216445   5.349   2.038   3.921 -1.3464  0.8312 -0.3032
  138CHL1   H2A16446   5.241   2.036   3.893 -1.5955  0.1006  0.6794
  138CHL1   H2B16447   5.396   1.947   3.879  2.2425  3.2171 -1.9858
  138CHL1   C2016448   5.526   1.980   4.834  0.8050 -0.3477 -0.1471
  138CHL1   H2016449   5.612   1.910   4.831  1.1123 -0.3689  3.6632
  138CHL1   C2116450   5.402   1.887   4.829 -0.2870 -0.0720 -0.3191
  138CHL1  H21A16451   5.412   1.813   4.746 -0.5905  0.6777 -1.0356
  138CHL1  H21B16452   5.308   1.943   4.815 -0.8687 -1.3271 -1.7336
  138CHL1  H21C16453   5.389   1.827   4.922  0.5729 -1.1632 -0.8698
  138CHL1   C2216454   5.536   2.049   4.980  0.0603 -0.0883  0.2683
  138CHL1  H22A16455   5.620   2.122   4.976 -0.3526  0.4807  1.5400
  138CHL1  H22B16456   5.443   2.110   4.988  1.6809  2.4895  0.8043
  138CHL1   C2316457   5.557   1.956   5.097  0.1927 -0.3808 -0.1949
  138CHL1  H23A16458   5.481   1.876   5.100 -2.0690  1.6802  0.4275
  138CHL1  H23B16459   5.662   1.919   5.099  0.3926  0.1656  1.7432
  138CHL1   C2416460   5.537   2.047   5.222 -0.1119  0.0836 -0.4663
  138CHL1  H24A16461   5.616   2.124   5.212  0.3633 -0.5722 -2.1700
  138CHL1  H24B16462   5.440   2.100   5.224  1.2702  2.8383  2.3336
  138CHL1   C2516463   5.536   1.968   5.357 -0.0447 -0.8122  0.9815
  138CHL1   H2516464   5.624   1.901   5.361  1.1328  0.6664  0.4236
  138CHL1   C2616465   5.548   2.080   5.475  0.1710 -0.5508 -0.4219
  138CHL1  H26A16466   5.567   2.011   5.560  0.5717 -2.0717 -1.6884
  138CHL1  H26B16467   5.633   2.149   5.456 -2.0089  2.0181 -1.4670
  138CHL1  H26C16468   5.464   2.151   5.484  1.0394  0.5238 -0.5497
  138CHL1   C2716469   5.419   1.882   5.390  0.1282  0.3729  0.5263
  138CHL1  H27A16470   5.330   1.942   5.421 -0.4083  0.2541 -0.7257
  138CHL1  H27B16471   5.374   1.828   5.304 -1.5566  2.0839  0.2524
  138CHL1  H27C16472   5.442   1.804   5.466 -1.2874 -0.5357  0.0549
  139CHL1    C316473   0.937   0.303   4.887  0.0508 -0.8167 -0.8886
  139CHL1    H316474   0.893   0.202   4.874 -0.8028 -0.7899  1.3371
  139CHL1    O316475   1.003   0.331   4.762 -0.0368 -0.6128 -0.2555
  139CHL1   H3'16476   0.953   0.410   4.737 -1.0362 -1.3316 -0.5751
  139CHL1    C416477   0.829   0.416   4.912  0.5422  0.2496 -0.2606
  139CHL1   H4A16478   0.875   0.517   4.903  0.8227  0.0987 -0.5173
  139CHL1   H4B16479   0.754   0.417   4.830  0.4112  4.5953 -0.3513
  139CHL1    C516480   0.759   0.403   5.046 -0.2020  0.2188  0.3842
  139CHL1    C616481   0.626   0.383   5.067 -0.0883 -0.1032  0.3646
  139CHL1    H616482   0.565   0.365   4.977 -0.3239  1.7600  0.1144
  139CHL1    C716483   0.556   0.391   5.195  0.0793 -0.7316  0.5126
  139CHL1   H7A16484   0.471   0.461   5.182 -0.2147 -1.2686 -0.5701
  139CHL1   H7B16485   0.510   0.293   5.220 -1.1225 -0.5414 -0.7855
  139CHL1    C816486   0.645   0.426   5.317  0.3698 -0.5436  0.5574
  139CHL1    H816487   0.638   0.536   5.307 -1.3654 -0.6654 -0.0084
  139CHL1   C1416488   0.584   0.379   5.443 -0.3274  0.3619 -0.1258
  139CHL1   H1416489   0.581   0.268   5.430  0.6372  0.5195 -2.1567
  139CHL1   C1516490   0.439   0.414   5.470 -0.3867 -0.8540  0.0781
  139CHL1  H15A16491   0.409   0.516   5.437 -2.1113 -1.3786 -0.0928
  139CHL1  H15B16492   0.388   0.333   5.413  0.7893 -1.3695 -0.2657
  139CHL1   C1616493   0.424   0.392   5.621 -0.1646 -0.3575  0.2756
  139CHL1  H16A16494   0.392   0.489   5.665  1.8719  0.1795  0.6883
  139CHL1  H16B16495   0.357   0.312   5.658 -0.9003  1.0175  2.0402
  139CHL1   C1716496   0.568   0.348   5.669  0.1905 -0.7602 -0.3801
  139CHL1   H1716497   0.557   0.240   5.648  1.0283 -0.8990 -0.1375
  139CHL1   C1316498   0.664   0.409   5.567  0.9399  0.1394  0.2300
  139CHL1   C1816499   0.683   0.563   5.600  0.1026 -0.6494 -0.1803
  139CHL1  H18A16500   0.707   0.626   5.512 -0.8601  1.7723  1.1820
  139CHL1  H18B16501   0.590   0.608   5.640  0.8012  1.6166 -0.9958
  139CHL1  H18C16502   0.763   0.576   5.676  0.7013 -0.0537 -0.9027
  139CHL1   C1216503   0.796   0.342   5.545 -0.3292 -0.2337  0.2902
  139CHL1  H12A16504   0.865   0.363   5.629  0.6930 -3.2070  0.3165
  139CHL1  H12B16505   0.799   0.231   5.538  2.6951 -0.1727 -0.9718
  139CHL1   C1116506   0.866   0.389   5.425 -0.1602 -0.5985 -0.1707
  139CHL1  H11A16507   0.892   0.496   5.441  2.0843 -1.2441  0.9673
  139CHL1  H11B16508   0.967   0.342   5.415 -0.0445 -0.7770  1.5547
  139CHL1    C916509   0.787   0.378   5.296 -0.3189 -0.1677  0.3815
  139CHL1    H916510   0.762   0.271   5.279 -0.1518 -0.3541  1.2137
  139CHL1   C1016511   0.859   0.417   5.162  0.2133  0.3056  0.7068
  139CHL1   C1916512   0.904   0.560   5.182  0.3000 -0.3593  0.7861
  139CHL1  H19A16513   0.988   0.564   5.254  0.7112  1.4578  0.2541
  139CHL1  H19B16514   0.932   0.605   5.084 -2.0991  0.3044  0.3396
  139CHL1  H19C16515   0.829   0.627   5.229 -0.8289 -1.9618  1.3345
  139CHL1    C116516   0.976   0.313   5.137  0.2182 -0.5198 -0.4384
  139CHL1   H1A16517   1.042   0.347   5.219 -2.6922 -1.8415  2.6757
  139CHL1   H1B16518   0.935   0.214   5.166 -2.2105  0.6088  0.2059
  139CHL1    C216519   1.043   0.305   4.995  0.5967 -0.4704  0.5661
  139CHL1   H2A16520   1.104   0.212   4.995  1.0710 -0.1662  0.5090
  139CHL1   H2B16521   1.110   0.390   4.967 -0.8077  0.4193 -0.1975
  139CHL1   C2016522   0.592   0.372   5.821  0.1801 -0.8952 -0.0843
  139CHL1   H2016523   0.667   0.450   5.845 -1.7186  0.7738  0.7721
  139CHL1   C2116524   0.641   0.239   5.879 -0.2111  0.5099 -0.0294
  139CHL1  H21A16525   0.733   0.222   5.819 -0.3100  1.1107 -0.3628
  139CHL1  H21B16526   0.573   0.152   5.867  1.2007 -0.5367 -0.6796
  139CHL1  H21C16527   0.670   0.248   5.986  0.6698  1.2801 -0.3241
  139CHL1   C2216528   0.468   0.412   5.907 -0.4109 -0.1795  0.3559
  139CHL1  H22A16529   0.440   0.515   5.876  1.1942  0.4704  0.9095
  139CHL1  H22B16530   0.390   0.334   5.893  0.9915 -1.6686  0.5198
  139CHL1   C2316531   0.504   0.439   6.054 -0.0289 -0.4271 -0.1822
  139CHL1  H23A16532   0.500   0.346   6.115 -0.6714 -0.4704 -0.2877
  139CHL1  H23B16533   0.612   0.467   6.054  0.2486 -1.4495 -1.1503
  139CHL1   C2416534   0.429   0.553   6.120  0.2464 -0.6152  0.1355
  139CHL1  H24A16535   0.477   0.584   6.215 -1.3791  0.6153  0.6114
  139CHL1  H24B16536   0.432   0.641   6.051  1.4502  0.6002  1.6596
  139CHL1   C2516537   0.283   0.519   6.148 -0.1643  0.5819 -0.2985
  139CHL1   H2516538   0.234   0.482   6.056 -0.9812 -0.7265  0.6179
  139CHL1   C2616539   0.262   0.421   6.262  0.3462  0.2455 -0.1570
  139CHL1  H26A16540   0.310   0.322   6.249 -0.9344 -0.4563  0.3367
  139CHL1  H26B16541   0.311   0.466   6.351 -0.1282 -1.0804  0.7939
  139CHL1  H26C16542   0.154   0.409   6.284  0.0408 -0.0405 -1.6654
  139CHL1   C2716543   0.207   0.651   6.185  0.9734 -0.0025 -0.1020
  139CHL1  H27A16544   0.111   0.619   6.231  0.9110 -0.4705 -0.5503
  139CHL1  H27B16545   0.268   0.713   6.253 -0.7268  1.1672  0.4408
  139CHL1  H27C16546   0.191   0.697   6.085 -1.8884 -1.2541 -0.3299
  140CHL1    C316547   6.518   1.257   4.266 -0.2512 -0.4525  0.3006
  140CHL1    H316548   6.536   1.164   4.325  0.4312 -0.2736  0.3878
  140CHL1    O316549   6.524   1.227   4.130 -0.3820  0.6689 -0.3223
  140CHL1   H3'16550   6.439   1.191   4.102 -0.0535  0.6448 -1.3298
  140CHL1    C416551   6.384   1.325   4.297  0.3209  0.3041  0.1441
  140CHL1   H4A16552   6.375   1.415   4.233 -0.7445  0.3933  0.4038
  140CHL1   H4B16553   6.306   1.253   4.267 -0.2341  0.3600  1.4038
  140CHL1    C516554   6.375   1.363   4.440  0.0126 -1.0692  0.3386
  140CHL1    C616555   6.279   1.312   4.517 -0.1414 -0.5548  0.1298
  140CHL1    H616556   6.200   1.246   4.477 -0.1161 -1.4039  1.4094
  140CHL1    C716557   6.259   1.352   4.656 -0.1055 -1.0217 -0.8510
  140CHL1   H7A16558   6.154   1.373   4.684  0.4353  1.3840 -0.3719
  140CHL1   H7B16559   6.292   1.270   4.724 -0.6380 -0.0526  0.6188
  140CHL1    C816560   6.342   1.476   4.708 -0.5093  0.3813  0.1720
  140CHL1    H816561   6.285   1.566   4.678  1.3825  1.3757 -0.5835
  140CHL1   C1416562   6.358   1.466   4.861 -0.7339 -0.0754  0.6394
  140CHL1   H1416563   6.406   1.367   4.875 -0.4914 -0.0650 -0.0823
  140CHL1   C1516564   6.233   1.449   4.942  0.3698 -0.1769 -1.0830
  140CHL1  H15A16565   6.154   1.520   4.911 -0.7503 -1.6525 -1.6937
  140CHL1  H15B16566   6.184   1.350   4.934  2.5897 -1.3614 -0.8864
  140CHL1   C1616567   6.274   1.468   5.088 -0.1255 -0.8224 -0.2914
  140CHL1  H16A16568   6.211   1.531   5.155 -0.2189 -1.8456  0.6209
  140CHL1  H16B16569   6.275   1.372   5.145  0.7223  0.4234  1.9017
  140CHL1   C1716570   6.416   1.538   5.082  0.5159  0.3304  0.1553
  140CHL1   H1716571   6.481   1.448   5.088  0.5378  0.1591 -2.0033
  140CHL1   C1316572   6.436   1.579   4.928 -0.9969 -0.0977  0.7943
  140CHL1   C1816573   6.365   1.713   4.902 -0.5963 -0.0610  0.3134
  140CHL1  H18A16574   6.262   1.713   4.943 -0.3165  1.3432  1.0905
  140CHL1  H18B16575   6.423   1.793   4.953  1.4952 -0.2163 -1.6376
  140CHL1  H18C16576   6.363   1.733   4.793  2.0030 -0.4882  0.1338
  140CHL1   C1216577   6.578   1.575   4.858 -0.0671 -0.2785 -0.0146
  140CHL1  H12A16578   6.641   1.653   4.905 -0.4725 -0.7333  1.3293
  140CHL1  H12B16579   6.629   1.480   4.882 -1.3961 -1.1678 -0.5548
  140CHL1   C1116580   6.574   1.584   4.704 -0.2309  0.2031  0.5484
  140CHL1  H11A16581   6.544   1.689   4.682  1.8903  1.6131  3.7283
  140CHL1  H11B16582   6.672   1.564   4.657 -1.3573  0.7801 -2.3270
  140CHL1    C916583   6.481   1.473   4.643  0.4900  0.4233  0.1581
  140CHL1    H916584   6.528   1.386   4.692 -0.9014 -0.3459  0.1531
  140CHL1   C1016585   6.489   1.456   4.488  0.1818  0.0380  0.6179
  140CHL1   C1916586   6.462   1.589   4.414  0.2309  0.1272  0.0287
  140CHL1  H19A16587   6.469   1.569   4.305 -0.7712 -0.7426  0.1027
  140CHL1  H19B16588   6.361   1.629   4.433 -0.2287 -1.2109  0.5224
  140CHL1  H19C16589   6.535   1.666   4.446 -2.5054  2.7345  0.3227
  140CHL1    C116590   6.621   1.390   4.453 -0.6606  0.1741 -0.7656
  140CHL1   H1A16591   6.700   1.465   4.478  1.9607 -3.2764  2.5190
  140CHL1   H1B16592   6.644   1.301   4.514  0.0252  0.5237 -0.5012
  140CHL1    C216593   6.632   1.352   4.300  0.3153 -0.0554  0.3171
  140CHL1   H2A16594   6.730   1.312   4.267  0.2557  0.7879 -0.9588
  140CHL1   H2B16595   6.614   1.448   4.247 -0.8278 -0.9471 -1.0023
  140CHL1   C2016596   6.455   1.631   5.192 -0.5419 -0.4433 -0.3850
  140CHL1   H2016597   6.385   1.717   5.185 -1.9343 -1.5387 -0.3274
  140CHL1   C2116598   6.591   1.693   5.174 -0.3474  0.1613 -0.0868
  140CHL1  H21A16599   6.620   1.757   5.260  1.5240 -0.5923 -0.1019
  140CHL1  H21B16600   6.592   1.763   5.088 -1.2446 -0.9800 -1.0552
  140CHL1  H21C16601   6.674   1.619   5.169 -0.6199 -0.3426  1.8689
  140CHL1   C2216602   6.445   1.580   5.340  0.1864  0.8464  0.2152
  140CHL1  H22A16603   6.503   1.652   5.402  1.0867 -0.0622  0.4682
  140CHL1  H22B16604   6.340   1.564   5.371  0.5006 -0.1397  0.8203
  140CHL1   C2316605   6.519   1.445   5.365 -0.0678  0.3522 -0.4496
  140CHL1  H23A16606   6.481   1.373   5.290 -2.7605 -1.4146  2.3603
  140CHL1  H23B16607   6.627   1.466   5.353  0.3001 -0.2933  1.3652
  140CHL1   C2416608   6.496   1.385   5.509 -0.0328  0.0529  0.4501
  140CHL1  H24A16609   6.388   1.361   5.514  0.0372 -1.7319 -3.4255
  140CHL1  H24B16610   6.546   1.286   5.522 -0.2125 -0.0603  0.2958
  140CHL1   C2516611   6.533   1.470   5.627  0.2246  0.4878  0.3158
  140CHL1   H2516612   6.462   1.555   5.624 -0.5357  0.2189  4.4790
  140CHL1   C2616613   6.675   1.512   5.613  0.1317  0.3373 -0.0270
  140CHL1  H26A16614   6.703   1.562   5.518  0.4447  1.1412  0.4848
  140CHL1  H26B16615   6.691   1.587   5.694 -0.2415  1.6108 -1.0962
  140CHL1  H26C16616   6.750   1.430   5.621  1.9230  1.9775  0.7501
  140CHL1   C2716617   6.505   1.400   5.761 -0.1445 -0.1439  0.8179
  140CHL1  H27A16618   6.546   1.297   5.748  1.3792  0.6568 -1.3179
  140CHL1  H27B16619   6.571   1.443   5.840 -0.7809  0.2026  1.1635
  140CHL1  H27C16620   6.399   1.407   5.792 -0.8431  0.1978 -1.4933
  141DOPC     N16621   4.133   4.947   9.056 -0.1348 -0.1217  0.4080
  141DOPC   C1216622   4.140   5.061   8.963  0.0716 -0.5270 -0.7447
  141DOPC  H12A16623   4.203   5.132   9.015 -0.5424 -1.5863  1.5299
  141DOPC  H12B16624   4.039   5.096   8.950  0.1940 -0.7442 -2.6259
  141DOPC   C1316625   4.262   4.881   9.077 -0.9393 -0.5985  0.9118
  141DOPC  H13A16626   4.249   4.792   9.136 -0.2056 -0.0985  1.8532
  141DOPC  H13B16627   4.305   4.844   8.986 -0.2948  1.1335  0.4667
  141DOPC  H13C16628   4.327   4.940   9.140 -0.7761 -0.2662  0.4395
  141DOPC   C1416629   4.045   4.837   8.993 -0.3551 -0.2705  0.1083
  141DOPC  H14A16630   3.952   4.881   8.960 -0.0012  0.8410  0.5205
  141DOPC  H14B16631   4.093   4.795   8.906 -0.9181  1.9807 -1.3696
  141DOPC  H14C16632   4.030   4.755   9.061 -0.6266 -0.6325 -0.3906
  141DOPC   C1516633   4.079   4.978   9.194 -0.0990  0.3222 -0.0057
  141DOPC  H15A16634   4.086   4.892   9.258  1.6484 -0.3238 -0.9952
  141DOPC  H15B16635   3.973   4.999   9.191  0.0587  1.2870  0.7254
  141DOPC  H15C16636   4.139   5.063   9.223  0.0411  0.4672 -0.6818
  141DOPC   C1116637   4.217   5.038   8.829 -0.2881  0.3642 -0.6871
  141DOPC  H11A16638   4.173   4.950   8.776 -0.8958 -0.2314  0.7414
  141DOPC  H11B16639   4.211   5.128   8.765  0.3300  2.1561  1.6296
  141DOPC     P16640   4.458   5.137   8.896 -0.2597 -0.1286  0.2806
  141DOPC   O1316641   4.601   5.096   8.884  0.1649  0.2190  0.5914
  141DOPC   O1416642   4.431   5.184   9.032  0.5877  0.5672 -0.3605
  141DOPC   O1216643   4.362   5.015   8.847  0.0154 -0.1713 -0.0716
  141DOPC   O1116644   4.430   5.254   8.789  1.0263 -0.0848 -0.2858
  141DOPC    C116645   4.479   5.247   8.656  0.1761  0.0699 -0.7294
  141DOPC    HA16646   4.393   5.230   8.587 -0.3908 -2.3999  0.4509
  141DOPC    HB16647   4.558   5.171   8.636  0.6016  0.1256  0.6388
  141DOPC    C216648   4.520   5.387   8.606  0.3258 -0.1402 -0.6651
  141DOPC    HS16649   4.555   5.436   8.700 -1.7594  2.2593 -1.0389
  141DOPC   O2116650   4.403   5.452   8.544  0.2050  0.2477  0.3540
  141DOPC   C2116651   4.402   5.578   8.557 -0.4763 -0.3379 -0.3727
  141DOPC   O2216652   4.474   5.653   8.624 -0.0323  0.1677  0.5332
  141DOPC   C2216653   4.332   5.626   8.433  1.0126  0.6698 -0.0855
  141DOPC   H2R16654   4.222   5.620   8.449  1.2039  1.7048  2.1687
  141DOPC   H2S16655   4.362   5.557   8.352  0.3423 -0.4677  0.6053
  141DOPC    C316656   4.637   5.374   8.512 -0.9392  0.1323  0.2052
  141DOPC    HX16657   4.706   5.301   8.560  0.5600  1.4052  0.1012
  141DOPC    HY16658   4.694   5.470   8.516  0.4788 -0.6295 -0.5087
  141DOPC   O3116659   4.599   5.328   8.379 -0.1936 -0.6163 -0.1549
  141DOPC   C3116660   4.596   5.423   8.283 -0.5975 -0.1224  0.0277
  141DOPC   O3216661   4.631   5.540   8.294  0.2140  0.5104  0.2782
  141DOPC   C3216662   4.529   5.362   8.168 -0.0454  0.4690  0.8241
  141DOPC   H2X16663   4.528   5.251   8.174 -0.8020  0.2184 -2.3980
  141DOPC   H2Y16664   4.420   5.382   8.178  0.0454  1.1579  0.5148
  141DOPC   C2316665   4.360   5.769   8.382 -0.4124  0.7151  0.5004
  141DOPC   H3R16666   4.468   5.794   8.379 -0.5097  1.5123  2.2758
  141DOPC   H3S16667   4.305   5.836   8.451 -0.4525  1.0249  0.1729
  141DOPC   C2416668   4.308   5.808   8.244  0.2832  0.1239  0.7940
  141DOPC   H4R16669   4.336   5.915   8.229 -0.3773  0.3203  0.9548
  141DOPC   H4S16670   4.198   5.801   8.235  0.3604 -1.1323  0.7545
  141DOPC   C2516671   4.361   5.727   8.134 -0.8642  0.0415  0.6465
  141DOPC   H5R16672   4.316   5.627   8.146 -2.4465  0.4985 -1.0693
  141DOPC   H5S16673   4.472   5.713   8.136 -0.9462 -0.7565  0.0872
  141DOPC   C2616674   4.321   5.766   7.986  0.2032 -0.3058  0.3913
  141DOPC   H6R16675   4.212   5.785   7.991  0.2693  0.0033  0.7395
  141DOPC   H6S16676   4.329   5.672   7.928  0.1549 -0.3493  0.4549
  141DOPC   C2716677   4.407   5.877   7.920  1.1528 -0.1869  0.2565
  141DOPC   H7R16678   4.514   5.851   7.931  1.7545  2.1829  0.6657
  141DOPC   H7S16679   4.392   5.966   7.985  0.0952 -0.3316  0.2218
  141DOPC   C2816680   4.367   5.913   7.776 -0.2751  0.6906  0.2760
  141DOPC   H8R16681   4.416   6.010   7.752  1.6433 -0.3395 -0.1950
  141DOPC   H8S16682   4.260   5.941   7.768 -0.5452 -0.3468  0.1523
  141DOPC   C2916683   4.406   5.816   7.671  1.0239  0.1133  0.5613
  141DOPC   H9R16684   4.463   5.728   7.704  1.6498 -0.0581 -0.9049
  141DOPC  C21016685   4.369   5.799   7.540 -0.4168 -0.8439 -0.2189
  141DOPC  H10R16686   4.409   5.712   7.487 -1.1037 -2.8075  2.3319
  141DOPC  C21116687   4.307   5.914   7.463 -0.0717  0.0552 -0.7103
  141DOPC  H11R16688   4.347   6.005   7.513  0.1085 -0.1224 -0.5256
  141DOPC  H11S16689   4.198   5.906   7.479  0.0464 -0.0291  0.1007
  141DOPC  C21216690   4.335   5.921   7.309 -0.2737  0.8154  0.5198
  141DOPC  H12R16691   4.442   5.950   7.295  0.3909 -1.3474  0.7884
  141DOPC  H12S16692   4.270   6.000   7.265 -1.5818 -1.5242 -2.0536
  141DOPC  C21316693   4.303   5.783   7.239 -0.0086  0.6738  0.9746
  141DOPC  H13R16694   4.193   5.765   7.243 -0.1367  1.4571  1.0049
  141DOPC  H13S16695   4.364   5.696   7.273  2.4062  1.1430 -1.7382
  141DOPC  C21416696   4.338   5.795   7.089  0.5790  0.5763  0.3622
  141DOPC  H14R16697   4.441   5.836   7.079 -0.0151  1.6266 -2.2560
  141DOPC  H14S16698   4.273   5.877   7.051  2.3936  0.1081 -4.3841
  141DOPC  C21516699   4.317   5.663   7.013  0.0417  0.0946  1.0109
  141DOPC  H15R16700   4.212   5.630   7.027  0.2837 -1.5256 -0.7195
  141DOPC  H15S16701   4.381   5.582   7.053 -1.1541 -1.7428 -0.6669
  141DOPC  C21616702   4.353   5.677   6.863 -0.7779 -0.9784 -0.4461
  141DOPC  H16R16703   4.453   5.723   6.845 -1.0283 -0.8990 -1.7640
  141DOPC  H16S16704   4.271   5.743   6.827  0.8948 -0.2045 -3.1779
  141DOPC  C21716705   4.337   5.547   6.791  0.3369 -0.0070  0.5255
  141DOPC  H17R16706   4.249   5.490   6.830  0.3022 -0.6119 -0.4264
  141DOPC  H17S16707   4.425   5.484   6.813 -0.2165 -0.5678  1.2054
  141DOPC  C21816708   4.317   5.564   6.640  0.7564  0.3702  0.5056
  141DOPC  H18R16709   4.310   5.465   6.590 -0.1919  1.4692 -1.6936
  141DOPC  H18S16710   4.396   5.615   6.582 -0.8978  0.0042 -2.2367
  141DOPC  H18T16711   4.220   5.611   6.613  0.2900 -1.2226 -0.7485
  141DOPC   C3316712   4.581   5.420   8.035 -0.7616 -0.2666 -0.2277
  141DOPC   H3X16713   4.689   5.396   8.027 -1.3123 -2.4189 -2.1643
  141DOPC   H3Y16714   4.562   5.529   8.044  0.1471 -0.2665  3.3346
  141DOPC   C3416715   4.524   5.354   7.910 -0.2327  0.1646  0.3973
  141DOPC   H4X16716   4.413   5.350   7.911 -0.1830 -1.8150  0.8912
  141DOPC   H4Y16717   4.558   5.249   7.915  3.5153  1.2050 -0.1649
  141DOPC   C3516718   4.560   5.404   7.768 -0.0943  0.2883  0.5423
  141DOPC   H5X16719   4.670   5.416   7.769  0.2095 -1.9681 -0.1247
  141DOPC   H5Y16720   4.518   5.505   7.752  1.3681  0.9682  0.8522
  141DOPC   C3616721   4.516   5.312   7.646  0.2212 -0.3096 -0.2162
  141DOPC   H6X16722   4.556   5.213   7.678 -1.0083 -0.8674 -0.3672
  141DOPC   H6Y16723   4.406   5.299   7.647  0.2700 -0.8774 -1.1062
  141DOPC   C3716724   4.563   5.366   7.510  0.2560 -0.6888 -0.6314
  141DOPC   H7X16725   4.498   5.451   7.477 -1.2171 -2.4728 -2.6574
  141DOPC   H7Y16726   4.671   5.386   7.519  0.3243 -1.2429 -0.1736
  141DOPC   C3816727   4.563   5.256   7.401 -0.8222 -0.4732 -0.4572
  141DOPC   H8X16728   4.458   5.236   7.372 -0.4605 -0.3360 -1.9600
  141DOPC   H8Y16729   4.600   5.161   7.447  2.1628  1.2414  1.0049
  141DOPC   C3916730   4.630   5.282   7.270  1.3185 -0.3241 -0.1626
  141DOPC   H9X16731   4.733   5.318   7.282  2.0063 -2.0486 -0.6684
  141DOPC  C31016732   4.577   5.284   7.141  0.6001  0.1624 -0.1507
  141DOPC  H10X16733   4.649   5.301   7.060 -0.0478 -1.0302 -1.0102
  141DOPC  C31116734   4.434   5.262   7.096 -0.0803  0.0727 -1.0967
  141DOPC  H11X16735   4.385   5.356   7.062 -1.5946  0.4091  1.7166
  141DOPC  H11Y16736   4.371   5.230   7.182  0.8003 -0.7843 -0.7533
  141DOPC  C31216737   4.409   5.175   6.967 -0.5230  0.0333 -0.3562
  141DOPC  H12X16738   4.443   5.074   6.998 -0.1152  0.3124  0.1220
  141DOPC  H12Y16739   4.471   5.206   6.880  0.3547 -2.8052 -0.8538
  141DOPC  C31316740   4.263   5.179   6.919  0.3337  0.1724 -0.7237
  141DOPC  H13X16741   4.195   5.172   7.007 -2.7079 -0.3633 -2.9757
  141DOPC  H13Y16742   4.239   5.276   6.869  1.5363  1.1607  0.5331
  141DOPC  C31416743   4.241   5.072   6.820  0.5507  1.0779  0.1260
  141DOPC  H14X16744   4.314   5.076   6.736 -1.9994  1.1882 -2.2223
  141DOPC  H14Y16745   4.261   4.973   6.866 -1.4515  0.2247 -0.7274
  141DOPC  C31516746   4.095   5.081   6.753 -0.0224 -0.0043 -0.4046
  141DOPC  H15X16747   4.058   5.186   6.747 -4.0081 -1.1120  1.5628
  141DOPC  H15Y16748   4.023   5.037   6.826 -2.4012  2.0895 -1.3335
  141DOPC  C31616749   4.097   5.015   6.611 -0.3740 -0.4115  0.1511
  141DOPC  H16X16750   3.999   5.031   6.560 -0.0269  2.2475  0.1617
  141DOPC  H16Y16751   4.180   5.072   6.564  0.5068  0.1942  2.3346
  141DOPC  C31716752   4.130   4.864   6.596 -0.4082  0.6759 -0.1067
  141DOPC  H17X16753   4.218   4.827   6.654 -1.4682  1.9737  2.5181
  141DOPC  H17Y16754   4.038   4.806   6.619 -0.0589  0.5558  1.0886
  141DOPC  C31816755   4.156   4.833   6.449 -0.4289  0.6434 -0.0219
  141DOPC  H18X16756   4.171   4.724   6.462 -2.2652  0.5968  2.2272
  141DOPC  H18Y16757   4.062   4.864   6.397 -0.6853  0.4647  0.3289
  141DOPC  H18Z16758   4.243   4.892   6.413 -1.5186  1.8815 -0.7793
  142DOPC     N16759   5.675   4.625   8.936  0.5172 -0.3146 -0.5362
  142DOPC   C1216760   5.798   4.611   8.852 -0.4773  0.0938  0.3069
  142DOPC  H12A16761   5.784   4.659   8.756  1.5329  0.6075  0.2063
  142DOPC  H12B16762   5.819   4.506   8.840 -1.2258  0.1199 -1.7581
  142DOPC   C1316763   5.575   4.538   8.869 -0.2378 -0.8766  0.6374
  142DOPC  H13A16764   5.482   4.530   8.922 -0.1965 -0.8147  0.7193
  142DOPC  H13B16765   5.556   4.561   8.765  2.2216 -1.2874  0.0317
  142DOPC  H13C16766   5.619   4.440   8.854  0.3541 -0.5108 -0.0956
  142DOPC   C1416767   5.624   4.766   8.949  0.1119  0.1113  0.1580
  142DOPC  H14A16768   5.605   4.802   8.849  0.8515 -0.5735 -0.2361
  142DOPC  H14B16769   5.536   4.780   9.010  0.7264  2.2562  0.6327
  142DOPC  H14C16770   5.706   4.835   8.966  2.8681 -1.8190 -3.5850
  142DOPC   C1516771   5.698   4.583   9.078  0.0093 -0.2631  0.3096
  142DOPC  H15A16772   5.608   4.590   9.137 -1.3571 -2.3600 -1.4018
  142DOPC  H15B16773   5.774   4.639   9.131 -1.0290  0.5007  1.0344
  142DOPC  H15C16774   5.738   4.483   9.089 -1.3689 -0.9586 -0.6692
  142DOPC   C1116775   5.933   4.672   8.901  0.0262  0.3702  0.4134
  142DOPC  H11A16776   5.933   4.638   9.007 -0.8413 -1.5170 -0.1465
  142DOPC  H11B16777   6.016   4.629   8.841 -0.0243  1.4758 -0.4809
  142DOPC     P16778   5.961   4.901   8.782 -0.2567  0.1097 -0.1422
  142DOPC   O1316779   6.111   4.925   8.794  0.4509 -0.1335 -0.3884
  142DOPC   O1416780   5.876   5.020   8.780 -0.3558  0.1345 -0.1537
  142DOPC   O1216781   5.922   4.809   8.907 -0.1456  0.0105  0.6325
  142DOPC   O1116782   5.927   4.810   8.652  0.2599  0.0682 -0.1293
  142DOPC    C116783   6.030   4.792   8.559 -0.1196 -0.1963 -0.4599
  142DOPC    HA16784   6.025   4.687   8.520 -1.1247 -0.8511  1.3041
  142DOPC    HB16785   6.136   4.809   8.587 -0.4019 -1.4690  1.5768
  142DOPC    C216786   6.014   4.870   8.426  0.2541 -0.1579 -0.0660
  142DOPC    HS16787   6.037   4.977   8.444  0.4677 -0.1095 -0.6081
  142DOPC   O2116788   5.887   4.836   8.363  0.2612  0.1362 -0.1510
  142DOPC   C2116789   5.827   4.937   8.300 -0.2015 -0.3100  0.5891
  142DOPC   O2216790   5.865   5.057   8.305  0.4283  0.0518  0.2830
  142DOPC   C2216791   5.708   4.875   8.235 -0.2947  0.9036  0.2127
  142DOPC   H2R16792   5.623   4.943   8.256 -2.2998 -1.8839  1.8832
  142DOPC   H2S16793   5.681   4.774   8.273  2.2851  0.4443  0.9918
  142DOPC    C316794   6.130   4.834   8.322 -0.5082 -0.4914 -0.0651
  142DOPC    HX16795   6.141   4.723   8.324  2.6398 -0.2651  1.5846
  142DOPC    HY16796   6.223   4.886   8.353  0.5971 -1.1515 -2.1205
  142DOPC   O3116797   6.093   4.884   8.192  0.6733  0.4818 -0.6273
  142DOPC   C3116798   6.144   5.008   8.165  0.0695 -0.5162  0.0574
  142DOPC   O3216799   6.219   5.073   8.238 -0.0738  0.4214 -0.2648
  142DOPC   C3216800   6.089   5.040   8.027  0.1171 -0.0362  0.0479
  142DOPC   H2X16801   6.117   4.963   7.952  0.6776 -0.7695  1.0052
  142DOPC   H2Y16802   5.978   5.045   8.034  0.1253 -0.4182  0.4479
  142DOPC   C2316803   5.734   4.867   8.079  0.5228  0.0803 -0.0899
  142DOPC   H3R16804   5.793   4.951   8.036 -0.6022  2.0538  2.0305
  142DOPC   H3S16805   5.631   4.875   8.037  1.2559  0.5825 -1.8972
  142DOPC   C2416806   5.792   4.743   8.015  0.2785 -0.3436 -0.2591
  142DOPC   H4R16807   5.711   4.668   8.008  0.6714 -0.6249 -2.6694
  142DOPC   H4S16808   5.876   4.714   8.082 -0.5682  0.7142  1.3154
  142DOPC   C2516809   5.839   4.765   7.867  0.6160  0.0958  0.2336
  142DOPC   H5R16810   5.880   4.672   7.823 -0.6186  0.5056 -1.8916
  142DOPC   H5S16811   5.916   4.845   7.875 -0.9828  1.9251 -1.7656
  142DOPC   C2616812   5.725   4.805   7.775 -0.1122  0.3935 -0.6591
  142DOPC   H6R16813   5.660   4.879   7.827 -0.4027 -0.0997 -0.3070
  142DOPC   H6S16814   5.650   4.723   7.771 -0.7265  0.9864 -2.8336
  142DOPC   C2716815   5.763   4.849   7.638 -0.4463  0.4125  0.1352
  142DOPC   H7R16816   5.839   4.930   7.631  1.5639 -1.3601  0.4352
  142DOPC   H7S16817   5.677   4.890   7.582  0.3852  0.6929 -0.9854
  142DOPC   C2816818   5.809   4.735   7.544  0.2497 -0.3434  0.4474
  142DOPC   H8R16819   5.741   4.649   7.561 -0.8585  0.3719 -0.3186
  142DOPC   H8S16820   5.910   4.699   7.575  0.3209  0.6099  1.3865
  142DOPC   C2916821   5.813   4.770   7.395  0.2634 -0.2822 -0.1400
  142DOPC   H9R16822   5.869   4.863   7.377  1.8409 -0.9905  0.9304
  142DOPC  C21016823   5.769   4.697   7.290 -0.1321  0.4048 -0.1657
  142DOPC  H10R16824   5.782   4.726   7.185 -2.5349  2.9045  0.0959
  142DOPC  C21116825   5.718   4.555   7.303  1.1064  0.1737  0.7838
  142DOPC  H11R16826   5.616   4.561   7.261  1.5288  0.8469 -0.1854
  142DOPC  H11S16827   5.711   4.517   7.407  0.5977  2.5947  1.6945
  142DOPC  C21216828   5.777   4.456   7.199 -0.4431 -1.1020  0.6507
  142DOPC  H12R16829   5.725   4.359   7.211 -2.3095 -0.4519 -1.4307
  142DOPC  H12S16830   5.887   4.445   7.209 -0.3111 -0.0158  0.5742
  142DOPC  C21316831   5.746   4.502   7.054 -0.6090 -0.4351 -0.1700
  142DOPC  H13R16832   5.797   4.599   7.037  0.2331 -0.7913  0.2784
  142DOPC  H13S16833   5.635   4.510   7.048 -0.5334  2.1734  0.6797
  142DOPC  C21416834   5.807   4.408   6.944  0.2099  0.0702 -0.5150
  142DOPC  H14R16835   5.735   4.324   6.935 -1.0075  0.9608  0.4662
  142DOPC  H14S16836   5.907   4.379   6.983  0.7082 -0.6915 -2.2700
  142DOPC  C21516837   5.825   4.491   6.816  0.8278 -0.3886 -0.6485
  142DOPC  H15R16838   5.904   4.569   6.823  1.5232 -1.1273 -0.0622
  142DOPC  H15S16839   5.727   4.538   6.790  0.7453 -0.0196  0.2958
  142DOPC  C21616840   5.866   4.403   6.691 -0.6576  0.5898  0.2454
  142DOPC  H16R16841   5.804   4.311   6.700 -0.9561  0.5484 -1.7352
  142DOPC  H16S16842   5.973   4.372   6.694 -0.6329  0.5239 -0.9942
  142DOPC  C21716843   5.837   4.469   6.557  0.2735  0.4400 -0.7213
  142DOPC  H17R16844   5.920   4.539   6.532 -0.0402  1.1185  0.0972
  142DOPC  H17S16845   5.742   4.522   6.579  0.4375 -0.0173  1.2295
  142DOPC  C21816846   5.828   4.366   6.440  0.0085  0.2492  0.5474
  142DOPC  H18R16847   5.805   4.419   6.345 -0.8251 -0.5039  0.3130
  142DOPC  H18S16848   5.741   4.297   6.448 -1.2742  1.4509 -1.9519
  142DOPC  H18T16849   5.918   4.306   6.416 -0.6785 -0.1726 -1.1069
  142DOPC   C3316850   6.147   5.174   7.976  0.4198  1.0910 -0.3126
  142DOPC   H3X16851   6.256   5.192   7.992  0.2349  0.8227  1.3873
  142DOPC   H3Y16852   6.113   5.267   8.027 -0.3925  2.4099 -3.0665
  142DOPC   C3416853   6.105   5.198   7.829  0.3417 -0.3017 -0.2741
  142DOPC   H4X16854   6.123   5.306   7.807 -0.5593 -0.2655 -0.8588
  142DOPC   H4Y16855   5.999   5.167   7.817  0.1001 -0.0536  1.0902
  142DOPC   C3516856   6.175   5.109   7.721 -0.1524  0.4089 -0.5572
  142DOPC   H5X16857   6.156   5.002   7.746 -1.4330  0.6934 -0.2431
  142DOPC   H5Y16858   6.283   5.134   7.731  0.2635 -1.5143  0.1198
  142DOPC   C3616859   6.145   5.152   7.583 -0.0732  0.1393 -0.4286
  142DOPC   H6X16860   6.037   5.137   7.565 -0.6154  1.5994  1.3176
  142DOPC   H6Y16861   6.161   5.256   7.548 -0.2066 -0.6269 -2.9876
  142DOPC   C3716862   6.218   5.071   7.476 -0.0791 -0.1028 -0.7153
  142DOPC   H7X16863   6.328   5.076   7.490 -0.2637  0.4427  0.8133
  142DOPC   H7Y16864   6.192   4.963   7.482  0.8207 -0.2879  0.2277
  142DOPC   C3816865   6.197   5.132   7.337 -0.7662 -0.2508 -0.2147
  142DOPC   H8X16866   6.247   5.232   7.334  1.3260 -1.2406  0.0020
  142DOPC   H8Y16867   6.089   5.135   7.309  0.2378  0.2947 -4.7783
  142DOPC   C3916868   6.279   5.054   7.237  0.1613  0.5429  0.0630
  142DOPC   H9X16869   6.387   5.072   7.221  0.0092  0.9421 -0.5907
  142DOPC  C31016870   6.218   4.969   7.152  0.2618  0.4364 -0.2791
  142DOPC  H10X16871   6.273   4.923   7.068 -1.4949 -1.1041 -0.6708
  142DOPC  C31116872   6.074   4.927   7.141 -0.0183  0.1076 -0.0898
  142DOPC  H11X16873   6.026   4.956   7.237 -2.0036  0.2310 -1.0770
  142DOPC  H11Y16874   6.081   4.817   7.130 -0.1914  0.1620 -0.7658
  142DOPC  C31216875   6.007   4.981   7.016 -0.0535  0.0020 -0.5534
  142DOPC  H12X16876   6.064   4.957   6.924  0.4477  0.3209 -0.3295
  142DOPC  H12Y16877   5.996   5.091   7.028  3.2702  0.3983 -0.1709
  142DOPC  C31316878   5.867   4.929   7.003 -0.0718 -0.2006 -0.4501
  142DOPC  H13X16879   5.872   4.822   7.033 -0.6184  0.5500  2.7044
  142DOPC  H13Y16880   5.797   4.981   7.073 -0.9570  1.9745 -2.7803
  142DOPC  C31416881   5.812   4.937   6.862  0.4122  0.2836  0.2523
  142DOPC  H14X16882   5.807   5.040   6.821 -1.2743  0.0705 -0.1538
  142DOPC  H14Y16883   5.880   4.887   6.790 -1.7872 -1.1952 -0.9073
  142DOPC  C31516884   5.669   4.875   6.857 -0.7691  0.3219  0.1804
  142DOPC  H15X16885   5.602   4.920   6.933 -2.4335 -1.5282 -0.1078
  142DOPC  H15Y16886   5.683   4.772   6.896 -1.3777 -1.6978 -4.3634
  142DOPC  C31616887   5.614   4.871   6.715 -0.1756  0.0106 -0.2552
  142DOPC  H16X16888   5.693   4.874   6.637  0.8476 -3.6998  0.4315
  142DOPC  H16Y16889   5.566   4.774   6.693 -0.3037  0.2632 -1.1125
  142DOPC  C31716890   5.498   4.972   6.701  0.2122 -0.0575  0.0619
  142DOPC  H17X16891   5.442   4.969   6.797  0.2454  1.3086  0.1342
  142DOPC  H17Y16892   5.563   5.062   6.702  2.0209 -1.2961  0.3686
  142DOPC  C31816893   5.399   4.964   6.583  0.2641 -0.0872 -0.2486
  142DOPC  H18X16894   5.448   4.962   6.484 -0.1599  0.1595 -0.4692
  142DOPC  H18Y16895   5.335   4.873   6.587 -1.0394  0.4475 -4.6249
  142DOPC  H18Z16896   5.338   5.056   6.570  0.5755 -0.1237 -2.2146
  143DOPC     N16897   2.058   4.053   8.950  0.2081  0.4261  0.1643
  143DOPC   C1216898   1.998   4.188   8.940  0.3626 -0.1051  0.6512
  143DOPC  H12A16899   1.923   4.192   9.018  1.2824 -1.0942  1.6175
  143DOPC  H12B16900   1.954   4.199   8.842  3.6469  0.5168 -0.8869
  143DOPC   C1316901   1.944   3.947   8.954 -0.3258 -0.0739 -0.0296
  143DOPC  H13A16902   1.866   3.974   9.024  0.5978 -0.3732  1.1424
  143DOPC  H13B16903   1.905   3.937   8.853 -0.3297 -0.4933  0.0137
  143DOPC  H13C16904   1.992   3.854   8.979  1.3288  0.5924 -0.6129
  143DOPC   C1416905   2.140   4.042   9.076 -0.0645 -0.3297  0.1210
  143DOPC  H14A16906   2.202   3.954   9.083  0.2913  0.0120  1.9127
  143DOPC  H14B16907   2.209   4.126   9.075  1.1314 -1.2946  0.0419
  143DOPC  H14C16908   2.085   4.051   9.169  0.8455  0.9989  0.5701
  143DOPC   C1516909   2.153   4.029   8.827 -0.1542  0.2103 -0.1066
  143DOPC  H15A16910   2.117   4.086   8.743 -0.6855  0.4186  0.2569
  143DOPC  H15B16911   2.161   3.925   8.798 -2.3327  0.7328 -2.9883
  143DOPC  H15C16912   2.254   4.066   8.840  0.4746 -1.4197 -0.0938
  143DOPC   C1116913   2.094   4.313   8.949 -0.2696  0.1562  0.2446
  143DOPC  H11A16914   2.191   4.291   8.900 -0.2729 -0.8237  0.6612
  143DOPC  H11B16915   2.058   4.399   8.888  0.5903  0.7853  0.6120
  143DOPC     P16916   2.218   4.482   9.119 -0.5537  0.4273  0.1190
  143DOPC   O1316917   2.354   4.436   9.154 -0.7142  0.0139  0.3026
  143DOPC   O1416918   2.142   4.564   9.217  0.1300 -0.5273  0.2174
  143DOPC   O1216919   2.134   4.350   9.087  0.2128 -0.1332  0.4959
  143DOPC   O1116920   2.230   4.562   8.976  0.2783 -0.3691  0.0329
  143DOPC    C116921   2.222   4.704   8.980  0.2580  0.3800 -0.0964
  143DOPC    HA16922   2.320   4.744   9.012  0.3751  0.8095 -0.9562
  143DOPC    HB16923   2.138   4.741   9.043  0.6500  0.3996  0.4121
  143DOPC    C216924   2.187   4.751   8.833 -0.2530 -0.2760  0.2707
  143DOPC    HS16925   2.096   4.696   8.802 -0.6369  1.0181 -0.9806
  143DOPC   O2116926   2.302   4.711   8.753  0.0902 -0.2342 -0.2252
  143DOPC   C2116927   2.287   4.681   8.634  0.9046  0.1473  0.9541
  143DOPC   O2216928   2.179   4.655   8.581 -0.2535  0.1821  0.3793
  143DOPC   C2216929   2.416   4.680   8.559 -0.4872 -0.2845 -0.0488
  143DOPC   H2R16930   2.475   4.593   8.594 -1.3852 -1.0903 -0.4825
  143DOPC   H2S16931   2.470   4.775   8.577 -0.7699 -0.1017 -0.1634
  143DOPC    C316932   2.152   4.901   8.822  0.1153 -0.4658  0.0164
  143DOPC    HX16933   2.247   4.952   8.851  1.1055 -2.7043  0.9699
  143DOPC    HY16934   2.090   4.928   8.910  1.2614  1.5424  0.2773
  143DOPC   O3116935   2.108   4.953   8.694 -0.6143 -0.3855  0.3745
  143DOPC   C3116936   1.987   5.004   8.695  0.8823 -1.6990 -0.0123
  143DOPC   O3216937   1.907   5.000   8.786 -0.1644  0.0960 -0.0924
  143DOPC   C3216938   1.946   5.047   8.556 -0.7645  0.9083 -0.2022
  143DOPC   H2X16939   1.994   5.146   8.540 -0.1763  0.9784  1.8243
  143DOPC   H2Y16940   1.992   4.971   8.489 -0.2346  1.6131 -0.6548
  143DOPC   C2316941   2.395   4.673   8.405  0.4445 -0.0252  0.6001
  143DOPC   H3R16942   2.352   4.578   8.366 -0.6892  1.2037 -1.3361
  143DOPC   H3S16943   2.493   4.683   8.354  0.3216 -1.4320  0.0669
  143DOPC   C2416944   2.317   4.793   8.348  0.0843  0.1431 -0.2961
  143DOPC   H4R16945   2.375   4.884   8.375 -1.0231  0.6363  0.4904
  143DOPC   H4S16946   2.214   4.802   8.388 -1.2175 -3.3215 -2.3980
  143DOPC   C2516947   2.302   4.786   8.200  0.1675 -1.3456  0.0757
  143DOPC   H5R16948   2.246   4.696   8.167  1.3928 -2.0047 -0.2865
  143DOPC   H5S16949   2.402   4.773   8.153  1.6364  0.1155  2.5471
  143DOPC   C2616950   2.233   4.904   8.132  0.1080 -0.0820 -0.0979
  143DOPC   H6R16951   2.276   5.000   8.169 -0.9850 -0.3163  1.9218
  143DOPC   H6S16952   2.137   4.903   8.187 -0.0380  0.4099 -0.3378
  143DOPC   C2716953   2.215   4.894   7.976  0.4238 -0.2525  0.0660
  143DOPC   H7R16954   2.163   4.799   7.950  2.1021 -1.8278  2.0911
  143DOPC   H7S16955   2.315   4.896   7.929  0.0109  2.1176 -0.8459
  143DOPC   C2816956   2.124   5.001   7.916 -0.0972  0.4307 -0.2182
  143DOPC   H8R16957   2.164   5.104   7.930  1.2925  0.1523 -1.8559
  143DOPC   H8S16958   2.024   4.996   7.965  0.0269 -0.8698 -0.0688
  143DOPC   C2916959   2.110   4.984   7.769  0.4372 -0.2801 -0.3693
  143DOPC   H9R16960   2.028   4.919   7.734  0.3958  0.1606 -1.1153
  143DOPC  C21016961   2.171   5.060   7.672  0.3152  0.0908 -0.2007
  143DOPC  H10R16962   2.151   5.029   7.568  1.0000 -2.1142  0.2675
  143DOPC  C21116963   2.269   5.176   7.679 -0.0631  1.1923 -0.0929
  143DOPC  H11R16964   2.303   5.191   7.783  2.8441  0.2886 -0.8301
  143DOPC  H11S16965   2.228   5.272   7.641  0.0809  1.7248  1.0755
  143DOPC  C21216966   2.400   5.152   7.596 -0.6495  0.2596  0.7288
  143DOPC  H12R16967   2.454   5.075   7.655 -2.4758 -1.1550  0.6711
  143DOPC  H12S16968   2.449   5.251   7.587 -0.4260 -0.0128 -1.9243
  143DOPC  C21316969   2.393   5.106   7.452 -0.1758  0.3591  0.7547
  143DOPC  H13R16970   2.356   5.002   7.441 -0.1099  0.5157 -1.3189
  143DOPC  H13S16971   2.488   5.107   7.394 -2.0470 -0.6660 -2.5343
  143DOPC  C21416972   2.308   5.193   7.354  0.2353 -0.7460 -0.2592
  143DOPC  H14R16973   2.208   5.209   7.400  1.2733  0.5797  1.6998
  143DOPC  H14S16974   2.300   5.120   7.272  1.4104 -0.1442 -0.9494
  143DOPC  C21516975   2.384   5.310   7.305  0.5907  0.8496 -0.4440
  143DOPC  H15R16976   2.473   5.263   7.259  0.9701 -1.5681  2.4716
  143DOPC  H15S16977   2.401   5.370   7.397  1.2146 -0.6307  0.4385
  143DOPC  C21616978   2.319   5.389   7.198  0.0986  0.1913 -0.0580
  143DOPC  H16R16979   2.381   5.478   7.172 -0.5744  0.5423 -0.4940
  143DOPC  H16S16980   2.219   5.419   7.237  0.0120 -0.7529  0.4843
  143DOPC  C21716981   2.303   5.317   7.067 -0.3306  0.1549  0.0705
  143DOPC  H17R16982   2.267   5.213   7.084  0.5458 -0.3463 -1.0411
  143DOPC  H17S16983   2.406   5.299   7.028 -0.2686 -1.5192  0.9056
  143DOPC  C21816984   2.221   5.391   6.970  0.3189  0.4040  0.1745
  143DOPC  H18R16985   2.115   5.365   6.987  0.4907  0.6213  1.7948
  143DOPC  H18S16986   2.241   5.358   6.866  0.3162  0.9442 -0.0001
  143DOPC  H18T16987   2.237   5.501   6.972 -3.6427  1.1519 -1.2725
  143DOPC   C3316988   1.798   5.066   8.525 -0.1657  1.0119  0.2581
  143DOPC   H3X16989   1.758   5.156   8.576 -0.5786  0.3010  1.2151
  143DOPC   H3Y16990   1.741   4.979   8.564  1.2577 -0.0850 -0.0332
  143DOPC   C3416991   1.774   5.075   8.372  0.0309 -0.1042 -0.4591
  143DOPC   H4X16992   1.673   5.037   8.346  1.1208 -3.3733 -0.3989
  143DOPC   H4Y16993   1.836   4.995   8.326 -1.0730 -2.2558  1.5975
  143DOPC   C3516994   1.813   5.220   8.312  1.1450  0.5627  0.4075
  143DOPC   H5X16995   1.915   5.248   8.344  2.0604 -0.0914 -1.7000
  143DOPC   H5Y16996   1.736   5.284   8.358  0.0341 -0.3194 -0.1553
  143DOPC   C3616997   1.806   5.227   8.162 -0.7586 -0.4798  0.1872
  143DOPC   H6X16998   1.855   5.138   8.117  0.1317  0.3876 -0.6034
  143DOPC   H6Y16999   1.696   5.232   8.146 -0.7070  0.3276  0.0254
  143DOPC   C3717000   1.858   5.360   8.100  0.5112 -0.2645 -0.1176
  143DOPC   H7X17001   1.802   5.440   8.153  1.1354 -0.5042  0.9441
  143DOPC   H7Y17002   1.966   5.369   8.124  1.3569 -0.1117 -3.5365
  143DOPC   C3817003   1.836   5.358   7.953  0.4490 -1.1793 -0.3215
  143DOPC   H8X17004   1.733   5.319   7.942 -0.2950  0.2390  1.1642
  143DOPC   H8Y17005   1.899   5.284   7.899  1.6997  0.5625 -1.3559
  143DOPC   C3917006   1.851   5.489   7.887 -0.8061  0.8626 -0.1376
  143DOPC   H9X17007   1.799   5.575   7.931 -0.6640  0.1052  1.5670
  143DOPC  C31017008   1.924   5.508   7.777 -0.0888  0.2290  0.6781
  143DOPC  H10X17009   1.931   5.611   7.739  0.6121  0.6365  1.8457
  143DOPC  C31117010   2.000   5.408   7.692 -0.1944  1.0983  0.5811
  143DOPC  H11X17011   2.039   5.325   7.755 -1.1986  0.1236 -0.0436
  143DOPC  H11Y17012   2.091   5.463   7.658 -0.2210  1.8570  1.6654
  143DOPC  C31217013   1.912   5.326   7.579  0.6173 -0.0343  0.3478
  143DOPC  H12X17014   1.819   5.285   7.623 -0.4843  1.1123 -0.8429
  143DOPC  H12Y17015   1.982   5.244   7.554 -0.5207 -2.1104  3.4043
  143DOPC  C31317016   1.882   5.417   7.461  0.3305 -0.5687 -0.3868
  143DOPC  H13X17017   1.825   5.507   7.494  1.7040  0.5454 -0.9476
  143DOPC  H13Y17018   1.979   5.454   7.422 -0.4196  1.3677 -0.5418
  143DOPC  C31417019   1.802   5.350   7.344  0.2622 -0.5182 -0.0673
  143DOPC  H14X17020   1.721   5.289   7.387 -0.9148  1.2070  0.2682
  143DOPC  H14Y17021   1.761   5.436   7.286  0.4214  0.0369  0.6287
  143DOPC  C31517022   1.887   5.273   7.242 -0.3318  0.0030 -0.2488
  143DOPC  H15X17023   1.944   5.198   7.300 -2.4293 -0.2814  1.5599
  143DOPC  H15Y17024   1.964   5.343   7.203 -1.7165  1.1833 -0.9380
  143DOPC  C31617025   1.798   5.220   7.133 -0.3057  0.4765  0.7466
  143DOPC  H16X17026   1.702   5.182   7.174 -0.1095 -0.8265  0.0578
  143DOPC  H16Y17027   1.765   5.299   7.063  0.3790 -1.9004 -2.5466
  143DOPC  C31717028   1.875   5.119   7.048 -1.3426 -0.0477  0.8310
  143DOPC  H17X17029   1.829   5.094   6.950 -1.0239 -0.2596  0.7348
  143DOPC  H17Y17030   1.978   5.154   7.027 -0.3702 -1.4218  2.9055
  143DOPC  C31817031   1.901   4.994   7.120  0.2138  0.4778  0.0409
  143DOPC  H18X17032   1.988   5.016   7.186  0.0513  0.9109  0.1181
  143DOPC  H18Y17033   1.804   4.965   7.165 -0.4460 -1.0237 -2.2301
  143DOPC  H18Z17034   1.935   4.908   7.059 -0.1609  0.0668  0.4114
  144DOPC     N17035   3.888   4.815   9.654  0.3583  0.3145  0.4082
  144DOPC   C1217036   3.873   4.775   9.506  0.2674  0.0763 -0.1989
  144DOPC  H12A17037   3.973   4.758   9.468  0.5987  1.0849  0.2106
  144DOPC  H12B17038   3.826   4.855   9.451 -0.1556  0.7911  1.1688
  144DOPC   C1317039   3.959   4.711   9.732  0.3133  0.0605 -0.2266
  144DOPC  H13A17040   3.994   4.754   9.824 -3.2487  2.1506  0.3211
  144DOPC  H13B17041   3.900   4.621   9.744  0.0791  0.2840  0.3100
  144DOPC  H13C17042   4.046   4.682   9.675  0.0947  1.0974 -1.1126
  144DOPC   C1417043   3.756   4.855   9.718  0.0275  0.7096  0.0814
  144DOPC  H14A17044   3.755   4.881   9.822 -0.4563 -0.1981  0.3089
  144DOPC  H14B17045   3.706   4.935   9.666 -0.9459 -0.3642 -0.6977
  144DOPC  H14C17046   3.681   4.779   9.703  0.4308 -0.1581  2.1084
  144DOPC   C1517047   3.972   4.940   9.651 -0.0858  0.9585 -0.1727
  144DOPC  H15A17048   4.061   4.937   9.589  0.2400 -2.3862  0.2914
  144DOPC  H15B17049   4.009   4.963   9.750  1.5489  3.4376 -1.2446
  144DOPC  H15C17050   3.915   5.025   9.615  1.6195  1.9256 -0.7140
  144DOPC   C1117051   3.788   4.646   9.480  0.1691 -0.5853  0.0431
  144DOPC  H11A17052   3.821   4.608   9.381 -0.1198  0.2453 -0.3893
  144DOPC  H11B17053   3.820   4.566   9.549  2.7708 -1.8770 -2.4752
  144DOPC     P17054   3.580   4.762   9.384  0.0099  0.0880  0.2269
  144DOPC   O1317055   3.611   4.904   9.411  0.1177  0.5421 -0.1197
  144DOPC   O1417056   3.439   4.728   9.371  0.3458 -0.1511 -0.6698
  144DOPC   O1217057   3.652   4.670   9.492  0.5290 -0.4637  0.2782
  144DOPC   O1117058   3.652   4.725   9.250 -0.0402  0.0878 -0.0261
  144DOPC    C117059   3.586   4.699   9.126  0.2019 -0.1277 -0.2259
  144DOPC    HA17060   3.508   4.624   9.149 -0.8803  0.9415 -0.3486
  144DOPC    HB17061   3.656   4.653   9.053  2.3540  2.7247 -0.1545
  144DOPC    C217062   3.531   4.821   9.050 -0.0241 -0.3902 -0.1646
  144DOPC    HS17063   3.440   4.851   9.107 -1.0246 -3.9014  0.2910
  144DOPC   O2117064   3.484   4.789   8.919  0.1570  0.3258 -0.5008
  144DOPC   C2117065   3.378   4.700   8.898 -0.2737 -0.2848 -0.2926
  144DOPC   O2217066   3.317   4.648   8.987  0.0407 -0.1299 -0.1172
  144DOPC   C2217067   3.347   4.695   8.753  0.2326  0.2922 -0.1728
  144DOPC   H2R17068   3.322   4.801   8.732  1.2797  0.8615  1.2334
  144DOPC   H2S17069   3.263   4.623   8.744 -0.2645  0.6836  0.9969
  144DOPC    C317070   3.632   4.932   9.050 -0.0712  0.5950 -0.1095
  144DOPC    HX17071   3.725   4.886   9.009  0.5523  0.6013  1.2355
  144DOPC    HY17072   3.658   4.970   9.151 -0.0958 -0.4257  0.2953
  144DOPC   O3117073   3.577   5.026   8.961  0.0880  0.2510 -0.0086
  144DOPC   C3117074   3.672   5.100   8.905 -0.6218 -0.7795 -0.7774
  144DOPC   O3217075   3.792   5.086   8.918 -0.1764 -0.3557 -0.0076
  144DOPC   C3217076   3.610   5.204   8.818 -0.1957 -0.0093 -0.1717
  144DOPC   H2X17077   3.543   5.268   8.881 -0.9250 -1.2107  0.3084
  144DOPC   H2Y17078   3.697   5.253   8.769  0.1611 -0.7294 -0.2706
  144DOPC   C2317079   3.457   4.644   8.662  0.6438  0.0177  0.1990
  144DOPC   H3R17080   3.471   4.539   8.696 -3.0643 -2.4368 -4.5975
  144DOPC   H3S17081   3.548   4.706   8.674  0.1641  0.4776  1.6807
  144DOPC   C2417082   3.408   4.631   8.517  0.3218 -0.4003  0.9483
  144DOPC   H4R17083   3.405   4.730   8.467 -0.8919 -0.4562  0.8793
  144DOPC   H4S17084   3.312   4.574   8.519 -1.3281  2.1710  3.0026
  144DOPC   C2517085   3.501   4.550   8.433 -0.3880  0.1679 -0.3845
  144DOPC   H5R17086   3.528   4.459   8.490  0.9845  0.4505 -0.5469
  144DOPC   H5S17087   3.597   4.601   8.407  0.5084 -0.8551  0.8253
  144DOPC   C2617088   3.435   4.495   8.299 -0.5598 -0.1002  0.3978
  144DOPC   H6R17089   3.337   4.445   8.313 -0.8930 -0.0735 -1.6093
  144DOPC   H6S17090   3.509   4.424   8.255 -0.2551  0.3753  0.1386
  144DOPC   C2717091   3.397   4.610   8.211 -0.6935  0.0190 -0.4192
  144DOPC   H7R17092   3.483   4.679   8.200 -0.8986  0.0632 -1.9487
  144DOPC   H7S17093   3.310   4.672   8.240  0.1794  2.4742 -2.6329
  144DOPC   C2817094   3.354   4.569   8.071  0.2662  1.0148  0.1341
  144DOPC   H8R17095   3.271   4.639   8.054 -0.1641  0.3939 -0.3743
  144DOPC   H8S17096   3.310   4.467   8.068  1.8711  0.1779  2.2076
  144DOPC   C2917097   3.456   4.595   7.966 -0.1241 -0.0734 -0.4207
  144DOPC   H9R17098   3.519   4.680   7.994  0.4826 -0.3525 -0.9057
  144DOPC  C21017099   3.470   4.547   7.846 -0.4927  0.0844  1.2299
  144DOPC  H10R17100   3.548   4.592   7.784 -0.1549 -1.6208  0.3378
  144DOPC  C21117101   3.389   4.438   7.775 -0.5082  0.4481 -0.0113
  144DOPC  H11R17102   3.342   4.475   7.681  0.3196 -0.2707 -0.7234
  144DOPC  H11S17103   3.296   4.400   7.824 -1.5589 -0.0792 -2.2756
  144DOPC  C21217104   3.482   4.319   7.728 -0.0763 -0.0262  0.3428
  144DOPC  H12R17105   3.571   4.353   7.671  0.8725 -1.0395  1.1836
  144DOPC  H12S17106   3.418   4.250   7.669  0.0485  0.4564 -0.3716
  144DOPC  C21317107   3.538   4.234   7.845 -0.1262 -0.0213  0.0227
  144DOPC  H13R17108   3.578   4.308   7.917  1.8357 -1.5440  0.5658
  144DOPC  H13S17109   3.622   4.167   7.817  0.9498  0.0776  2.7102
  144DOPC  C21417110   3.426   4.152   7.910 -0.0464 -0.7082  1.3086
  144DOPC  H14R17111   3.369   4.090   7.837  1.5525 -0.8019  0.0894
  144DOPC  H14S17112   3.357   4.227   7.953 -0.1006  1.1291 -1.7285
  144DOPC  C21517113   3.482   4.073   8.031 -0.1627  0.1530 -0.4272
  144DOPC  H15R17114   3.539   4.139   8.100 -0.3629 -1.2912  1.1934
  144DOPC  H15S17115   3.552   4.003   7.982 -0.5792 -1.1575  0.7781
  144DOPC  C21617116   3.384   3.992   8.115  0.0642 -0.2666 -0.5581
  144DOPC  H16R17117   3.438   3.900   8.146 -1.3226 -1.8111 -2.4238
  144DOPC  H16S17118   3.303   3.963   8.044  0.5029 -1.0478 -0.7495
  144DOPC  C21717119   3.308   4.069   8.232 -0.5753  0.2013 -0.2731
  144DOPC  H17R17120   3.376   4.108   8.310  1.8127  0.3226 -2.2774
  144DOPC  H17S17121   3.237   3.997   8.279 -0.3374 -0.4567 -0.8974
  144DOPC  C21817122   3.208   4.178   8.188 -0.5252 -0.0138 -0.0962
  144DOPC  H18R17123   3.257   4.276   8.171 -1.5800  0.6116  0.3515
  144DOPC  H18S17124   3.138   4.205   8.270 -1.2788 -1.9900 -0.0193
  144DOPC  H18T17125   3.158   4.152   8.092  0.4033 -0.0928 -0.5712
  144DOPC   C3317126   3.526   5.149   8.699  0.2184  0.0908 -0.0172
  144DOPC   H3X17127   3.469   5.231   8.651  1.2267  0.6986 -0.1885
  144DOPC   H3Y17128   3.451   5.076   8.738  1.5097 -1.3623 -0.1529
  144DOPC   C3417129   3.607   5.088   8.587  0.4464 -0.1818 -0.0124
  144DOPC   H4X17130   3.680   5.016   8.628  1.4284 -0.5721 -2.2580
  144DOPC   H4Y17131   3.656   5.177   8.540  0.3238  0.2074  0.5901
  144DOPC   C3517132   3.516   5.027   8.489 -0.5488  0.0376 -0.1217
  144DOPC   H5X17133   3.448   5.109   8.457  0.7393  1.3402  0.3529
  144DOPC   H5Y17134   3.446   4.959   8.542 -0.6188 -0.3374 -0.6942
  144DOPC   C3617135   3.584   4.954   8.370  0.4617 -1.0316 -0.3583
  144DOPC   H6X17136   3.635   4.857   8.391  0.8475 -0.2478  2.7840
  144DOPC   H6Y17137   3.502   4.919   8.303  0.3978 -0.7206 -0.4443
  144DOPC   C3717138   3.677   5.045   8.286  0.4217  0.5501  0.7569
  144DOPC   H7X17139   3.628   5.136   8.244  0.7950  0.2110 -0.4493
  144DOPC   H7Y17140   3.756   5.092   8.348 -0.7404 -0.0759  2.7958
  144DOPC   C3817141   3.769   4.970   8.184 -0.7611 -0.7896 -0.4010
  144DOPC   H8X17142   3.834   4.904   8.245 -1.0483  0.1897  1.0064
  144DOPC   H8Y17143   3.819   5.055   8.134 -4.2409  0.6361 -1.8207
  144DOPC   C3917144   3.691   4.886   8.085  0.2095  0.0617 -0.3444
  144DOPC   H9X17145   3.677   4.785   8.125  1.1653  0.4443  1.0099
  144DOPC  C31017146   3.642   4.935   7.971 -0.9596 -0.2113 -0.2840
  144DOPC  H10X17147   3.578   4.868   7.911 -2.2480  1.4307 -0.8196
  144DOPC  C31117148   3.664   5.079   7.929 -0.0808 -0.9787  0.1175
  144DOPC  H11X17149   3.689   5.150   8.011 -0.6799 -1.6129  0.8707
  144DOPC  H11Y17150   3.560   5.114   7.910  1.0329  1.6113 -1.7522
  144DOPC  C31217151   3.759   5.098   7.813 -0.3604 -0.0686  0.4347
  144DOPC  H12X17152   3.860   5.063   7.843 -1.2363 -0.9989  2.5551
  144DOPC  H12Y17153   3.761   5.206   7.790  1.8520  0.3680  2.3396
  144DOPC  C31317154   3.716   5.038   7.683  0.1237  0.2143 -0.1997
  144DOPC  H13X17155   3.668   4.939   7.697  0.9085  0.2438  4.1900
  144DOPC  H13Y17156   3.631   5.095   7.639 -0.3798 -0.7004 -0.4260
  144DOPC  C31417157   3.824   5.026   7.578  0.4702  0.1292 -0.5572
  144DOPC  H14X17158   3.866   5.128   7.563  2.7936  0.0912  3.9311
  144DOPC  H14Y17159   3.904   4.961   7.620 -0.5038  0.2120  1.5443
  144DOPC  C31517160   3.776   4.978   7.442 -0.2391  0.0148  0.6604
  144DOPC  H15X17161   3.678   5.022   7.414 -0.6620 -1.4399 -0.2676
  144DOPC  H15Y17162   3.742   4.872   7.449 -0.6835  0.2641  2.9563
  144DOPC  C31617163   3.886   4.995   7.336 -0.0437  0.0387  0.0802
  144DOPC  H16X17164   3.908   5.100   7.307 -0.9921  0.6457  1.4197
  144DOPC  H16Y17165   3.979   4.952   7.380  0.0377  0.3893  0.2594
  144DOPC  C31717166   3.868   4.912   7.208 -0.1630  0.1957 -0.3077
  144DOPC  H17X17167   3.968   4.910   7.159  0.8376 -0.1724  1.6453
  144DOPC  H17Y17168   3.842   4.804   7.217  1.9208 -0.3496 -0.1620
  144DOPC  C31817169   3.786   4.982   7.105  0.2295  1.0485  0.3826
  144DOPC  H18X17170   3.683   4.989   7.145 -0.0967 -0.1460 -0.1967
  144DOPC  H18Y17171   3.815   5.089   7.096 -0.6143  1.1467 -1.5295
  144DOPC  H18Z17172   3.789   4.939   7.003  0.1850  0.4535  0.6271
  145DOPC     N17173   3.413   0.516   9.544  0.6925  0.4268  0.4162
  145DOPC   C1217174   3.313   0.511   9.434 -0.1793 -0.4843  0.8336
  145DOPC  H12A17175   3.333   0.594   9.368  0.2052  0.0029  1.5496
  145DOPC  H12B17176   3.214   0.525   9.475 -0.4425 -0.6104  0.2607
  145DOPC   C1317177   3.357   0.429   9.647  0.0288  0.1495  0.5125
  145DOPC  H13A17178   3.437   0.411   9.718 -1.3973  0.2023  2.1751
  145DOPC  H13B17179   3.277   0.474   9.704 -1.9261  0.4213 -2.2371
  145DOPC  H13C17180   3.312   0.338   9.611 -1.7322  2.0413 -2.5403
  145DOPC   C1417181   3.436   0.653   9.604  0.3718  0.4335 -0.5673
  145DOPC  H14A17182   3.512   0.644   9.681  0.5488 -0.7233 -0.8624
  145DOPC  H14B17183   3.473   0.726   9.533 -0.1697  1.3127  0.0339
  145DOPC  H14C17184   3.345   0.700   9.637  0.4237  0.2754 -0.1970
  145DOPC   C1517185   3.535   0.455   9.486  0.1142 -0.0117  0.8366
  145DOPC  H15A17186   3.568   0.509   9.399  1.0419 -3.3022 -1.0483
  145DOPC  H15B17187   3.528   0.349   9.463 -1.1673 -0.0415  1.3018
  145DOPC  H15C17188   3.617   0.461   9.556  0.5874 -1.5884  0.4531
  145DOPC   C1117189   3.310   0.385   9.341  0.1633  0.2352 -0.0078
  145DOPC  H11A17190   3.223   0.406   9.275  1.6419  1.4612 -1.6833
  145DOPC  H11B17191   3.398   0.379   9.272  0.5136  1.1240  0.3461
  145DOPC     P17192   3.356   0.125   9.375  0.4040  0.4413 -0.3702
  145DOPC   O1317193   3.273   0.017   9.432 -0.3523  0.1496 -0.0244
  145DOPC   O1417194   3.494   0.129   9.426 -0.4417 -0.4946 -0.0709
  145DOPC   O1217195   3.287   0.260   9.418 -0.3245 -0.1467  0.4103
  145DOPC   O1117196   3.368   0.128   9.219 -0.2394  0.1622  0.1196
  145DOPC    C117197   3.260   0.097   9.132  0.1062  0.3949 -0.5365
  145DOPC    HA17198   3.167   0.148   9.164  0.5925  3.0080 -2.8270
  145DOPC    HB17199   3.246  -0.013   9.134 -0.3410  0.4162 -1.6583
  145DOPC    C217200   3.285   0.136   8.981 -0.4792  0.7153 -0.4582
  145DOPC    HS17201   3.385   0.095   8.957 -0.5208 -0.0753  0.6425
  145DOPC   O2117202   3.294   0.280   8.977 -0.7278 -0.2360  0.0372
  145DOPC   C2117203   3.385   0.321   8.897 -0.4504 -0.0141  0.4236
  145DOPC   O2217204   3.465   0.256   8.829 -0.5682 -0.3746  0.1446
  145DOPC   C2217205   3.385   0.476   8.889  0.6081 -0.3121 -0.8818
  145DOPC   H2R17206   3.432   0.518   8.980 -2.6857  0.6540  0.5420
  145DOPC   H2S17207   3.276   0.498   8.887  0.9133  1.3193 -0.7507
  145DOPC    C317208   3.181   0.080   8.885  0.4708 -0.4933  0.1351
  145DOPC    HX17209   3.085   0.135   8.892  0.9571  0.1982  1.9387
  145DOPC    HY17210   3.150  -0.021   8.920  0.1978 -0.8557 -1.1126
  145DOPC   O3117211   3.213   0.100   8.741 -0.2554 -0.5703 -0.3598
  145DOPC   C3117212   3.292  -0.000   8.689  0.2854 -1.1360 -0.4708
  145DOPC   O3217213   3.315  -0.101   8.751 -0.2286  0.2818  0.0476
  145DOPC   C3217214   3.344   0.051   8.553  0.3388 -0.1220  0.5405
  145DOPC   H2X17215   3.260   0.054   8.480  0.4588  0.8298  0.4240
  145DOPC   H2Y17216   3.386   0.152   8.573  0.0966  0.3274 -1.0848
  145DOPC   C2317217   3.451   0.536   8.766 -0.2365  0.2606  0.0003
  145DOPC   H3R17218   3.558   0.504   8.770 -0.0782  0.8018  0.2801
  145DOPC   H3S17219   3.464   0.646   8.766  1.1775  0.1245 -1.1362
  145DOPC   C2417220   3.382   0.509   8.638  0.2761 -0.0435 -0.4658
  145DOPC   H4R17221   3.274   0.535   8.641  0.1018 -0.6513  3.3099
  145DOPC   H4S17222   3.398   0.402   8.614  0.5215  0.0730 -0.8436
  145DOPC   C2517223   3.441   0.582   8.519  1.2040 -0.3848 -0.5817
  145DOPC   H5R17224   3.551   0.574   8.504  1.1328 -0.6711 -0.9614
  145DOPC   H5S17225   3.413   0.689   8.533 -1.7570 -1.2064  0.5821
  145DOPC   C2617226   3.360   0.553   8.389  0.2764 -0.5980 -0.5175
  145DOPC   H6R17227   3.253   0.560   8.419  0.9499  0.8807  1.8369
  145DOPC   H6S17228   3.384   0.447   8.366 -2.1904 -1.0053 -1.5502
  145DOPC   C2717229   3.399   0.634   8.266  0.2752  0.0475 -0.5053
  145DOPC   H7R17230   3.510   0.629   8.264  0.5623 -0.7285  4.4580
  145DOPC   H7S17231   3.367   0.735   8.297 -1.2611 -0.3179 -0.8079
  145DOPC   C2817232   3.342   0.582   8.127 -0.4145  0.1624  0.0169
  145DOPC   H8R17233   3.383   0.482   8.104 -1.2292 -0.1714 -0.0167
  145DOPC   H8S17234   3.386   0.654   8.055  1.0776 -1.2921 -0.5978
  145DOPC   C2917235   3.193   0.577   8.112 -0.0118 -0.0249  0.1526
  145DOPC   H9R17236   3.146   0.620   8.202  1.6365  1.6583  0.2749
  145DOPC  C21017237   3.121   0.539   8.005  0.0635  0.5267 -0.4160
  145DOPC  H10R17238   3.011   0.533   8.004 -0.0119  1.7282 -0.4769
  145DOPC  C21117239   3.183   0.489   7.880 -0.2463  0.9148  0.4231
  145DOPC  H11R17240   3.158   0.381   7.885 -1.1154  1.1086  0.5028
  145DOPC  H11S17241   3.294   0.484   7.881 -0.2556  0.5597  1.3712
  145DOPC  C21217242   3.120   0.537   7.748  0.3121  0.2907 -0.1156
  145DOPC  H12R17243   3.122   0.648   7.739  1.2628  0.1228 -3.5217
  145DOPC  H12S17244   3.013   0.510   7.748 -0.0511  1.6397  0.7420
  145DOPC  C21317245   3.182   0.475   7.622 -0.4167 -0.0763  0.2081
  145DOPC  H13R17246   3.187   0.364   7.624 -1.7569 -0.1820 -0.9659
  145DOPC  H13S17247   3.287   0.510   7.630 -0.7603  1.6130 -1.8472
  145DOPC  C21417248   3.117   0.520   7.495  0.4380  0.6144  0.7360
  145DOPC  H14R17249   3.118   0.631   7.484 -1.3589  0.7505  1.5582
  145DOPC  H14S17250   3.014   0.479   7.489  0.8511 -0.3688  0.1160
  145DOPC  C21517251   3.201   0.467   7.377 -1.0842 -0.0207 -0.6435
  145DOPC  H15R17252   3.216   0.358   7.391  2.0070  0.2863 -0.8150
  145DOPC  H15S17253   3.300   0.518   7.379 -0.2685 -1.3927 -3.0090
  145DOPC  C21617254   3.125   0.489   7.244  0.3398  0.2109 -0.5241
  145DOPC  H16R17255   3.092   0.595   7.245 -0.9532 -0.1817  0.6399
  145DOPC  H16S17256   3.034   0.425   7.244  1.4116 -1.5621  2.8307
  145DOPC  C21717257   3.214   0.473   7.120 -0.1436  0.7048  0.0502
  145DOPC  H17R17258   3.253   0.370   7.108  1.9343  1.6633 -2.4984
  145DOPC  H17S17259   3.303   0.535   7.145 -0.8191  1.6084  0.2837
  145DOPC  C21817260   3.163   0.526   6.981  0.3378  0.2225 -0.2795
  145DOPC  H18R17261   3.140   0.633   6.997 -3.2658 -0.5314  0.4792
  145DOPC  H18S17262   3.071   0.475   6.946 -1.7112  2.9448  0.8496
  145DOPC  H18T17263   3.238   0.521   6.899  0.4358 -2.3613 -0.1082
  145DOPC   C3317264   3.451  -0.035   8.477  1.3344  0.5213 -0.3073
  145DOPC   H3X17265   3.400  -0.105   8.408  0.3250  1.2313 -0.2940
  145DOPC   H3Y17266   3.501  -0.100   8.553  0.4458  0.3711  0.1606
  145DOPC   C3417267   3.555   0.057   8.417 -0.6501 -0.5343  0.3655
  145DOPC   H4X17268   3.626  -0.010   8.363 -1.1055  0.6338 -1.7827
  145DOPC   H4Y17269   3.613   0.113   8.493 -0.1951  0.6159 -0.7942
  145DOPC   C3517270   3.502   0.151   8.307  0.0267 -0.1589 -0.2497
  145DOPC   H5X17271   3.470   0.250   8.346 -0.1466 -0.6002  0.7589
  145DOPC   H5Y17272   3.418   0.102   8.254  0.3862  0.7223 -1.7077
  145DOPC   C3617273   3.610   0.188   8.200 -0.3001 -0.7786 -1.0388
  145DOPC   H6X17274   3.686   0.262   8.235 -1.6647  0.0514  0.2664
  145DOPC   H6Y17275   3.661   0.092   8.177  0.5546 -1.2311  2.2410
  145DOPC   C3717276   3.552   0.239   8.076 -0.6192 -0.6443 -0.0986
  145DOPC   H7X17277   3.478   0.165   8.039 -0.8223 -0.4032 -0.1694
  145DOPC   H7Y17278   3.494   0.330   8.101  2.4037  1.6544 -0.8190
  145DOPC   C3817279   3.644   0.285   7.961 -0.0600 -0.8226 -0.5923
  145DOPC   H8X17280   3.697   0.197   7.918  2.5232  0.5037 -0.2996
  145DOPC   H8Y17281   3.730   0.349   7.990 -0.6258  1.0340 -2.7135
  145DOPC   C3917282   3.564   0.351   7.854 -1.1302 -1.1812 -0.5904
  145DOPC   H9X17283   3.525   0.451   7.881  1.0521 -0.3243 -0.3534
  145DOPC  C31017284   3.534   0.301   7.734 -0.3551 -0.0366 -0.7199
  145DOPC  H10X17285   3.479   0.358   7.658 -0.0651 -1.6395 -2.1747
  145DOPC  C31117286   3.574   0.169   7.680 -0.5990  0.0577  0.6626
  145DOPC  H11X17287   3.628   0.099   7.748  0.2142 -1.5949 -1.5551
  145DOPC  H11Y17288   3.644   0.188   7.595 -3.5283 -1.7211 -2.3603
  145DOPC  C31217289   3.472   0.089   7.609 -0.1690  0.3805 -0.0712
  145DOPC  H12X17290   3.402   0.049   7.685  0.5036 -0.5555  0.0793
  145DOPC  H12Y17291   3.517  -0.007   7.575 -2.1913 -0.7910  0.4057
  145DOPC  C31317292   3.400   0.155   7.486 -0.2649  0.3825 -0.5926
  145DOPC  H13X17293   3.342   0.243   7.520  2.2480  1.4090  1.2914
  145DOPC  H13Y17294   3.478   0.202   7.422  0.0960  1.4396  0.5953
  145DOPC  C31417295   3.326   0.067   7.385  0.4458  0.6028 -0.1225
  145DOPC  H14X17296   3.287  -0.018   7.445 -0.9640  1.7359  0.6378
  145DOPC  H14Y17297   3.241   0.112   7.329 -0.8301 -1.1385  0.3530
  145DOPC  C31517298   3.427   0.016   7.280 -0.5949  0.3671 -0.3618
  145DOPC  H15X17299   3.519  -0.007   7.338 -0.5243 -1.0138 -0.9888
  145DOPC  H15Y17300   3.439   0.088   7.196 -0.4635 -1.3632 -1.8890
  145DOPC  C31617301   3.363  -0.102   7.205  0.5923  0.0414 -0.2177
  145DOPC  H16X17302   3.439  -0.138   7.133  1.4549 -1.7249  1.4625
  145DOPC  H16Y17303   3.348  -0.186   7.277  1.1733  0.0761 -0.0536
  145DOPC  C31717304   3.229  -0.069   7.136 -0.5241 -0.6314 -0.0341
  145DOPC  H17X17305   3.198  -0.151   7.068  0.6506 -0.8753 -0.2842
  145DOPC  H17Y17306   3.143  -0.055   7.205 -0.4804  1.3928 -0.3138
  145DOPC  C31817307   3.231   0.055   7.043  0.0785 -0.5356 -0.1848
  145DOPC  H18X17308   3.294   0.039   6.953 -0.6763  1.0900 -1.0466
  145DOPC  H18Y17309   3.134   0.091   7.002  1.1285  2.0785 -0.5785
  145DOPC  H18Z17310   3.270   0.145   7.095  1.0324 -1.5078  0.8432
  146DOPC     N17311   0.472   5.085   8.871 -0.4504 -0.7128  0.0908
  146DOPC   C1217312   0.364   5.011   8.794  0.0819 -0.7098 -0.6314
  146DOPC  H12A17313   0.285   4.973   8.858  2.1501 -0.4919  2.2406
  146DOPC  H12B17314   0.399   4.921   8.746 -0.9200 -1.3535 -0.1932
  146DOPC   C1317315   0.412   5.199   8.941  0.2002  0.9409 -0.0899
  146DOPC  H13A17316   0.345   5.160   9.016 -1.3980  0.4854 -1.6925
  146DOPC  H13B17317   0.497   5.247   8.988  2.4206 -0.7397 -2.1843
  146DOPC  H13C17318   0.359   5.271   8.880  1.3703  1.8009 -0.1366
  146DOPC   C1417319   0.580   5.120   8.780  0.1778  0.0822 -0.5799
  146DOPC  H14A17320   0.651   5.047   8.745  1.0034  0.9827 -0.8328
  146DOPC  H14B17321   0.534   5.161   8.691  0.4756  2.0124  0.1053
  146DOPC  H14C17322   0.643   5.196   8.824 -0.5129  0.2522  0.1467
  146DOPC   C1517323   0.530   4.991   8.980  0.0905 -0.6809  0.1853
  146DOPC  H15A17324   0.451   4.966   9.049 -0.2051 -1.1130 -0.2989
  146DOPC  H15B17325   0.610   5.035   9.037 -0.1290  0.7361 -0.5473
  146DOPC  H15C17326   0.560   4.904   8.924  3.0174  2.1833 -3.1672
  146DOPC   C1117327   0.287   5.096   8.687  0.4621  0.1344 -0.1864
  146DOPC  H11A17328   0.187   5.053   8.666  0.2338  0.0190  1.0979
  146DOPC  H11B17329   0.265   5.198   8.725 -0.4186  0.0701 -0.5024
  146DOPC     P17330   0.376   4.983   8.467 -0.1971 -0.0949  0.1406
  146DOPC   O1317331   0.390   4.856   8.538  0.7436 -0.4008 -0.1445
  146DOPC   O1417332   0.483   5.021   8.369 -0.0737 -0.2292 -0.6488
  146DOPC   O1217333   0.369   5.104   8.566 -0.2154 -0.2934 -0.2127
  146DOPC   O1117334   0.230   4.975   8.405  0.0917  0.1384 -0.5731
  146DOPC    C117335   0.164   5.101   8.362  0.7072  0.5754  0.6148
  146DOPC    HA17336   0.231   5.186   8.336  1.4052  0.8419  3.0696
  146DOPC    HB17337   0.094   5.146   8.435 -0.0675  2.0512 -0.9738
  146DOPC    C217338   0.081   5.069   8.234  0.8028 -0.1493 -0.1377
  146DOPC    HS17339   0.029   4.973   8.258  1.0012 -0.5641 -1.2804
  146DOPC   O2117340   0.164   5.068   8.119 -0.1918 -0.1540 -0.0659
  146DOPC   C2117341   0.217   4.945   8.096  0.6981 -1.2435  0.4300
  146DOPC   O2217342   0.194   4.850   8.164  0.0526 -0.1031 -0.6900
  146DOPC   C2217343   0.307   4.961   7.970 -0.0263  0.4092 -1.0540
  146DOPC   H2R17344   0.378   5.046   7.979  0.6057 -0.3026  1.4999
  146DOPC   H2S17345   0.239   4.975   7.883  0.0205 -1.1160 -1.3646
  146DOPC    C317346  -0.035   5.168   8.213 -0.0962  0.0718  0.0724
  146DOPC    HX17347   0.001   5.272   8.229  0.8613 -0.3026  0.4379
  146DOPC    HY17348  -0.111   5.150   8.292 -0.2802  1.8423  0.3285
  146DOPC   O3117349  -0.090   5.159   8.081  0.9646  0.7885  0.4664
  146DOPC   C3117350  -0.166   5.055   8.059 -0.3074 -0.6756 -0.5901
  146DOPC   O3217351  -0.209   4.977   8.140  0.2050 -0.1440 -0.7672
  146DOPC   C3217352  -0.195   5.051   7.912 -0.3238  0.4672  0.2264
  146DOPC   H2X17353  -0.274   4.974   7.897  0.1442  0.3575 -2.2224
  146DOPC   H2Y17354  -0.226   5.153   7.881  1.2237  0.5367 -1.2909
  146DOPC   C2317355   0.396   4.838   7.951 -0.4625  0.8809 -0.0042
  146DOPC   H3R17356   0.333   4.747   7.942  1.0822 -0.1975 -0.2399
  146DOPC   H3S17357   0.460   4.830   8.042  1.7311  1.5300 -1.4195
  146DOPC   C2417358   0.491   4.841   7.827  0.1983 -0.9719 -0.7139
  146DOPC   H4R17359   0.551   4.747   7.826  2.3352  0.3217 -0.3044
  146DOPC   H4S17360   0.565   4.924   7.829  0.0179 -0.8244 -0.0972
  146DOPC   C2517361   0.421   4.844   7.688  0.4118  0.2589 -0.5525
  146DOPC   H5R17362   0.341   4.921   7.690 -1.5854 -1.7178  1.6385
  146DOPC   H5S17363   0.351   4.760   7.666  1.2379 -0.9431  1.2031
  146DOPC   C2617364   0.512   4.891   7.574  0.2270 -0.3677  0.3512
  146DOPC   H6R17365   0.576   4.803   7.549 -0.4305 -0.4425 -1.1822
  146DOPC   H6S17366   0.570   4.978   7.610 -0.3007 -0.5459  1.6742
  146DOPC   C2717367   0.437   4.929   7.446  0.8508 -0.8555 -0.1649
  146DOPC   H7R17368   0.355   4.993   7.485 -0.0952 -2.9772  1.6056
  146DOPC   H7S17369   0.381   4.844   7.401  2.5488 -1.1629 -1.8133
  146DOPC   C2817370   0.511   5.012   7.336 -0.5578 -0.0566 -0.1435
  146DOPC   H8R17371   0.521   5.115   7.377 -1.3051 -0.7929  2.0667
  146DOPC   H8S17372   0.439   5.021   7.252 -2.1135 -1.2240  1.0031
  146DOPC   C2917373   0.639   4.939   7.286 -0.1868  0.5628 -0.4429
  146DOPC   H9R17374   0.733   4.982   7.321 -1.1055  0.9233  1.7719
  146DOPC  C21017375   0.646   4.858   7.182  0.2299  0.8975 -0.2281
  146DOPC  H10R17376   0.744   4.814   7.160  0.5518  0.9517  1.0163
  146DOPC  C21117377   0.534   4.809   7.090  0.4989 -0.0445  0.5232
  146DOPC  H11R17378   0.465   4.895   7.076  1.3473  0.7813  1.2938
  146DOPC  H11S17379   0.469   4.743   7.152 -0.5676 -0.4439 -0.9702
  146DOPC  C21217380   0.576   4.753   6.952 -0.3629  0.3409 -0.5085
  146DOPC  H12R17381   0.487   4.727   6.890  0.1481 -0.4413 -0.9431
  146DOPC  H12S17382   0.633   4.660   6.974  0.5066  1.1527  0.8220
  146DOPC  C21317383   0.664   4.847   6.872  0.2079  0.1582  0.4014
  146DOPC  H13R17384   0.759   4.853   6.929 -0.4286  0.5507  1.4586
  146DOPC  H13S17385   0.623   4.950   6.865  0.6074  0.2892 -0.0438
  146DOPC  C21417386   0.682   4.805   6.724 -0.3090 -0.3173  0.1486
  146DOPC  H14R17387   0.740   4.711   6.720 -0.2729 -0.2725 -0.5167
  146DOPC  H14S17388   0.745   4.877   6.667  2.3514 -2.3546  0.2835
  146DOPC  C21517389   0.552   4.786   6.660  0.2527 -0.3246  0.4188
  146DOPC  H15R17390   0.485   4.703   6.694 -0.2961  0.3764  1.0738
  146DOPC  H15S17391   0.573   4.770   6.552 -0.2356  1.2765  0.0672
  146DOPC  C21617392   0.459   4.902   6.664 -0.4728  0.1630 -0.5226
  146DOPC  H16R17393   0.508   5.001   6.657 -2.4896  1.3724  1.2312
  146DOPC  H16S17394   0.410   4.905   6.764 -1.1628 -1.4927 -0.7689
  146DOPC  C21717395   0.352   4.906   6.556 -0.3177 -0.3888  0.2703
  146DOPC  H17R17396   0.295   4.812   6.571 -0.4551 -0.3247  0.1502
  146DOPC  H17S17397   0.388   4.918   6.452 -3.1052  0.3397 -0.6957
  146DOPC  C21817398   0.261   5.028   6.562  0.5534 -0.1330 -0.5434
  146DOPC  H18R17399   0.217   5.025   6.664  1.3146  0.4587 -0.1819
  146DOPC  H18S17400   0.178   5.029   6.489  0.8462  0.2804 -0.8721
  146DOPC  H18T17401   0.318   5.123   6.555 -1.4545  1.2096  0.4453
  146DOPC   C3317402  -0.075   5.004   7.824 -0.6378 -0.0948 -0.3823
  146DOPC   H3X17403  -0.012   4.930   7.878  0.6306  1.5611  0.5035
  146DOPC   H3Y17404  -0.006   5.089   7.804 -0.9621 -0.0801 -1.4994
  146DOPC   C3417405  -0.117   4.942   7.691 -0.6627  0.3577 -0.0526
  146DOPC   H4X17406  -0.173   5.015   7.629  1.0710  1.2430 -0.6442
  146DOPC   H4Y17407  -0.184   4.857   7.716 -1.8771  1.1686 -0.4465
  146DOPC   C3517408   0.007   4.905   7.600  0.1046  0.1087  0.1511
  146DOPC   H5X17409   0.081   4.852   7.663 -0.2142 -0.4427  0.0633
  146DOPC   H5Y17410   0.049   5.002   7.566 -1.0450  0.7529  0.4982
  146DOPC   C3617411  -0.025   4.816   7.480  0.2010  0.2474 -0.4201
  146DOPC   H6X17412  -0.062   4.722   7.528  1.7720 -0.6457 -0.8967
  146DOPC   H6Y17413  -0.109   4.866   7.428 -0.1555  3.1652  2.5964
  146DOPC   C3717414   0.075   4.781   7.370 -0.1181 -0.5450 -0.6128
  146DOPC   H7X17415   0.170   4.740   7.409  0.1689  0.7013  0.0666
  146DOPC   H7Y17416   0.030   4.690   7.324  1.0976 -1.9259  0.8115
  146DOPC   C3817417   0.093   4.892   7.267 -0.5939 -0.3166 -0.1722
  146DOPC   H8X17418   0.143   4.980   7.313 -1.2794 -0.4442  0.8343
  146DOPC   H8Y17419  -0.005   4.932   7.235 -1.5331 -2.1154  0.2945
  146DOPC   C3917420   0.172   4.841   7.153  0.5364 -0.5435  0.2326
  146DOPC   H9X17421   0.230   4.752   7.178 -1.4660 -2.6360 -2.0503
  146DOPC  C31017422   0.166   4.887   7.018 -0.1894 -0.1111 -0.3112
  146DOPC  H10X17423   0.238   4.833   6.954 -0.0418 -0.1246 -0.1339
  146DOPC  C31117424   0.085   4.997   6.946  0.1537 -0.5912  0.3095
  146DOPC  H11X17425   0.151   5.055   6.877 -1.4835 -1.1069 -1.8036
  146DOPC  H11Y17426   0.042   5.064   7.023  0.5329  1.0497 -0.8703
  146DOPC  C31217427  -0.039   4.936   6.880 -0.4331  0.1837 -0.0159
  146DOPC  H12X17428  -0.009   4.863   6.803  0.6880  0.7277 -0.1101
  146DOPC  H12Y17429  -0.094   5.020   6.831 -0.4629  1.0256  1.3900
  146DOPC  C31317430  -0.134   4.856   6.970  0.0942  0.0060 -0.0366
  146DOPC  H13X17431  -0.081   4.789   7.040 -1.5297  0.1078  1.3429
  146DOPC  H13Y17432  -0.190   4.931   7.030 -0.2865 -0.7254  0.5244
  146DOPC  C31417433  -0.235   4.763   6.893  0.5439  0.8831  0.1474
  146DOPC  H14X17434  -0.186   4.693   6.822  1.4105  2.4863 -0.8908
  146DOPC  H14Y17435  -0.291   4.703   6.968 -0.2949 -3.5495 -3.5594
  146DOPC  C31517436  -0.324   4.847   6.804 -0.3923  0.5379  0.2221
  146DOPC  H15X17437  -0.275   4.878   6.709 -1.4714 -1.6676 -1.1392
  146DOPC  H15Y17438  -0.358   4.940   6.854 -2.6012 -0.5489  0.8670
  146DOPC  C31617439  -0.447   4.763   6.751  0.2043 -0.6165  0.6864
  146DOPC  H16X17440  -0.452   4.673   6.816 -1.2478 -0.8854  0.2468
  146DOPC  H16Y17441  -0.533   4.833   6.751  0.5379 -0.1786 -0.3981
  146DOPC  C31717442  -0.419   4.703   6.608  0.2220  0.4583 -0.3964
  146DOPC  H17X17443  -0.378   4.784   6.543 -2.0375  0.9876 -1.2466
  146DOPC  H17Y17444  -0.344   4.622   6.614 -1.3167 -1.4209 -3.9576
  146DOPC  C31817445  -0.545   4.642   6.539 -0.1582  0.0353  0.2595
  146DOPC  H18X17446  -0.576   4.545   6.584 -0.5810 -1.4158 -2.8804
  146DOPC  H18Y17447  -0.627   4.716   6.530 -1.8648 -1.8038 -0.1476
  146DOPC  H18Z17448  -0.519   4.611   6.436 -0.0414 -2.1360  0.8893
  147DOPC     N17449   1.952   3.058   9.550 -0.1594 -0.5302 -0.5072
  147DOPC   C1217450   1.938   3.212   9.551  0.5594  0.2057 -0.1489
  147DOPC  H12A17451   1.993   3.246   9.638 -0.7847 -1.4282  1.3997
  147DOPC  H12B17452   1.836   3.243   9.571  1.1934  1.1730  1.9533
  147DOPC   C1317453   1.868   3.001   9.436 -0.7634 -0.3732 -0.5628
  147DOPC  H13A17454   1.883   2.896   9.419 -2.9384 -0.7484 -0.3883
  147DOPC  H13B17455   1.765   3.027   9.452 -0.4018  0.4736  0.5010
  147DOPC  H13C17456   1.908   3.059   9.354  2.4381  0.3246  1.3178
  147DOPC   C1417457   1.898   2.989   9.673 -0.0863 -0.0236 -0.2538
  147DOPC  H14A17458   1.958   3.012   9.760 -0.7145  1.0759 -0.0916
  147DOPC  H14B17459   1.794   3.011   9.692  0.0519  0.6103 -0.2150
  147DOPC  H14C17460   1.897   2.882   9.664 -0.2191 -0.1387  0.9673
  147DOPC   C1517461   2.093   3.017   9.525  0.0886 -0.3929 -0.1265
  147DOPC  H15A17462   2.163   3.051   9.601 -0.9587  0.3024  0.5572
  147DOPC  H15B17463   2.118   3.054   9.427 -3.2855 -0.9484 -1.3271
  147DOPC  H15C17464   2.107   2.911   9.516 -0.2709 -0.2935 -2.1281
  147DOPC   C1117465   1.986   3.283   9.421 -0.7179 -0.4096  0.0201
  147DOPC  H11A17466   1.998   3.390   9.450  1.2942 -0.6460  0.2318
  147DOPC  H11B17467   2.094   3.262   9.404  0.4415  2.8424  2.3634
  147DOPC     P17468   1.906   3.334   9.167  0.0573  0.3553  0.2677
  147DOPC   O1317469   2.015   3.435   9.172 -1.0086  0.3391  0.2053
  147DOPC   O1417470   1.771   3.381   9.124 -0.2468  0.3284 -0.4885
  147DOPC   O1217471   1.897   3.260   9.312 -0.4787 -0.6959  0.3440
  147DOPC   O1117472   1.937   3.216   9.065 -0.1654 -0.6639 -0.0649
  147DOPC    C117473   2.056   3.148   9.071 -0.1197 -0.2753 -0.2006
  147DOPC    HA17474   2.060   3.104   9.173 -0.9046 -0.0548 -0.0711
  147DOPC    HB17475   2.139   3.218   9.048  0.6763 -1.2335 -0.3213
  147DOPC    C217476   2.068   3.018   8.983 -0.3124 -0.1902 -0.0222
  147DOPC    HS17477   2.164   2.963   8.996 -0.3134  0.0649  1.2099
  147DOPC   O2117478   2.048   3.052   8.843  0.4705 -0.4648  0.3568
  147DOPC   C2117479   2.157   3.080   8.776 -0.6313 -0.3249  0.3366
  147DOPC   O2217480   2.263   3.111   8.827  0.1096 -0.3638 -0.0401
  147DOPC   C2217481   2.122   3.080   8.627 -0.1058  0.3329  1.1170
  147DOPC   H2R17482   2.068   3.173   8.599  1.7003  1.6264  1.7502
  147DOPC   H2S17483   2.056   2.994   8.601  0.5333 -0.0403  0.6846
  147DOPC    C317484   1.967   2.913   9.016 -0.0238 -0.4270 -0.4100
  147DOPC    HX17485   1.866   2.959   9.006  0.5410  0.8579 -0.4036
  147DOPC    HY17486   1.970   2.887   9.124 -3.3409  3.3978  0.8664
  147DOPC   O3117487   1.986   2.797   8.943  0.2148  0.0373 -0.3520
  147DOPC   C3117488   1.906   2.784   8.837 -0.4467  0.0583  0.8036
  147DOPC   O3217489   1.812   2.848   8.803  0.1198  0.3971 -1.1379
  147DOPC   C3217490   1.958   2.659   8.766  0.0594  0.6205  0.4158
  147DOPC   H2X17491   2.061   2.629   8.792 -0.0191 -1.9338 -1.8215
  147DOPC   H2Y17492   1.900   2.566   8.783  0.3950  0.0084 -1.5343
  147DOPC   C2317493   2.242   3.062   8.538  0.7292  0.1447 -0.8574
  147DOPC   H3R17494   2.298   2.972   8.571  0.2001 -0.3079 -1.1790
  147DOPC   H3S17495   2.319   3.141   8.548  1.9905 -1.0164 -1.2251
  147DOPC   C2417496   2.205   3.046   8.387  0.5422  0.2631 -0.5468
  147DOPC   H4R17497   2.153   3.134   8.343  0.1717 -0.9068 -2.6008
  147DOPC   H4S17498   2.128   2.966   8.380  0.5342  0.0996  1.0991
  147DOPC   C2517499   2.322   2.988   8.308 -0.3396 -0.3918 -0.3700
  147DOPC   H5R17500   2.375   2.923   8.381 -0.4953 -0.6692 -0.5046
  147DOPC   H5S17501   2.398   3.064   8.279 -0.7549 -0.3282 -1.3157
  147DOPC   C2617502   2.282   2.900   8.186  0.1519  0.5450  0.1056
  147DOPC   H6R17503   2.208   2.960   8.128  1.4541  3.5804  1.3778
  147DOPC   H6S17504   2.231   2.811   8.228 -1.1633  1.8562  1.3946
  147DOPC   C2717505   2.403   2.887   8.084  0.2866 -0.2932 -0.3436
  147DOPC   H7R17506   2.478   2.829   8.140  0.5000  0.5989  0.3087
  147DOPC   H7S17507   2.452   2.982   8.054 -1.7181  0.9120  0.0213
  147DOPC   C2817508   2.378   2.810   7.949 -0.3573 -0.0963  0.4026
  147DOPC   H8R17509   2.328   2.715   7.978 -0.2751  0.1351  1.3609
  147DOPC   H8S17510   2.476   2.789   7.901  0.6794  1.6445  1.6270
  147DOPC   C2917511   2.301   2.889   7.851  0.6341  1.0948  0.3650
  147DOPC   H9R17512   2.213   2.934   7.900 -0.9991 -2.0041  0.5797
  147DOPC  C21017513   2.323   2.900   7.714 -0.6635  0.0001 -0.2984
  147DOPC  H10R17514   2.264   2.969   7.652  0.5119  0.1900 -1.2399
  147DOPC  C21117515   2.412   2.824   7.623 -0.8928  0.2940 -0.3210
  147DOPC  H11R17516   2.426   2.722   7.666 -0.4112 -1.0181 -3.2919
  147DOPC  H11S17517   2.512   2.872   7.624 -1.4994  1.6147  1.7797
  147DOPC  C21217518   2.360   2.823   7.475  0.6611  0.2621  0.3694
  147DOPC  H12R17519   2.318   2.921   7.445 -1.4616 -0.3562  1.1257
  147DOPC  H12S17520   2.273   2.754   7.478  1.8074 -1.2077  1.5700
  147DOPC  C21317521   2.464   2.779   7.375  0.3559  0.6794  0.3666
  147DOPC  H13R17522   2.517   2.691   7.417 -0.5285  0.7565  1.6952
  147DOPC  H13S17523   2.535   2.863   7.356  1.1076  0.6109  2.5534
  147DOPC  C21417524   2.406   2.747   7.236 -0.6337  0.7925 -0.0240
  147DOPC  H14R17525   2.359   2.835   7.187  0.0765  1.8132  1.0764
  147DOPC  H14S17526   2.319   2.678   7.240 -1.8175  2.1146 -1.5357
  147DOPC  C21517527   2.523   2.694   7.151  0.1379  0.1164  0.5164
  147DOPC  H15R17528   2.557   2.595   7.188 -2.2165  0.0203  2.7081
  147DOPC  H15S17529   2.604   2.770   7.156  0.5037  0.0590 -2.6467
  147DOPC  C21617530   2.478   2.675   7.003 -0.0962  0.2572 -0.0767
  147DOPC  H16R17531   2.411   2.761   6.979 -1.2578 -0.7302 -0.4596
  147DOPC  H16S17532   2.413   2.587   6.986  0.1475  0.2124 -0.8484
  147DOPC  C21717533   2.601   2.675   6.902 -0.4185  0.2784  0.2236
  147DOPC  H17R17534   2.624   2.568   6.883  4.0526  0.9410  0.8841
  147DOPC  H17S17535   2.692   2.718   6.950  0.7930 -0.1808 -1.5874
  147DOPC  C21817536   2.577   2.754   6.771 -0.3041  0.3177 -0.3471
  147DOPC  H18R17537   2.672   2.803   6.740  0.8326 -0.6209  1.4350
  147DOPC  H18S17538   2.503   2.835   6.788 -0.0600  0.9148 -1.9636
  147DOPC  H18T17539   2.534   2.685   6.695  1.2730  0.3491 -1.3135
  147DOPC   C3317540   1.986   2.685   8.613 -0.1462  0.1768  0.8578
  147DOPC   H3X17541   2.033   2.593   8.573 -0.5153  0.9495 -1.5011
  147DOPC   H3Y17542   2.061   2.764   8.593 -0.4002  0.0373 -0.7810
  147DOPC   C3417543   1.863   2.715   8.530 -0.2173  0.5349  0.0051
  147DOPC   H4X17544   1.834   2.820   8.552  0.4947  0.4290  1.5830
  147DOPC   H4Y17545   1.783   2.642   8.554  1.3420 -1.5891 -0.9643
  147DOPC   C3517546   1.883   2.701   8.386 -0.0855 -0.3213  0.2165
  147DOPC   H5X17547   1.976   2.753   8.352 -0.1885 -2.2792 -3.4609
  147DOPC   H5Y17548   1.798   2.737   8.325 -1.0409 -1.2060  0.9926
  147DOPC   C3617549   1.914   2.554   8.352 -0.1128 -0.0311 -0.0250
  147DOPC   H6X17550   2.004   2.515   8.403 -0.2576  0.5198  0.6730
  147DOPC   H6Y17551   1.833   2.484   8.381 -0.5762 -0.0512 -1.3084
  147DOPC   C3717552   1.933   2.534   8.206 -0.4241 -0.0995  0.2299
  147DOPC   H7X17553   1.900   2.435   8.169  0.5402  0.2572 -1.7167
  147DOPC   H7Y17554   1.869   2.607   8.152 -0.1477 -0.2198 -0.2581
  147DOPC   C3817555   2.081   2.575   8.162  0.0181  0.8742 -0.8161
  147DOPC   H8X17556   2.110   2.666   8.219  1.0893  0.3831 -0.5514
  147DOPC   H8Y17557   2.072   2.609   8.056 -1.8790 -2.9595 -2.0638
  147DOPC   C3917558   2.181   2.456   8.172 -0.0008  0.4431 -0.6749
  147DOPC   H9X17559   2.213   2.421   8.271 -0.8590  2.8771  0.5585
  147DOPC  C31017560   2.239   2.391   8.068  1.1548  0.5230  0.8792
  147DOPC  H10X17561   2.321   2.318   8.074 -1.6155 -3.0064 -0.2524
  147DOPC  C31117562   2.215   2.436   7.927  0.1885  0.2651  0.4981
  147DOPC  H11X17563   2.271   2.531   7.921  0.0559  0.4952  2.4143
  147DOPC  H11Y17564   2.107   2.452   7.912  0.6707  4.5808  0.5419
  147DOPC  C31217565   2.266   2.347   7.817 -0.0921 -0.3890 -0.3347
  147DOPC  H12X17566   2.203   2.255   7.819 -0.1368 -0.3458  0.3515
  147DOPC  H12Y17567   2.375   2.325   7.826  0.0015  0.2146  0.0163
  147DOPC  C31317568   2.239   2.414   7.681 -0.3442  0.4762 -0.1621
  147DOPC  H13X17569   2.131   2.440   7.681 -1.1896 -2.5975  0.5265
  147DOPC  H13Y17570   2.283   2.515   7.696 -0.8252  0.3694  2.4116
  147DOPC  C31417571   2.315   2.344   7.573  0.9937  0.1063 -0.6153
  147DOPC  H14X17572   2.415   2.306   7.604  0.1649 -0.0730  2.1383
  147DOPC  H14Y17573   2.252   2.258   7.542  0.7066  0.9216 -2.3954
  147DOPC  C31517574   2.316   2.438   7.447  0.5404 -0.3122  0.4724
  147DOPC  H15X17575   2.380   2.524   7.473 -0.4446  0.4066  0.5857
  147DOPC  H15Y17576   2.210   2.469   7.436  0.3668 -0.3685  1.8074
  147DOPC  C31617577   2.363   2.366   7.319  0.3751 -0.0685 -0.0406
  147DOPC  H16X17578   2.465   2.410   7.314 -0.2058  1.3845  0.4657
  147DOPC  H16Y17579   2.367   2.257   7.341 -1.0491 -0.0396  0.4379
  147DOPC  C31717580   2.276   2.399   7.200 -0.3642 -0.1179  0.0472
  147DOPC  H17X17581   2.175   2.362   7.230 -0.6481  1.5870  1.3360
  147DOPC  H17Y17582   2.257   2.504   7.171 -0.1030 -0.9552 -3.6094
  147DOPC  C31817583   2.335   2.324   7.079 -0.1597 -0.6590 -0.3095
  147DOPC  H18X17584   2.349   2.216   7.098 -0.9540 -0.3735  2.2039
  147DOPC  H18Y17585   2.278   2.349   6.986  1.6113  1.1837 -0.9830
  147DOPC  H18Z17586   2.440   2.360   7.069 -0.1606 -0.6406 -0.2479
  148DOPC     N17587   2.741   1.815   8.618 -0.6201 -0.6585 -0.2435
  148DOPC   C1217588   2.807   1.835   8.484  0.3041 -0.2237 -0.0911
  148DOPC  H12A17589   2.795   1.936   8.448  0.6786 -0.1449  0.0070
  148DOPC  H12B17590   2.773   1.770   8.404  0.8222  0.8303 -1.2030
  148DOPC   C1317591   2.776   1.928   8.716 -0.4741 -0.0003 -0.1805
  148DOPC  H13A17592   2.730   2.021   8.686  1.2340  0.8286 -0.3430
  148DOPC  H13B17593   2.758   1.893   8.816  2.2024 -2.9225 -0.5577
  148DOPC  H13C17594   2.882   1.951   8.709 -0.7146  1.2783  0.0498
  148DOPC   C1417595   2.759   1.679   8.678 -0.0018  0.9327 -0.3785
  148DOPC  H14A17596   2.714   1.600   8.620 -0.0981  1.9093 -1.7045
  148DOPC  H14B17597   2.856   1.637   8.698 -1.3255 -3.0319 -1.4495
  148DOPC  H14C17598   2.711   1.671   8.775  1.0259 -0.9788  0.0097
  148DOPC   C1517599   2.599   1.830   8.593  0.9020  0.0971 -0.1023
  148DOPC  H15A17600   2.558   1.744   8.542 -0.8921  0.9790 -0.2196
  148DOPC  H15B17601   2.575   1.912   8.527  0.2589 -1.2364 -1.5969
  148DOPC  H15C17602   2.531   1.854   8.673 -0.7926  2.7395 -2.1398
  148DOPC   C1117603   2.964   1.828   8.479  0.4137  0.9370 -0.3706
  148DOPC  H11A17604   2.994   1.728   8.516  0.1311  0.5833 -1.0706
  148DOPC  H11B17605   2.997   1.834   8.373  0.7415  0.3404 -0.3026
  148DOPC     P17606   3.027   2.079   8.505 -0.1013  0.1024  0.1924
  148DOPC   O1317607   3.123   2.155   8.586 -0.0962 -0.1513  0.8954
  148DOPC   O1417608   2.888   2.136   8.490  0.5606 -0.7477  0.3183
  148DOPC   O1217609   3.017   1.928   8.560 -0.2131 -0.3691  0.4225
  148DOPC   O1117610   3.092   2.064   8.360  0.0481 -0.0849 -0.3690
  148DOPC    C117611   3.227   2.029   8.333 -1.1802 -0.0053 -0.3439
  148DOPC    HA17612   3.251   1.922   8.348 -0.7614  0.1068 -0.2074
  148DOPC    HB17613   3.290   2.078   8.410  0.5737 -0.0692 -1.6601
  148DOPC    C217614   3.279   2.061   8.191  0.4598 -0.3276 -0.7298
  148DOPC    HS17615   3.390   2.061   8.177  0.3719 -0.4985 -1.4915
  148DOPC   O2117616   3.234   2.195   8.165  0.5314 -0.0108 -0.7802
  148DOPC   C2117617   3.278   2.296   8.243 -0.2171  0.0282  0.2389
  148DOPC   O2217618   3.379   2.299   8.313 -0.6625  0.3217 -0.9526
  148DOPC   C2217619   3.180   2.409   8.236  0.0674 -0.0206 -1.0967
  148DOPC   H2R17620   3.219   2.499   8.288  0.3951 -0.4087 -0.6645
  148DOPC   H2S17621   3.107   2.364   8.307  2.1100 -1.9123 -0.0720
  148DOPC    C317622   3.230   1.972   8.080 -0.0363  0.1848 -0.3178
  148DOPC    HX17623   3.121   1.991   8.095  0.2534  1.4753  0.3191
  148DOPC    HY17624   3.253   1.865   8.097 -0.6753  0.1232  0.1954
  148DOPC   O3117625   3.272   2.012   7.949 -0.2541 -0.2117 -0.1146
  148DOPC   C3117626   3.200   2.097   7.884  0.3788  0.3447  0.2187
  148DOPC   O3217627   3.097   2.148   7.930  0.0629  0.0186  0.3372
  148DOPC   C3217628   3.246   2.131   7.745  0.2636  0.3170 -0.2961
  148DOPC   H2X17629   3.353   2.156   7.757 -0.2807  1.5896  2.8348
  148DOPC   H2Y17630   3.233   2.037   7.687 -3.8140  0.4768  0.0767
  148DOPC   C2317631   3.113   2.439   8.101  0.4474 -0.6686  0.1351
  148DOPC   H3R17632   3.022   2.500   8.121 -0.2833 -1.2059 -1.3709
  148DOPC   H3S17633   3.090   2.351   8.036 -0.4203  0.1504 -0.7000
  148DOPC   C2417634   3.201   2.542   8.020  0.4130  0.0089  0.0679
  148DOPC   H4R17635   3.306   2.504   8.015  0.1950 -0.5938 -0.0137
  148DOPC   H4S17636   3.203   2.637   8.078  0.1647  1.3735 -2.0609
  148DOPC   C2517637   3.155   2.570   7.880  0.3183  0.3068  0.0053
  148DOPC   H5R17638   3.069   2.641   7.876 -0.1001 -0.2252 -0.5882
  148DOPC   H5S17639   3.110   2.475   7.843  1.5166 -1.1207  2.0128
  148DOPC   C2617640   3.259   2.617   7.778 -0.1993  0.4168 -0.8735
  148DOPC   H6R17641   3.316   2.525   7.750  0.4848 -0.0380  1.7080
  148DOPC   H6S17642   3.326   2.697   7.816  0.0457  0.4672 -1.3957
  148DOPC   C2717643   3.194   2.673   7.648  0.3777  0.2596  0.1290
  148DOPC   H7R17644   3.148   2.772   7.669  0.0993  0.6340 -2.0223
  148DOPC   H7S17645   3.108   2.611   7.615 -0.8547  1.4759  0.9464
  148DOPC   C2817646   3.297   2.680   7.544  0.0675  0.3105 -0.0381
  148DOPC   H8R17647   3.295   2.576   7.505  0.0963 -0.2599  1.4249
  148DOPC   H8S17648   3.400   2.694   7.584 -0.2665  1.4005  0.4596
  148DOPC   C2917649   3.275   2.781   7.435  0.4912 -0.3975 -0.4694
  148DOPC   H9R17650   3.265   2.886   7.466 -0.6955 -1.2966  2.5258
  148DOPC  C21017651   3.258   2.751   7.304 -0.1273 -0.3850  0.4402
  148DOPC  H10R17652   3.229   2.827   7.229  1.1623 -2.1828 -2.0489
  148DOPC  C21117653   3.261   2.612   7.251  0.1562  0.2919 -0.3448
  148DOPC  H11R17654   3.159   2.570   7.262 -0.9743  3.2896  1.7777
  148DOPC  H11S17655   3.328   2.547   7.312  1.9967  2.1842 -0.2400
  148DOPC  C21217656   3.311   2.600   7.105 -0.0253 -0.3776 -0.4139
  148DOPC  H12R17657   3.325   2.494   7.077  0.0532 -0.5191  0.1560
  148DOPC  H12S17658   3.403   2.658   7.080  1.0605 -2.5392 -1.7784
  148DOPC  C21317659   3.197   2.652   7.017 -0.3263  0.5014  0.3757
  148DOPC  H13R17660   3.162   2.749   7.058 -0.8352  1.1716 -1.5281
  148DOPC  H13S17661   3.111   2.582   7.013  0.4050 -0.3943 -0.0170
  148DOPC  C21417662   3.252   2.679   6.877 -0.3761  0.7444 -0.7393
  148DOPC  H14R17663   3.322   2.600   6.842  0.0393  0.9992 -0.4962
  148DOPC  H14S17664   3.305   2.777   6.885  1.4743 -0.1788 -1.2909
  148DOPC  C21517665   3.135   2.683   6.779  0.0028 -0.1298  0.1879
  148DOPC  H15R17666   3.057   2.745   6.828 -2.2258 -2.6878  0.0898
  148DOPC  H15S17667   3.083   2.585   6.778  1.9430 -1.2535 -2.0493
  148DOPC  C21617668   3.156   2.762   6.650 -0.5573  0.6391 -0.1451
  148DOPC  H16R17669   3.245   2.712   6.605  0.2574  0.3738  1.6759
  148DOPC  H16S17670   3.189   2.868   6.665  1.6459 -0.1397  0.9821
  148DOPC  C21717671   3.048   2.750   6.542  0.0643  0.1086 -0.2651
  148DOPC  H17R17672   3.053   2.642   6.518  1.9184 -0.0563  0.7161
  148DOPC  H17S17673   3.090   2.809   6.458  1.1193  0.7645  0.6934
  148DOPC  C21817674   2.914   2.812   6.595  0.2540  0.4367 -0.5399
  148DOPC  H18R17675   2.856   2.833   6.503  0.9356  2.5474 -0.5299
  148DOPC  H18S17676   2.928   2.914   6.636 -2.1346  0.2225  1.0020
  148DOPC  H18T17677   2.858   2.753   6.671 -1.2914  1.1204 -1.1050
  148DOPC   C3317678   3.166   2.234   7.670  1.1990 -0.6463 -0.1460
  148DOPC   H3X17679   3.171   2.332   7.722 -1.9995  1.0706 -2.6930
  148DOPC   H3Y17680   3.058   2.209   7.664  0.6235  1.5041  0.3305
  148DOPC   C3417681   3.226   2.269   7.528  0.0110 -0.3330 -0.0372
  148DOPC   H4X17682   3.337   2.274   7.535  0.0299  0.6148 -0.7936
  148DOPC   H4Y17683   3.187   2.372   7.514 -4.3039 -1.7831 -0.1266
  148DOPC   C3517684   3.198   2.167   7.415  1.1474  0.0901 -0.3778
  148DOPC   H5X17685   3.090   2.151   7.399  0.5906  2.8233  0.1979
  148DOPC   H5Y17686   3.235   2.070   7.455 -1.6711 -1.3235 -0.9871
  148DOPC   C3617687   3.261   2.215   7.283 -0.1370 -0.0694 -0.1397
  148DOPC   H6X17688   3.236   2.320   7.257  0.2840  0.2621  0.7476
  148DOPC   H6Y17689   3.368   2.232   7.309 -0.6742 -0.5417  2.6588
  148DOPC   C3717690   3.237   2.121   7.162 -0.5380  0.6003  0.2381
  148DOPC   H7X17691   3.307   2.035   7.174  1.6140  2.2454  0.0464
  148DOPC   H7Y17692   3.138   2.071   7.172  0.4032 -1.4071  0.0371
  148DOPC   C3817693   3.242   2.186   7.023 -0.2797 -0.9971  0.4443
  148DOPC   H8X17694   3.346   2.219   7.001 -0.6223  1.7701  2.4024
  148DOPC   H8Y17695   3.188   2.282   7.029  2.0345  0.3845  0.1819
  148DOPC   C3917696   3.210   2.094   6.905  0.1668 -0.5237 -0.7721
  148DOPC   H9X17697   3.179   1.995   6.940  1.9783 -0.8112  0.1375
  148DOPC  C31017698   3.181   2.125   6.780  0.0874  0.3596  1.1371
  148DOPC  H10X17699   3.135   2.044   6.722 -1.4278  1.8042  0.2432
  148DOPC  C31117700   3.201   2.262   6.716  0.0280 -0.4742  0.2367
  148DOPC  H11X17701   3.231   2.342   6.787  2.7778 -1.5188  0.3475
  148DOPC  H11Y17702   3.100   2.289   6.677  0.9629  0.7797 -1.4657
  148DOPC  C31217703   3.310   2.260   6.611  0.2698  0.0799  0.7658
  148DOPC  H12X17704   3.276   2.180   6.543  0.6013 -0.0058  0.7002
  148DOPC  H12Y17705   3.411   2.231   6.648  0.7194  0.9478  0.2363
  148DOPC  C31317706   3.321   2.398   6.533  0.1648  0.2451  0.0240
  148DOPC  H13X17707   3.223   2.439   6.503 -0.7934 -0.8393  1.5198
  148DOPC  H13Y17708   3.359   2.466   6.613 -2.8435 -1.3248  3.0606
  148DOPC  C31417709   3.421   2.394   6.418  0.7132  0.3074  0.3361
  148DOPC  H14X17710   3.526   2.377   6.450  1.4540  2.4702 -0.7316
  148DOPC  H14Y17711   3.397   2.315   6.344  1.4271  1.7489 -1.5064
  148DOPC  C31517712   3.418   2.534   6.343  0.3641  0.8705  0.6532
  148DOPC  H15X17713   3.414   2.620   6.413 -3.4605  1.6831 -0.3197
  148DOPC  H15Y17714   3.323   2.540   6.287  1.3671 -0.5674 -1.3168
  148DOPC  C31617715   3.536   2.553   6.248 -0.5467 -0.7928 -0.0124
  148DOPC  H16X17716   3.629   2.544   6.308  0.0520 -3.1541 -1.1373
  148DOPC  H16Y17717   3.542   2.475   6.169 -0.0054  0.7227 -1.5314
  148DOPC  C31717718   3.521   2.693   6.178 -0.2597 -0.8336  0.3645
  148DOPC  H17X17719   3.428   2.703   6.118 -0.6629  0.5359  1.1764
  148DOPC  H17Y17720   3.514   2.773   6.254 -0.4140  0.0423 -0.5453
  148DOPC  C31817721   3.644   2.733   6.087  0.2518 -0.3598 -0.1477
  148DOPC  H18X17722   3.662   2.645   6.021 -0.5479 -0.5003 -0.1870
  148DOPC  H18Y17723   3.626   2.823   6.024 -0.4729 -0.8306 -0.6235
  148DOPC  H18Z17724   3.730   2.748   6.156 -0.1797  0.4308  0.2288
  149DOPC     N17725   3.298   5.139   9.345  0.1325 -0.3472 -0.3289
  149DOPC   C1217726   3.257   5.014   9.417 -0.7128  0.2665  0.4390
  149DOPC  H12A17727   3.279   5.011   9.522  1.0056 -0.8305  0.0895
  149DOPC  H12B17728   3.333   4.945   9.383 -0.3464  0.1934  1.3878
  149DOPC   C1317729   3.450   5.159   9.363  0.1651 -0.6750 -0.0588
  149DOPC  H13A17730   3.488   5.156   9.464 -0.0508 -2.1762  0.0025
  149DOPC  H13B17731   3.503   5.079   9.314  2.1572  1.7531 -2.1776
  149DOPC  H13C17732   3.478   5.250   9.312 -0.5188  0.1699  1.0184
  149DOPC   C1417733   3.224   5.253   9.412  0.0403 -0.2837  0.0296
  149DOPC  H14A17734   3.254   5.348   9.368 -0.4720  0.4594  1.2299
  149DOPC  H14B17735   3.119   5.232   9.396 -0.0221 -0.5411  0.7466
  149DOPC  H14C17736   3.235   5.259   9.519  0.9986  1.6198 -0.1176
  149DOPC   C1517737   3.266   5.138   9.202 -0.3760  0.1993  0.2372
  149DOPC  H15A17738   3.269   5.238   9.160 -0.1906  1.1517  2.3763
  149DOPC  H15B17739   3.164   5.111   9.182 -0.9898  2.3763  0.1620
  149DOPC  H15C17740   3.322   5.068   9.143  0.4613  1.3190 -0.3511
  149DOPC   C1117741   3.113   4.953   9.383 -0.6609 -0.0748 -0.1154
  149DOPC  H11A17742   3.118   4.922   9.276 -0.0891 -1.2214  0.2261
  149DOPC  H11B17743   3.099   4.859   9.440  0.6017 -0.0396  0.2839
  149DOPC     P17744   2.904   5.086   9.313 -0.2106 -0.4348  0.1163
  149DOPC   O1317745   2.891   5.232   9.327 -0.0722 -0.3639  0.0106
  149DOPC   O1417746   2.781   5.001   9.317  0.1763 -0.2078  0.0406
  149DOPC   O1217747   3.007   5.041   9.419  0.0122  0.0753 -0.0391
  149DOPC   O1117748   2.968   5.070   9.173  0.6360  0.4419 -0.8788
  149DOPC    C117749   2.877   5.049   9.065 -0.2889 -0.8889  0.0237
  149DOPC    HA17750   2.806   5.133   9.050  0.3868 -0.0266  1.3828
  149DOPC    HB17751   2.815   4.959   9.083  0.1861 -1.6260 -1.7917
  149DOPC    C217752   2.961   5.024   8.935 -0.4802  0.0728 -0.1661
  149DOPC    HS17753   3.035   4.945   8.960 -0.4866  0.3619  0.8117
  149DOPC   O2117754   3.017   5.149   8.901  0.0907  0.1419  0.3283
  149DOPC   C2117755   3.141   5.135   8.867  0.1850  0.2266  0.5198
  149DOPC   O2217756   3.204   5.032   8.847  0.5147  0.3797 -0.1446
  149DOPC   C2217757   3.195   5.274   8.814 -0.1125  0.6746 -0.4992
  149DOPC   H2R17758   3.303   5.279   8.837 -0.5617 -2.2065  3.2308
  149DOPC   H2S17759   3.142   5.352   8.874  0.6247  0.3205  0.6312
  149DOPC    C317760   2.870   4.983   8.814 -0.2869 -0.4728  0.0007
  149DOPC    HX17761   2.796   5.062   8.791  0.0857  0.2330  1.1106
  149DOPC    HY17762   2.813   4.891   8.841  2.5331 -2.0310  1.1308
  149DOPC   O3117763   2.935   4.958   8.689  0.1083 -0.6129  0.4060
  149DOPC   C3117764   2.997   4.845   8.681  0.2566  0.5663  0.2517
  149DOPC   O3217765   3.004   4.758   8.768  0.3802 -0.0556  0.6232
  149DOPC   C3217766   3.060   4.825   8.541 -0.3128 -0.0546  0.2182
  149DOPC   H2X17767   3.142   4.900   8.535 -0.7426  0.5713  1.7089
  149DOPC   H2Y17768   3.095   4.719   8.542 -0.2905 -0.0444  0.6928
  149DOPC   C2317769   3.169   5.302   8.665  0.6481  0.3103  0.4551
  149DOPC   H3R17770   3.232   5.224   8.617 -0.9816  0.0909 -1.4313
  149DOPC   H3S17771   3.217   5.398   8.639  2.1804 -0.4831  0.2375
  149DOPC   C2417772   3.019   5.311   8.619  0.1899 -0.2381  1.1417
  149DOPC   H4R17773   2.975   5.404   8.662  1.2521  1.7668 -1.8276
  149DOPC   H4S17774   2.961   5.225   8.661  1.8564 -1.3986  1.1599
  149DOPC   C2517775   2.991   5.310   8.466  0.0550  0.0810 -0.3383
  149DOPC   H5R17776   2.986   5.419   8.445 -3.0896  0.1228  0.0919
  149DOPC   H5S17777   2.888   5.277   8.441 -0.1154 -0.3944  0.9512
  149DOPC   C2617778   3.090   5.238   8.375  0.6203  0.3950  0.3513
  149DOPC   H6R17779   3.123   5.142   8.419  1.9233  0.3889 -0.5856
  149DOPC   H6S17780   3.180   5.301   8.364  0.6077  0.2439 -0.7357
  149DOPC   C2717781   3.036   5.210   8.236  0.4592  1.0766 -0.1588
  149DOPC   H7R17782   2.952   5.280   8.214  0.7633  0.9789 -1.7945
  149DOPC   H7S17783   2.993   5.109   8.221  1.2670  0.9793 -2.1869
  149DOPC   C2817784   3.153   5.230   8.136 -0.3774 -0.2225  0.4317
  149DOPC   H8R17785   3.188   5.335   8.149  0.3730 -0.4998  0.7307
  149DOPC   H8S17786   3.109   5.221   8.035  0.2018  1.4951 -0.0019
  149DOPC   C2917787   3.266   5.137   8.132  0.5511 -0.0407  0.1321
  149DOPC   H9R17788   3.352   5.176   8.188 -0.0045  2.3337 -0.5531
  149DOPC  C21017789   3.280   5.020   8.060  0.9256 -0.3174  0.7611
  149DOPC  H10R17790   3.371   4.960   8.071  0.6409 -1.0007 -0.4995
  149DOPC  C21117791   3.176   4.950   7.973 -0.1932  0.4349 -0.2343
  149DOPC  H11R17792   3.080   4.987   8.013  0.0043  1.2316 -0.4865
  149DOPC  H11S17793   3.169   4.839   7.976  1.8026  0.2838  2.1154
  149DOPC  C21217794   3.191   4.984   7.822  0.3630 -0.0980 -0.8864
  149DOPC  H12R17795   3.245   5.079   7.802  1.0424 -0.4905 -0.9384
  149DOPC  H12S17796   3.089   4.980   7.779 -0.5841 -3.6054  1.2743
  149DOPC  C21317797   3.272   4.885   7.746  0.2664  0.2838 -0.7812
  149DOPC  H13R17798   3.248   4.779   7.767 -0.5936  0.5102 -0.6030
  149DOPC  H13S17799   3.380   4.890   7.774 -0.0640 -1.9026  1.1753
  149DOPC  C21417800   3.275   4.916   7.590 -0.0112  0.0980 -0.3099
  149DOPC  H14R17801   3.308   5.020   7.573 -2.5665  1.3850  1.7454
  149DOPC  H14S17802   3.167   4.910   7.562 -0.2334 -1.6950  0.7226
  149DOPC  C21517803   3.357   4.820   7.513  0.2442  0.7236  0.3838
  149DOPC  H15R17804   3.322   4.715   7.505  0.0768  0.9176 -3.1129
  149DOPC  H15S17805   3.458   4.837   7.556  0.1453  0.3196  0.7730
  149DOPC  C21617806   3.359   4.864   7.366  0.1128 -0.0259  0.1004
  149DOPC  H16R17807   3.414   4.960   7.356  1.0708 -0.5490  0.2159
  149DOPC  H16S17808   3.255   4.871   7.326  0.7450 -1.2468 -1.8939
  149DOPC  C21717809   3.424   4.759   7.268 -0.1846  0.0625 -0.1069
  149DOPC  H17R17810   3.415   4.654   7.304 -1.2248 -0.0875 -0.7718
  149DOPC  H17S17811   3.535   4.760   7.261 -0.1323 -1.3450  0.2714
  149DOPC  C21817812   3.369   4.763   7.123 -0.2197 -0.3066 -0.4809
  149DOPC  H18R17813   3.258   4.761   7.117 -0.1564 -0.5348 -1.8851
  149DOPC  H18S17814   3.394   4.674   7.062 -2.4290  0.2667 -2.3630
  149DOPC  H18T17815   3.407   4.852   7.068  3.0457 -0.9399  0.5301
  149DOPC   C3317816   2.958   4.865   8.434  0.0881 -0.5557 -0.1273
  149DOPC   H3X17817   2.961   4.974   8.415 -1.2067 -0.7812 -1.8486
  149DOPC   H3Y17818   2.851   4.839   8.451  0.1736 -1.1031 -0.4044
  149DOPC   C3417819   3.007   4.811   8.301  0.0562 -0.3143  0.1430
  149DOPC   H4X17820   3.116   4.810   8.321 -0.2212 -0.6034  1.7829
  149DOPC   H4Y17821   2.972   4.876   8.218 -0.6787 -0.2693  0.4868
  149DOPC   C3517822   2.952   4.673   8.280  1.0574 -0.4748 -0.2740
  149DOPC   H5X17823   2.845   4.665   8.307  1.1634 -1.8291 -0.1614
  149DOPC   H5Y17824   3.007   4.598   8.342  1.6154  1.1486  1.2732
  149DOPC   C3617825   2.960   4.619   8.131 -0.2303 -0.0472  0.5618
  149DOPC   H6X17826   2.891   4.668   8.058 -0.7443 -0.9211  0.4521
  149DOPC   H6Y17827   3.066   4.633   8.102 -0.0986 -1.9451  0.0360
  149DOPC   C3717828   2.921   4.472   8.128 -0.4192 -0.3628 -0.7326
  149DOPC   H7X17829   2.964   4.411   8.210  0.1339 -1.2761 -1.6711
  149DOPC   H7Y17830   2.813   4.481   8.153 -0.7400 -0.8121 -1.9066
  149DOPC   C3817831   2.944   4.395   8.003  0.4989  0.9360 -0.2319
  149DOPC   H8X17832   2.853   4.402   7.940  0.9340  1.2829 -0.8390
  149DOPC   H8Y17833   2.952   4.285   8.016 -3.6650  0.7487  2.2791
  149DOPC   C3917834   3.062   4.437   7.918 -0.1238 -0.3435 -0.3395
  149DOPC   H9X17835   3.159   4.396   7.951  1.4403  2.0815 -1.6895
  149DOPC  C31017836   3.068   4.521   7.814 -0.0840 -0.1463  0.3065
  149DOPC  H10X17837   3.159   4.540   7.755 -1.0803  0.6427 -1.0520
  149DOPC  C31117838   2.948   4.586   7.753 -0.6194 -0.0352  0.5539
  149DOPC  H11X17839   2.972   4.694   7.747  2.0407 -0.5037  1.5959
  149DOPC  H11Y17840   2.856   4.571   7.814 -1.9501 -3.2737 -1.9121
  149DOPC  C31217841   2.918   4.510   7.621  0.7199 -0.4200  0.1619
  149DOPC  H12X17842   2.816   4.534   7.584  1.5841  1.2258 -1.2452
  149DOPC  H12Y17843   2.925   4.401   7.643  0.9214 -0.4155  0.1190
  149DOPC  C31317844   3.022   4.542   7.506  0.2646 -0.1740 -0.4629
  149DOPC  H13X17845   3.031   4.653   7.503  1.4763 -0.2278  0.3927
  149DOPC  H13Y17846   3.121   4.511   7.546 -0.8570 -1.4812  1.4684
  149DOPC  C31417847   2.999   4.467   7.377 -0.0552  0.1262 -0.8443
  149DOPC  H14X17848   2.997   4.358   7.398 -2.9249  0.2890  0.0904
  149DOPC  H14Y17849   2.895   4.493   7.349  0.1315 -0.4197 -2.1225
  149DOPC  C31517850   3.094   4.506   7.269  0.6853 -0.3277 -0.2271
  149DOPC  H15X17851   3.201   4.507   7.301  0.9758  1.6747 -1.1583
  149DOPC  H15Y17852   3.070   4.612   7.246 -0.6023 -0.0910  1.9066
  149DOPC  C31617853   3.080   4.425   7.144  0.6098  0.2117 -0.9119
  149DOPC  H16X17854   3.118   4.324   7.171  0.8256  0.6555  0.4970
  149DOPC  H16Y17855   2.981   4.421   7.095  0.5370 -1.0909 -0.6882
  149DOPC  C31717856   3.168   4.471   7.025 -0.5311 -1.1903 -1.1578
  149DOPC  H17X17857   3.136   4.568   6.982  1.8770  0.6790  0.8955
  149DOPC  H17Y17858   3.274   4.482   7.058 -0.0951 -2.1899 -2.1597
  149DOPC  C31817859   3.182   4.365   6.912 -0.3357 -0.2650  0.4204
  149DOPC  H18X17860   3.259   4.398   6.840 -0.5718  0.3429  0.4429
  149DOPC  H18Y17861   3.218   4.269   6.955  0.6866 -1.0521 -2.0204
  149DOPC  H18Z17862   3.085   4.354   6.859 -0.2752 -2.2046  0.6276
  150DOPC     N17863   6.227   6.586   9.123  0.6525  0.1612  0.4090
  150DOPC   C1217864   6.099   6.574   9.041 -0.0701 -0.0542  0.0241
  150DOPC  H12A17865   6.011   6.569   9.102 -0.4943  1.6821 -0.3946
  150DOPC  H12B17866   6.113   6.482   8.985  3.0249  0.6712 -0.6115
  150DOPC   C1317867   6.244   6.726   9.166  0.9826  0.6790 -0.2535
  150DOPC  H13A17868   6.250   6.789   9.079 -0.4245  1.5071  0.2143
  150DOPC  H13B17869   6.180   6.751   9.250  0.9284  0.7429 -0.3138
  150DOPC  H13C17870   6.342   6.736   9.210  0.1183 -0.4158  2.1329
  150DOPC   C1417871   6.350   6.541   9.041  0.3801 -0.3335 -0.0950
  150DOPC  H14A17872   6.344   6.434   9.022  2.8452 -0.3057 -1.4300
  150DOPC  H14B17873   6.356   6.591   8.945  0.3363 -1.2798 -0.6068
  150DOPC  H14C17874   6.443   6.560   9.093 -0.3468 -0.8836  1.4755
  150DOPC   C1517875   6.229   6.491   9.240 -0.4611 -0.8298 -0.1587
  150DOPC  H15A17876   6.330   6.475   9.276  0.5944  3.5093 -0.6711
  150DOPC  H15B17877   6.196   6.393   9.209  0.0596 -0.9597 -0.3162
  150DOPC  H15C17878   6.171   6.529   9.322 -2.5510  0.9966 -2.3255
  150DOPC   C1117879   6.063   6.682   8.929 -0.0985  0.1208 -1.0033
  150DOPC  H11A17880   5.958   6.658   8.901 -1.0303 -0.5542  2.5900
  150DOPC  H11B17881   6.072   6.781   8.979  4.3133 -0.7078  0.2030
  150DOPC     P17882   6.144   6.568   8.712 -0.2892 -0.2861  0.2112
  150DOPC   O1317883   6.067   6.452   8.766  0.5922  0.8262 -0.7943
  150DOPC   O1417884   6.289   6.541   8.676 -0.2438 -0.7139  0.0696
  150DOPC   O1217885   6.153   6.689   8.816  0.2198 -0.5069 -0.2536
  150DOPC   O1117886   6.075   6.637   8.589  0.0317 -0.0500 -0.2301
  150DOPC    C117887   5.993   6.567   8.500 -0.3807 -0.3737  0.1093
  150DOPC    HA17888   5.905   6.632   8.483  2.1394  3.1182 -0.7555
  150DOPC    HB17889   5.947   6.475   8.541  1.6051 -0.5278  2.2234
  150DOPC    C217890   6.057   6.549   8.354 -1.0889 -0.3287  0.2084
  150DOPC    HS17891   6.150   6.489   8.360 -0.6290  0.3151 -0.3210
  150DOPC   O2117892   6.070   6.678   8.300  0.2837  0.7682  0.0088
  150DOPC   C2117893   6.175   6.684   8.219  0.0528 -0.6118  0.1151
  150DOPC   O2217894   6.261   6.601   8.196  0.6821  0.0567  0.6407
  150DOPC   C2217895   6.164   6.825   8.145 -0.2563  0.0006 -0.6616
  150DOPC   H2R17896   6.170   6.901   8.226 -0.1878 -0.4970 -0.1949
  150DOPC   H2S17897   6.065   6.821   8.094 -0.9321 -0.4555  0.6280
  150DOPC    C317898   5.953   6.464   8.265  0.4170 -0.1353  0.0625
  150DOPC    HX17899   5.861   6.525   8.250 -0.1192 -1.2147 -1.2470
  150DOPC    HY17900   5.930   6.363   8.307 -1.1753  0.1449 -0.0571
  150DOPC   O3117901   6.003   6.445   8.126  0.8510  0.0192 -0.3806
  150DOPC   C3117902   6.091   6.352   8.111  0.1713  0.7774 -0.2771
  150DOPC   O3217903   6.127   6.280   8.204  0.2480  0.5372  0.3770
  150DOPC   C3217904   6.135   6.338   7.965 -0.0062 -0.2840  0.1820
  150DOPC   H2X17905   6.047   6.298   7.909  0.6740  0.9052 -1.8266
  150DOPC   H2Y17906   6.147   6.440   7.924 -0.1536 -0.8578 -1.3443
  150DOPC   C2317907   6.285   6.848   8.049 -0.1614 -0.3608 -0.2543
  150DOPC   H3R17908   6.380   6.815   8.095 -0.9701 -3.3832 -0.5137
  150DOPC   H3S17909   6.284   6.956   8.022 -1.4809  0.1394  1.5196
  150DOPC   C2417910   6.286   6.766   7.916  0.1296 -0.0716  0.2862
  150DOPC   H4R17911   6.185   6.760   7.871  1.6040 -2.1130 -3.1530
  150DOPC   H4S17912   6.313   6.660   7.936  0.5976 -0.0888 -0.4105
  150DOPC   C2517913   6.386   6.819   7.812  0.4736  0.9119 -0.4206
  150DOPC   H5R17914   6.483   6.844   7.861  0.6556  0.2856 -0.4415
  150DOPC   H5S17915   6.335   6.909   7.773  0.1321  0.1410 -1.8169
  150DOPC   C2617916   6.400   6.718   7.693 -0.3934  0.1514 -0.3672
  150DOPC   H6R17917   6.448   6.625   7.729  1.2533  1.4657  1.0344
  150DOPC   H6S17918   6.467   6.769   7.620 -1.0969  1.3119 -0.2276
  150DOPC   C2717919   6.278   6.702   7.606 -0.8269  0.3257 -0.4534
  150DOPC   H7R17920   6.233   6.803   7.598 -0.3325  0.5857 -0.0185
  150DOPC   H7S17921   6.217   6.623   7.656 -1.5445  0.1324 -1.6031
  150DOPC   C2817922   6.306   6.664   7.461  0.2757  0.2131 -0.2182
  150DOPC   H8R17923   6.358   6.567   7.475  1.1732  1.0839  4.1661
  150DOPC   H8S17924   6.382   6.731   7.414 -1.2392  1.8033 -0.5008
  150DOPC   C2917925   6.185   6.651   7.370  0.2019 -1.4812 -0.5220
  150DOPC   H9R17926   6.108   6.602   7.432 -0.6085  0.7465  0.3457
  150DOPC  C21017927   6.166   6.707   7.251  0.7430  0.5497  0.1913
  150DOPC  H10R17928   6.063   6.706   7.212  0.7125  0.9045  0.2553
  150DOPC  C21117929   6.255   6.791   7.174  0.6387  0.0390  0.7298
  150DOPC  H11R17930   6.339   6.827   7.237  0.8073 -0.9573  1.0847
  150DOPC  H11S17931   6.189   6.879   7.161 -0.4714 -0.8665  0.0588
  150DOPC  C21217932   6.309   6.737   7.039  0.1468 -0.1396 -0.6450
  150DOPC  H12R17933   6.390   6.661   7.041 -0.6076 -0.9399  1.0333
  150DOPC  H12S17934   6.348   6.831   6.995  1.0657 -0.0521  0.3388
  150DOPC  C21317935   6.203   6.686   6.939 -0.2151  0.1342  0.1707
  150DOPC  H13R17936   6.137   6.770   6.909  1.2447  1.7503  1.2607
  150DOPC  H13S17937   6.131   6.614   6.983 -0.3934  1.3282  1.9536
  150DOPC  C21417938   6.265   6.632   6.805  0.3349 -0.6181  0.7191
  150DOPC  H14R17939   6.186   6.579   6.747 -0.3637  1.6862 -0.5396
  150DOPC  H14S17940   6.354   6.566   6.817  0.6099 -0.0252  2.0995
  150DOPC  C21517941   6.315   6.739   6.707  0.2923 -0.4758 -0.4858
  150DOPC  H15R17942   6.384   6.795   6.773  2.0327 -2.2002 -0.7474
  150DOPC  H15S17943   6.235   6.802   6.662  0.3924 -0.7542 -1.0696
  150DOPC  C21617944   6.409   6.701   6.594  0.4586  0.3885  0.0217
  150DOPC  H16R17945   6.484   6.633   6.640 -1.3338 -1.1980  0.7529
  150DOPC  H16S17946   6.447   6.796   6.552  1.1967 -0.4207 -1.2142
  150DOPC  C21717947   6.336   6.642   6.467 -0.9484 -0.1206  0.2055
  150DOPC  H17R17948   6.260   6.716   6.433 -0.5254  0.6586  0.9231
  150DOPC  H17S17949   6.282   6.552   6.505 -1.7093  0.3990  0.3898
  150DOPC  C21817950   6.426   6.606   6.349  0.0848 -0.0353  0.2499
  150DOPC  H18R17951   6.501   6.527   6.369  0.6424  0.6429  0.8718
  150DOPC  H18S17952   6.465   6.702   6.308  0.0802  0.1577  0.6962
  150DOPC  H18T17953   6.361   6.555   6.274  0.8647 -2.2955  1.0228
  150DOPC   C3317954   6.245   6.236   7.950 -0.4763  0.2084 -0.1362
  150DOPC   H3X17955   6.198   6.142   7.985 -1.0896  1.2559  2.0203
  150DOPC   H3Y17956   6.329   6.265   8.016 -1.7877  1.3459  1.0898
  150DOPC   C3417957   6.300   6.210   7.807  0.5958  0.3085 -0.0987
  150DOPC   H4X17958   6.370   6.126   7.826 -1.5459 -1.1549  1.9480
  150DOPC   H4Y17959   6.347   6.300   7.763  0.9332 -0.0251 -0.4242
  150DOPC   C3517960   6.191   6.141   7.719  0.0508 -0.7529 -0.7732
  150DOPC   H5X17961   6.115   6.221   7.709  0.4538 -0.2142  0.3461
  150DOPC   H5Y17962   6.155   6.053   7.777  0.5007 -1.7717 -2.0000
  150DOPC   C3617963   6.241   6.099   7.583 -0.0348  0.1419  0.6784
  150DOPC   H6X17964   6.313   6.017   7.599 -1.3114 -1.5458 -1.6950
  150DOPC   H6Y17965   6.153   6.070   7.522 -0.4353  1.2751  0.6810
  150DOPC   C3717966   6.314   6.213   7.509  0.1281  1.2566 -0.4334
  150DOPC   H7X17967   6.249   6.299   7.484 -0.7376  0.7191 -0.1079
  150DOPC   H7Y17968   6.411   6.246   7.552 -0.2090  3.4075 -1.2177
  150DOPC   C3817969   6.360   6.158   7.369 -0.3438  0.2371 -0.0220
  150DOPC   H8X17970   6.422   6.068   7.387  1.7332  1.2085 -1.9039
  150DOPC   H8Y17971   6.431   6.223   7.313  1.1198 -0.3318  1.0957
  150DOPC   C3917972   6.243   6.137   7.274 -0.3630 -0.4553  0.3361
  150DOPC   H9X17973   6.165   6.066   7.304 -0.8514  1.2160  3.4400
  150DOPC  C31017974   6.218   6.214   7.165 -0.0727 -0.7545 -0.1869
  150DOPC  H10X17975   6.128   6.205   7.103  1.5907  1.0606 -3.1175
  150DOPC  C31117976   6.297   6.334   7.127 -0.6274  0.2365  0.3362
  150DOPC  H11X17977   6.325   6.408   7.205  1.4308  2.1772 -2.0855
  150DOPC  H11Y17978   6.232   6.385   7.053  0.5172  3.5220  1.4193
  150DOPC  C31217979   6.424   6.308   7.038 -0.2880 -0.5348 -0.5241
  150DOPC  H12X17980   6.510   6.264   7.092 -0.8760  0.5192  1.3337
  150DOPC  H12Y17981   6.460   6.408   7.006 -2.3001  0.1807 -0.7495
  150DOPC  C31317982   6.378   6.235   6.910 -0.0343 -0.2464  0.4381
  150DOPC  H13X17983   6.351   6.133   6.944  0.0928 -0.8946 -1.3017
  150DOPC  H13Y17984   6.290   6.292   6.874  0.0503 -0.1238  0.4254
  150DOPC  C31417985   6.478   6.236   6.795  0.7018 -0.0964 -0.1931
  150DOPC  H14X17986   6.491   6.341   6.759  2.5343 -0.4579 -0.6483
  150DOPC  H14Y17987   6.581   6.196   6.802  0.6290 -0.5697 -1.6187
  150DOPC  C31517988   6.420   6.157   6.677  0.9876  0.4117  0.0199
  150DOPC  H15X17989   6.332   6.215   6.641  0.7880 -0.3691 -0.7651
  150DOPC  H15Y17990   6.392   6.054   6.706  2.3822 -0.0070 -0.0550
  150DOPC  C31617991   6.520   6.150   6.559  0.1367  0.1898 -0.4786
  150DOPC  H16X17992   6.570   6.248   6.549  0.1647  0.3941  1.3740
  150DOPC  H16Y17993   6.605   6.079   6.568 -0.4838 -0.7115 -1.5467
  150DOPC  C31717994   6.451   6.109   6.426  0.6592 -0.3839  0.4794
  150DOPC  H17X17995   6.373   6.186   6.407  0.9957  0.1343  1.1558
  150DOPC  H17Y17996   6.527   6.106   6.345  1.5710  5.1689  0.7299
  150DOPC  C31817997   6.379   5.974   6.432  0.3879 -0.3821  0.2005
  150DOPC  H18X17998   6.310   5.974   6.519 -0.7761 -0.2084 -0.7105
  150DOPC  H18Y17999   6.324   5.951   6.339 -2.7022  4.0954  0.6067
  150DOPC  H18Z18000   6.453   5.892   6.447  0.3812 -0.1501  1.6573
  151DOPC     N18001   6.040   1.428   8.739  0.0938 -0.1842 -0.2134
  151DOPC   C1218002   6.126   1.313   8.683 -0.1312 -0.1901 -0.2168
  151DOPC  H12A18003   6.065   1.225   8.693 -0.4592 -0.1275 -1.5602
  151DOPC  H12B18004   6.215   1.307   8.745 -2.1719 -2.0207  2.7733
  151DOPC   C1318005   6.119   1.549   8.738 -0.0088  0.8749 -0.0090
  151DOPC  H13A18006   6.120   1.591   8.638  1.1129 -0.0219 -0.4022
  151DOPC  H13B18007   6.070   1.630   8.789  0.3006  0.3063  1.2155
  151DOPC  H13C18008   6.222   1.524   8.759  0.4830 -1.2246 -3.9158
  151DOPC   C1418009   5.999   1.392   8.879  0.3262  0.1957  0.2328
  151DOPC  H14A18010   5.927   1.312   8.876  1.5634 -1.0537  2.3999
  151DOPC  H14B18011   6.081   1.358   8.940  0.1534 -1.2500 -0.3028
  151DOPC  H14C18012   5.957   1.477   8.931 -1.8990 -0.7641  0.1303
  151DOPC   C1518013   5.916   1.433   8.656 -0.1287 -0.1367 -0.2694
  151DOPC  H15A18014   5.841   1.501   8.695 -0.4710  0.2946 -1.6287
  151DOPC  H15B18015   5.878   1.332   8.665 -1.3680  0.3773  0.6663
  151DOPC  H15C18016   5.928   1.453   8.551  0.3950  1.9889  0.1464
  151DOPC   C1118017   6.174   1.321   8.542  0.6596 -0.0195  0.6360
  151DOPC  H11A18018   6.216   1.222   8.513  2.6638  1.0445 -0.2987
  151DOPC  H11B18019   6.093   1.338   8.468  2.1825  1.5017 -0.8035
  151DOPC     P18020   6.426   1.384   8.558 -0.3462 -0.1005  0.0791
  151DOPC   O1318021   6.428   1.329   8.693  0.2588 -0.3807 -0.3011
  151DOPC   O1418022   6.495   1.503   8.539 -0.3075  0.1244  0.3645
  151DOPC   O1218023   6.276   1.420   8.524  0.0687 -0.1421 -0.5344
  151DOPC   O1118024   6.466   1.268   8.463  0.0826  0.4236  0.5005
  151DOPC    C118025   6.450   1.283   8.319 -0.6576  0.3783 -0.8006
  151DOPC    HA18026   6.385   1.369   8.294 -0.9700  0.2125 -0.5661
  151DOPC    HB18027   6.402   1.190   8.282 -0.8682  0.9977 -2.1469
  151DOPC    C218028   6.577   1.295   8.231 -0.0718 -0.7226 -0.3586
  151DOPC    HS18029   6.608   1.401   8.245 -0.8438 -0.6949  1.3953
  151DOPC   O2118030   6.530   1.264   8.100  0.3482 -0.1667  0.4128
  151DOPC   C2118031   6.586   1.337   7.999 -0.4633 -0.2410  0.0715
  151DOPC   O2218032   6.678   1.420   8.016  0.7467  0.0439 -0.1316
  151DOPC   C2218033   6.521   1.307   7.864  0.0012  0.0685 -0.6284
  151DOPC   H2R18034   6.444   1.385   7.849  0.4479  0.3950 -1.2576
  151DOPC   H2S18035   6.479   1.204   7.865 -1.0002  0.4270 -2.2120
  151DOPC    C318036   6.696   1.204   8.268  0.1830  0.5560  0.3654
  151DOPC    HX18037   6.656   1.105   8.299  0.8290  0.2888  0.3743
  151DOPC    HY18038   6.743   1.240   8.362 -0.9829 -0.7693  1.4925
  151DOPC   O3118039   6.796   1.186   8.163  0.0170 -0.2529 -0.2214
  151DOPC   C3118040   6.903   1.269   8.163  0.1860  0.3123 -0.2925
  151DOPC   O3218041   6.923   1.354   8.252 -0.2628 -0.2608  0.1171
  151DOPC   C3218042   7.001   1.231   8.043  0.2622  0.0650 -0.3768
  151DOPC   H2X18043   7.078   1.311   8.029 -0.4241  1.0296  1.0514
  151DOPC   H2Y18044   7.060   1.144   8.077 -0.0144 -0.3669 -0.9942
  151DOPC   C2318045   6.615   1.321   7.745 -0.1111 -0.4353 -0.4187
  151DOPC   H3R18046   6.697   1.246   7.748  1.0171  0.7426 -0.7133
  151DOPC   H3S18047   6.664   1.420   7.736 -1.4825  0.4758  1.5317
  151DOPC   C2418048   6.543   1.313   7.614  0.4846  0.2576 -0.1955
  151DOPC   H4R18049   6.468   1.392   7.595  0.5558  0.3766  0.0133
  151DOPC   H4S18050   6.478   1.223   7.611 -0.9063  1.1921  0.7810
  151DOPC   C2518051   6.631   1.299   7.491 -0.1559  0.3212 -0.7243
  151DOPC   H5R18052   6.681   1.200   7.488  2.7985  1.7498 -2.1629
  151DOPC   H5S18053   6.707   1.379   7.496  0.0714  0.1441 -1.2991
  151DOPC   C2618054   6.546   1.325   7.366  0.9810  0.5658  0.7578
  151DOPC   H6R18055   6.513   1.431   7.363  2.9018  1.2421  1.7699
  151DOPC   H6S18056   6.459   1.256   7.364  1.1383  0.3274 -2.8525
  151DOPC   C2718057   6.634   1.289   7.242  0.1301  0.0529  0.0213
  151DOPC   H7R18058   6.638   1.178   7.237 -0.2231 -0.0571  1.5637
  151DOPC   H7S18059   6.731   1.342   7.250 -0.6789  1.4830  0.8500
  151DOPC   C2818060   6.575   1.348   7.108  0.4443 -0.4273  0.2452
  151DOPC   H8R18061   6.656   1.383   7.041  0.9277  1.1403  1.5731
  151DOPC   H8S18062   6.517   1.440   7.132  0.5417 -0.5206  0.8769
  151DOPC   C2918063   6.476   1.263   7.043  0.3640  1.3395  0.9975
  151DOPC   H9R18064   6.394   1.227   7.107  0.1870 -0.0242  0.0486
  151DOPC  C21018065   6.484   1.217   6.913 -0.2298  0.2184 -0.3000
  151DOPC  H10R18066   6.411   1.143   6.878  1.6429 -1.5221 -0.6975
  151DOPC  C21118067   6.589   1.262   6.813 -0.3100  0.4256 -0.6907
  151DOPC  H11R18068   6.645   1.173   6.777  2.2075  0.9630  1.5954
  151DOPC  H11S18069   6.664   1.325   6.865 -2.6133  1.2463  1.8734
  151DOPC  C21218070   6.524   1.341   6.701  0.0801  0.3598 -0.4311
  151DOPC  H12R18071   6.481   1.438   6.737 -0.3385  0.1242 -0.2933
  151DOPC  H12S18072   6.431   1.293   6.664  0.2018  1.5146 -2.3606
  151DOPC  C21318073   6.615   1.364   6.577  0.2572  0.1563 -0.3497
  151DOPC  H13R18074   6.653   1.267   6.539  0.1304 -0.2955  0.6458
  151DOPC  H13S18075   6.699   1.433   6.600  0.6958 -0.6530  0.5333
  151DOPC  C21418076   6.518   1.426   6.477 -0.9709  0.4937  0.5668
  151DOPC  H14R18077   6.501   1.532   6.504 -1.0217 -0.0078  2.6931
  151DOPC  H14S18078   6.426   1.364   6.473 -2.0488  1.8478  2.8330
  151DOPC  C21518079   6.585   1.433   6.338  0.0726 -0.1985 -0.2761
  151DOPC  H15R18080   6.601   1.331   6.297  0.3300 -0.2528 -0.0442
  151DOPC  H15S18081   6.690   1.467   6.346  0.7065 -2.2082  0.6965
  151DOPC  C21618082   6.506   1.514   6.232  0.8972  1.0318 -0.3519
  151DOPC  H16R18083   6.556   1.520   6.133  0.4836  0.4697 -0.5974
  151DOPC  H16S18084   6.493   1.619   6.267 -0.6779  0.9799 -0.7365
  151DOPC  C21718085   6.363   1.453   6.215  0.2504 -0.1618  0.2512
  151DOPC  H17R18086   6.300   1.536   6.176  0.8692  0.6465  0.9429
  151DOPC  H17S18087   6.319   1.422   6.312 -1.0233  1.4425  0.2448
  151DOPC  C21818088   6.371   1.343   6.105  0.1065  0.1261  0.0741
  151DOPC  H18R18089   6.442   1.379   6.027 -0.7244  0.4720 -0.5444
  151DOPC  H18S18090   6.270   1.322   6.064  0.0266  0.2168  0.2224
  151DOPC  H18T18091   6.413   1.248   6.143 -3.1754 -1.3132  0.3647
  151DOPC   C3318092   6.933   1.202   7.909  0.3816  0.2123 -1.1385
  151DOPC   H3X18093   6.874   1.293   7.883  0.0871  0.1956 -0.5449
  151DOPC   H3Y18094   6.859   1.119   7.910 -0.8648  1.2642  1.0479
  151DOPC   C3418095   7.038   1.165   7.803  0.8003 -0.0674 -0.4585
  151DOPC   H4X18096   7.060   1.058   7.822  0.9055  0.2741  1.5602
  151DOPC   H4Y18097   7.129   1.228   7.819  0.1395  0.7406  0.2177
  151DOPC   C3518098   6.987   1.191   7.657 -0.1049  0.3842 -0.3500
  151DOPC   H5X18099   6.913   1.274   7.666 -1.8827 -1.1267 -0.3432
  151DOPC   H5Y18100   6.925   1.102   7.634  0.2827 -0.1916  0.7449
  151DOPC   C3618101   7.096   1.215   7.555  0.7472  0.0167  0.0665
  151DOPC   H6X18102   7.161   1.298   7.591  1.3032 -0.9784  1.4601
  151DOPC   H6Y18103   7.168   1.131   7.548  1.7157  0.8242 -0.0359
  151DOPC   C3718104   7.033   1.252   7.423  0.5126 -0.3848 -0.0919
  151DOPC   H7X18105   6.961   1.333   7.447 -0.7720 -1.6321  0.3975
  151DOPC   H7Y18106   7.107   1.286   7.347 -0.1707 -0.6149 -0.8872
  151DOPC   C3818107   6.950   1.139   7.356 -0.4726  0.3370 -0.0287
  151DOPC   H8X18108   6.911   1.169   7.257 -0.1673 -2.0424 -0.9236
  151DOPC   H8Y18109   6.862   1.120   7.421 -0.3131 -0.0876  0.0637
  151DOPC   C3918110   7.042   1.025   7.344  0.8376  0.2967  0.3327
  151DOPC   H9X18111   7.050   0.975   7.442 -1.4884  0.2799  0.5703
  151DOPC  C31018112   7.112   0.986   7.237  0.3950 -0.2115  0.4256
  151DOPC  H10X18113   7.176   0.896   7.239 -0.9559 -1.2644 -0.9148
  151DOPC  C31118114   7.128   1.054   7.098 -0.3065 -0.1776 -0.9560
  151DOPC  H11X18115   7.230   1.097   7.094  1.1879 -3.4847 -1.2884
  151DOPC  H11Y18116   7.064   1.145   7.090  1.2615  1.1544  0.8747
  151DOPC  C31218117   7.108   0.954   6.986 -1.2157 -0.4588 -0.4449
  151DOPC  H12X18118   7.035   0.875   7.013 -0.6156 -0.4504  1.3384
  151DOPC  H12Y18119   7.199   0.894   6.966 -1.5588 -0.4772 -2.0679
  151DOPC  C31318120   7.067   1.026   6.860 -0.3830  0.0658 -0.7899
  151DOPC  H13X18121   6.970   1.080   6.870  0.8762  2.4662 -0.9439
  151DOPC  H13Y18122   7.129   1.118   6.855 -2.9618  2.0767  0.8966
  151DOPC  C31418123   7.079   0.947   6.727 -0.0516  0.5890  1.0310
  151DOPC  H14X18124   7.171   0.884   6.733 -0.5561 -0.1838  0.7902
  151DOPC  H14Y18125   6.990   0.883   6.741  0.1340  0.4103  1.4171
  151DOPC  C31518126   7.077   1.031   6.605 -0.0579  0.5268  0.2831
  151DOPC  H15X18127   7.176   1.078   6.583  1.1693 -2.1564 -0.3701
  151DOPC  H15Y18128   7.004   1.112   6.621 -1.1589 -0.2795 -0.5209
  151DOPC  C31618129   7.019   0.962   6.478  0.7690  0.4526  0.0131
  151DOPC  H16X18130   7.090   0.888   6.436  0.6972 -0.0863  0.8084
  151DOPC  H16Y18131   6.936   0.897   6.514  2.4145 -0.4664  2.5047
  151DOPC  C31718132   6.971   1.057   6.369 -0.2362 -0.1959 -0.1054
  151DOPC  H17X18133   6.925   1.009   6.279 -0.0003  0.7196 -0.7306
  151DOPC  H17Y18134   6.887   1.116   6.411 -0.7321 -1.7739  1.2412
  151DOPC  C31818135   7.084   1.157   6.329  0.6256 -0.1826  0.0703
  151DOPC  H18X18136   7.044   1.248   6.278  3.4548  0.6070 -0.9308
  151DOPC  H18Y18137   7.147   1.197   6.411  0.7411 -1.9492  0.8823
  151DOPC  H18Z18138   7.144   1.113   6.247 -2.0282 -1.2064 -1.4613
  152DOPC     N18139   4.208   3.658   8.905  0.7232  0.3030 -0.0151
  152DOPC   C1218140   4.117   3.660   8.781 -0.3499 -0.9574 -0.7365
  152DOPC  H12A18141   4.093   3.764   8.762 -2.1904 -1.3995 -1.0005
  152DOPC  H12B18142   4.023   3.615   8.807 -1.5276  0.7964 -1.7375
  152DOPC   C1318143   4.147   3.712   9.027 -0.0617  0.1813  0.4801
  152DOPC  H13A18144   4.218   3.700   9.108 -0.0809  1.3096  0.6820
  152DOPC  H13B18145   4.129   3.818   9.020 -0.5377  0.0222 -0.9411
  152DOPC  H13C18146   4.056   3.659   9.047 -1.5057  0.9867 -3.0836
  152DOPC   C1418147   4.347   3.704   8.875 -0.4229  0.2954 -0.6852
  152DOPC  H14A18148   4.351   3.803   8.834 -1.9253  1.1857  1.1884
  152DOPC  H14B18149   4.414   3.716   8.959 -0.3994  1.1356 -0.8132
  152DOPC  H14C18150   4.411   3.629   8.830  1.2107  2.0641 -1.4370
  152DOPC   C1518151   4.221   3.510   8.926 -0.0158  0.7255 -0.3786
  152DOPC  H15A18152   4.130   3.455   8.944  0.1731  0.3037 -0.6929
  152DOPC  H15B18153   4.292   3.472   8.998 -0.7761 -1.8406 -0.8573
  152DOPC  H15C18154   4.245   3.470   8.828 -0.5115 -0.6700  0.0428
  152DOPC   C1118155   4.165   3.596   8.645 -0.7314  0.0223 -0.9648
  152DOPC  H11A18156   4.112   3.646   8.561 -0.4517 -0.0212 -1.1696
  152DOPC  H11B18157   4.272   3.614   8.622 -0.0739 -2.2141  0.0377
  152DOPC     P18158   3.996   3.405   8.618  0.0476 -0.2531 -0.0250
  152DOPC   O1318159   3.901   3.500   8.690 -0.3614  0.0403  0.3762
  152DOPC   O1418160   3.976   3.265   8.669 -0.7158 -0.6373  0.4054
  152DOPC   O1218161   4.139   3.452   8.651 -0.0006 -0.0366  0.3594
  152DOPC   O1118162   3.989   3.422   8.465 -0.3805  0.2038  0.2382
  152DOPC    C118163   4.084   3.378   8.373 -0.2213 -0.4743  1.0883
  152DOPC    HA18164   4.113   3.273   8.392  0.2880 -0.7348 -0.9146
  152DOPC    HB18165   4.172   3.446   8.376  0.3981 -1.0210 -1.8629
  152DOPC    C218166   4.020   3.387   8.232  0.1120  0.2053  0.0150
  152DOPC    HS18167   3.995   3.493   8.212 -1.7270 -0.2658 -0.3821
  152DOPC   O2118168   3.903   3.302   8.212 -0.2466 -0.0566 -0.2646
  152DOPC   C2118169   3.786   3.355   8.246  0.3620 -0.3332  0.2666
  152DOPC   O2218170   3.775   3.466   8.298 -0.3514  0.5734 -0.2466
  152DOPC   C2218171   3.674   3.256   8.233  0.0688 -0.3741 -0.3701
  152DOPC   H2R18172   3.676   3.190   8.322 -0.3607  0.8059  0.5340
  152DOPC   H2S18173   3.695   3.189   8.146 -3.3844 -3.8731  1.1534
  152DOPC    C318174   4.128   3.357   8.122  0.6839 -0.0913  0.3500
  152DOPC    HX18175   4.141   3.247   8.111  0.0427 -0.3187  1.6402
  152DOPC    HY18176   4.224   3.396   8.162 -0.6698  1.1426  2.6101
  152DOPC   O3118177   4.096   3.419   7.992  0.0908 -0.3012 -0.0788
  152DOPC   C3118178   3.999   3.366   7.925 -0.1731  0.5767  0.1558
  152DOPC   O3218179   3.934   3.265   7.955 -0.9552 -0.1061  0.6701
  152DOPC   C3218180   3.996   3.439   7.789 -0.4405 -0.1359  0.0997
  152DOPC   H2X18181   3.991   3.548   7.811 -0.6238  0.6441 -3.3204
  152DOPC   H2Y18182   4.100   3.431   7.750 -1.0400  0.0383 -1.6030
  152DOPC   C2318183   3.534   3.321   8.228  0.3826  0.1684  1.1420
  152DOPC   H3R18184   3.509   3.391   8.311 -3.4743  0.3885 -0.0160
  152DOPC   H3S18185   3.469   3.231   8.226 -0.4745  0.7735 -0.9023
  152DOPC   C2418186   3.511   3.402   8.102  0.1706  0.5243  0.2545
  152DOPC   H4R18187   3.405   3.388   8.071  0.0022  0.8246  0.6991
  152DOPC   H4S18188   3.566   3.364   8.013  0.8961  1.7253  0.1732
  152DOPC   C2518189   3.514   3.558   8.105  0.3752  0.6782 -0.6352
  152DOPC   H5R18190   3.619   3.580   8.134  0.8440 -0.9996 -0.9143
  152DOPC   H5S18191   3.450   3.603   8.183  0.0669  1.9058 -1.5674
  152DOPC   C2618192   3.492   3.614   7.965  0.7493 -0.9824  0.5522
  152DOPC   H6R18193   3.541   3.548   7.890 -0.1801  0.5241 -1.4724
  152DOPC   H6S18194   3.542   3.713   7.957  0.2609 -0.8151 -0.6160
  152DOPC   C2718195   3.345   3.631   7.929  0.4328 -0.4043 -0.6514
  152DOPC   H7R18196   3.301   3.698   8.006  1.6882  0.4066 -0.6158
  152DOPC   H7S18197   3.294   3.533   7.939 -2.1574  0.9862  1.0915
  152DOPC   C2818198   3.320   3.694   7.792 -0.6389 -0.2899 -0.0300
  152DOPC   H8R18199   3.215   3.731   7.795  0.2222  2.2690  1.8130
  152DOPC   H8S18200   3.320   3.620   7.709 -1.1434 -0.8694  0.4750
  152DOPC   C2918201   3.423   3.801   7.749 -0.3695 -0.2268 -0.4813
  152DOPC   H9R18202   3.452   3.880   7.820  1.3159 -1.3454  0.1253
  152DOPC  C21018203   3.498   3.789   7.638  0.0121 -0.0245  0.3324
  152DOPC  H10R18204   3.558   3.875   7.601 -0.6066 -0.8031 -2.7877
  152DOPC  C21118205   3.503   3.678   7.533  0.9259 -0.0937 -0.9159
  152DOPC  H11R18206   3.433   3.595   7.555  0.1940  0.5241 -0.8493
  152DOPC  H11S18207   3.601   3.627   7.530 -0.4361 -2.9912  0.0093
  152DOPC  C21218208   3.471   3.722   7.390  0.1702 -0.7759  0.2250
  152DOPC  H12R18209   3.525   3.811   7.351 -3.6503  1.2068 -0.9622
  152DOPC  H12S18210   3.365   3.753   7.393  0.0405 -0.9938 -1.3650
  152DOPC  C21318211   3.484   3.604   7.294  0.4222 -0.1797  0.4893
  152DOPC  H13R18212   3.419   3.530   7.345  0.0114  0.5384  1.0280
  152DOPC  H13S18213   3.585   3.560   7.284  1.1228  1.7082 -1.6830
  152DOPC  C21418214   3.423   3.611   7.149  0.2844  0.1994  0.1022
  152DOPC  H14R18215   3.320   3.649   7.165  0.5257  0.2125  1.8108
  152DOPC  H14S18216   3.411   3.514   7.096 -0.9964 -1.5809  3.3456
  152DOPC  C21518217   3.491   3.724   7.074 -0.6528 -0.5255  0.4147
  152DOPC  H15R18218   3.597   3.712   7.105 -0.9977 -2.3452  0.9984
  152DOPC  H15S18219   3.447   3.822   7.102 -1.7567 -1.3243  1.6070
  152DOPC  C21618220   3.480   3.711   6.920 -0.1331  0.0332  0.0601
  152DOPC  H16R18221   3.523   3.616   6.881  1.5148  0.6549  0.2589
  152DOPC  H16S18222   3.559   3.779   6.881  1.3432 -1.3082  0.5643
  152DOPC  C21718223   3.338   3.721   6.873  0.0883  0.4774  0.0775
  152DOPC  H17R18224   3.289   3.802   6.932 -1.6294 -1.5844  1.6332
  152DOPC  H17S18225   3.279   3.629   6.888  1.1756 -0.1899  0.3863
  152DOPC  C21818226   3.319   3.772   6.728 -0.1983  0.6285  0.0052
  152DOPC  H18R18227   3.377   3.710   6.655 -4.2472  0.1089 -3.1499
  152DOPC  H18S18228   3.360   3.875   6.732  0.6636  0.3148 -0.4474
  152DOPC  H18T18229   3.213   3.781   6.698 -0.0056  1.9351 -0.3304
  152DOPC   C3318230   3.893   3.381   7.684  0.2479  0.5106 -0.2389
  152DOPC   H3X18231   3.795   3.427   7.708  0.0799  0.4912 -0.8655
  152DOPC   H3Y18232   3.882   3.270   7.682 -0.4280  0.5261 -3.8491
  152DOPC   C3418233   3.929   3.423   7.544 -0.2092 -0.0794  0.4455
  152DOPC   H4X18234   4.029   3.385   7.513 -0.9778  0.0614 -2.4898
  152DOPC   H4Y18235   3.929   3.533   7.526  1.1856 -0.1246  0.0875
  152DOPC   C3518236   3.822   3.376   7.446  0.5923 -0.4955  0.4957
  152DOPC   H5X18237   3.724   3.424   7.468  0.2558 -1.2575  0.6896
  152DOPC   H5Y18238   3.800   3.268   7.457 -1.2606 -0.2965 -0.6912
  152DOPC   C3618239   3.870   3.411   7.303 -0.2841 -0.1976 -0.3310
  152DOPC   H6X18240   3.862   3.521   7.290  0.1562  0.2611  2.6297
  152DOPC   H6Y18241   3.979   3.388   7.296 -0.0929  0.9307 -1.3716
  152DOPC   C3718242   3.792   3.334   7.199  0.5617  0.0891  0.4634
  152DOPC   H7X18243   3.806   3.225   7.211  0.7983  0.3620  3.1924
  152DOPC   H7Y18244   3.683   3.352   7.206  0.2739 -1.6648  0.7578
  152DOPC   C3818245   3.845   3.366   7.056 -0.1039  0.0190  0.5016
  152DOPC   H8X18246   3.787   3.300   6.987  0.1192  2.6396 -2.4048
  152DOPC   H8Y18247   3.952   3.341   7.037 -0.6668 -2.1895 -0.0477
  152DOPC   C3918248   3.825   3.511   7.010 -0.1655 -0.8864 -0.6139
  152DOPC   H9X18249   3.862   3.589   7.078  0.8837 -0.7007 -1.3629
  152DOPC  C31018250   3.772   3.542   6.893  0.4894  0.0323  0.7368
  152DOPC  H10X18251   3.755   3.648   6.867  0.6729  0.1854  1.2395
  152DOPC  C31118252   3.720   3.453   6.776  0.1704  0.3882 -0.4163
  152DOPC  H11X18253   3.619   3.414   6.802  0.0432  0.7402 -0.3799
  152DOPC  H11Y18254   3.773   3.358   6.756  0.3975  0.6280 -0.9778
  152DOPC  C31218255   3.706   3.536   6.649  0.3098  0.3794  0.4235
  152DOPC  H12X18256   3.799   3.588   6.619 -0.5215  2.0997  0.6974
  152DOPC  H12Y18257   3.624   3.609   6.665  1.3547  1.1611  2.5857
  152DOPC  C31318258   3.664   3.440   6.537  0.6364  0.2632  0.5881
  152DOPC  H13X18259   3.743   3.363   6.528 -0.4189 -0.9081  1.1276
  152DOPC  H13Y18260   3.562   3.405   6.562  0.8525  0.3173  1.5929
  152DOPC  C31418261   3.643   3.515   6.405 -0.1560  0.0286  0.4500
  152DOPC  H14X18262   3.730   3.580   6.382  0.4088 -1.1463 -0.8770
  152DOPC  H14Y18263   3.650   3.439   6.324  1.5754  0.5946  0.0284
  152DOPC  C31518264   3.521   3.601   6.390  0.4401 -0.4058 -0.5333
  152DOPC  H15X18265   3.525   3.640   6.286  1.2343 -0.7399 -0.6374
  152DOPC  H15Y18266   3.524   3.677   6.472  0.9019  0.2072 -1.1075
  152DOPC  C31618267   3.386   3.529   6.407  0.0068 -0.1901  0.3505
  152DOPC  H16X18268   3.386   3.441   6.339 -1.1384  1.2931 -1.7266
  152DOPC  H16Y18269   3.371   3.488   6.508 -0.4415 -2.5568 -0.6191
  152DOPC  C31718270   3.276   3.628   6.357 -0.0421  0.2455 -0.3614
  152DOPC  H17X18271   3.288   3.717   6.422  1.4792 -1.7707  2.3320
  152DOPC  H17Y18272   3.295   3.664   6.254  2.7992  0.6756  0.2380
  152DOPC  C31818273   3.126   3.590   6.386 -0.6396 -0.5762 -0.0405
  152DOPC  H18X18274   3.110   3.526   6.476 -1.6516 -0.5935 -0.2254
  152DOPC  H18Y18275   3.078   3.687   6.408 -0.7731 -0.1677 -2.0096
  152DOPC  H18Z18276   3.078   3.540   6.299 -0.5151  1.7549 -1.5460
  153DOPC     N18277   6.609   2.356   8.657  0.6603 -0.6204 -0.1791
  153DOPC   C1218278   6.622   2.207   8.681  0.3500  0.1482 -0.6503
  153DOPC  H12A18279   6.519   2.176   8.690  1.2200 -2.8040  0.3229
  153DOPC  H12B18280   6.667   2.183   8.776  0.8444  0.6584 -0.7456
  153DOPC   C1318281   6.742   2.413   8.655 -0.3948  0.6352 -0.3021
  153DOPC  H13A18282   6.806   2.366   8.581 -1.7674 -1.0514 -0.5006
  153DOPC  H13B18283   6.724   2.518   8.640 -0.4186  0.8231  0.9410
  153DOPC  H13C18284   6.800   2.398   8.745  1.7628 -1.7168 -1.9127
  153DOPC   C1418285   6.528   2.431   8.761 -0.5587  0.1374 -0.3244
  153DOPC  H14A18286   6.599   2.435   8.842  1.9102 -1.4128 -2.2584
  153DOPC  H14B18287   6.509   2.532   8.726 -1.4106 -0.1645 -0.7705
  153DOPC  H14C18288   6.434   2.385   8.788 -0.3732  0.7988  1.5806
  153DOPC   C1518289   6.541   2.380   8.520 -0.0071 -0.8309  0.3928
  153DOPC  H15A18290   6.545   2.485   8.495 -0.0100 -1.1585 -1.0130
  153DOPC  H15B18291   6.436   2.354   8.519 -0.8740  2.2149 -0.5617
  153DOPC  H15C18292   6.592   2.322   8.445 -0.0327 -1.3188  0.7461
  153DOPC   C1118293   6.694   2.112   8.581  0.2378 -0.1583  0.0105
  153DOPC  H11A18294   6.795   2.155   8.561  0.0110  1.2478  1.6736
  153DOPC  H11B18295   6.712   2.013   8.628 -0.8816  1.0682  3.2569
  153DOPC     P18296   6.517   1.986   8.448 -0.3754 -0.0016  0.2401
  153DOPC   O1318297   6.430   1.965   8.568  0.3185 -0.3142 -0.0286
  153DOPC   O1418298   6.581   1.866   8.392 -0.2287 -0.2388 -0.0924
  153DOPC   O1218299   6.618   2.109   8.461 -0.5094 -0.3187  0.2279
  153DOPC   O1118300   6.405   2.031   8.341 -0.3124 -0.6871 -0.5297
  153DOPC    C118301   6.446   2.100   8.222 -0.2827 -0.4004  0.3257
  153DOPC    HA18302   6.555   2.104   8.200 -0.4739 -1.1685 -0.8614
  153DOPC    HB18303   6.420   2.207   8.234  0.0296 -0.4328  1.3991
  153DOPC    C218304   6.375   2.044   8.102  0.5435 -0.2539 -0.7169
  153DOPC    HS18305   6.268   2.067   8.119  1.4042  1.8322  3.0381
  153DOPC   O2118306   6.378   1.904   8.104 -0.6261 -0.3807 -0.3576
  153DOPC   C2118307   6.273   1.842   8.041 -0.4621  0.4927 -0.3723
  153DOPC   O2218308   6.172   1.900   8.007 -0.7400 -0.6141 -0.8079
  153DOPC   C2218309   6.293   1.692   8.052 -0.4210 -0.2556  0.2686
  153DOPC   H2R18310   6.239   1.651   8.141  0.3178  0.6573  1.1589
  153DOPC   H2S18311   6.402   1.677   8.067 -0.6117 -0.6865  1.3765
  153DOPC    C318312   6.437   2.099   7.966  0.7416  0.0668  0.0056
  153DOPC    HX18313   6.547   2.085   7.976  0.7387  0.9933  1.6550
  153DOPC    HY18314   6.430   2.210   7.967  0.2109  0.0366  1.4326
  153DOPC   O3118315   6.383   2.041   7.842 -0.4400  0.0397 -0.0889
  153DOPC   C3118316   6.285   2.114   7.796 -0.8563  0.3601  0.4777
  153DOPC   O3218317   6.236   2.213   7.846  0.0160 -0.2133  0.8245
  153DOPC   C3218318   6.247   2.052   7.660 -0.0780 -1.0141  0.2734
  153DOPC   H2X18319   6.347   2.041   7.612 -1.0071 -2.9424 -1.3410
  153DOPC   H2Y18320   6.204   1.951   7.676  1.6299 -1.4807  2.5146
  153DOPC   C2318321   6.243   1.618   7.922 -0.5936 -0.7778 -0.5637
  153DOPC   H3R18322   6.133   1.631   7.906 -0.2943  0.9280 -1.5374
  153DOPC   H3S18323   6.266   1.512   7.945  1.4397 -0.2324  0.0506
  153DOPC   C2418324   6.329   1.641   7.794  0.0227  0.9051 -0.2128
  153DOPC   H4R18325   6.432   1.622   7.828 -0.2091  2.3517  1.4465
  153DOPC   H4S18326   6.323   1.750   7.776  1.8743  0.8714 -1.1775
  153DOPC   C2518327   6.274   1.559   7.680  0.3249  0.1356 -0.2833
  153DOPC   H5R18328   6.224   1.470   7.724 -4.3716  2.4766 -0.2102
  153DOPC   H5S18329   6.352   1.546   7.603  2.8279  0.7925  1.9731
  153DOPC   C2618330   6.152   1.627   7.618  0.4068 -1.1393 -0.4777
  153DOPC   H6R18331   6.170   1.735   7.600 -0.2374 -0.9658 -0.1062
  153DOPC   H6S18332   6.065   1.622   7.687  0.8394 -1.8055  0.0391
  153DOPC   C2718333   6.102   1.576   7.477 -0.1693  0.4828 -0.5913
  153DOPC   H7R18334   6.053   1.664   7.429  0.5357  0.5788 -1.1465
  153DOPC   H7S18335   6.020   1.507   7.508  0.6300  0.4626  1.6738
  153DOPC   C2818336   6.211   1.518   7.388 -0.8687  0.8473  0.2010
  153DOPC   H8R18337   6.247   1.425   7.438  2.4305  2.0328  0.2709
  153DOPC   H8S18338   6.290   1.596   7.388 -0.0589  0.0545 -0.3040
  153DOPC   C2918339   6.171   1.498   7.242  1.3637 -0.0509 -0.1593
  153DOPC   H9R18340   6.149   1.393   7.216 -0.6766  0.1733  0.4424
  153DOPC  C21018341   6.180   1.589   7.144  0.1756  0.1176 -0.5893
  153DOPC  H10R18342   6.150   1.554   7.044 -0.4695 -0.9041 -0.0598
  153DOPC  C21118343   6.223   1.733   7.140 -0.0936  0.5289 -0.4225
  153DOPC  H11R18344   6.329   1.741   7.107  0.1604  0.1733  0.2934
  153DOPC  H11S18345   6.198   1.777   7.239  1.2936 -0.6589  0.4968
  153DOPC  C21218346   6.142   1.798   7.023  0.3804 -0.2223  0.1679
  153DOPC  H12R18347   6.155   1.906   7.044  3.6873 -0.9918  3.2078
  153DOPC  H12S18348   6.033   1.780   7.028  0.3223  0.3892  1.7505
  153DOPC  C21318349   6.207   1.753   6.892  0.3111 -0.3605  0.6101
  153DOPC  H13R18350   6.204   1.643   6.877  1.9168 -0.4447  0.6784
  153DOPC  H13S18351   6.315   1.780   6.901 -0.0337  0.5332  2.4039
  153DOPC  C21418352   6.138   1.812   6.770 -0.0023  0.1500  0.2654
  153DOPC  H14R18353   6.145   1.923   6.777  0.5613  0.0806  1.0113
  153DOPC  H14S18354   6.029   1.796   6.781  0.2931 -1.5417  1.1242
  153DOPC  C21518355   6.177   1.749   6.635  0.2269  0.4761  0.1467
  153DOPC  H15R18356   6.155   1.640   6.636  0.0062  0.5093  2.0575
  153DOPC  H15S18357   6.283   1.768   6.605  0.0548  0.7714 -0.2878
  153DOPC  C21618358   6.093   1.805   6.516  0.6059 -0.4656 -0.4532
  153DOPC  H16R18359   6.105   1.915   6.505 -1.1289 -0.2044 -0.0107
  153DOPC  H16S18360   5.990   1.775   6.541 -0.1733  2.0028 -0.3907
  153DOPC  C21718361   6.139   1.750   6.380 -0.2317 -0.1456  0.4704
  153DOPC  H17R18362   6.137   1.640   6.393 -0.1347 -0.2264 -0.1836
  153DOPC  H17S18363   6.243   1.778   6.354 -0.2207  0.5359  1.2068
  153DOPC  C21818364   6.048   1.804   6.267 -0.4161 -0.0554 -0.0577
  153DOPC  H18R18365   6.034   1.913   6.283 -1.5918 -0.1388 -0.4641
  153DOPC  H18S18366   5.951   1.753   6.251  0.6283 -1.6965 -1.7724
  153DOPC  H18T18367   6.098   1.802   6.167 -1.5123 -0.7567 -0.6115
  153DOPC   C3318368   6.145   2.138   7.587 -0.7088  0.2766  0.0698
  153DOPC   H3X18369   6.192   2.239   7.589  1.3614 -0.6570  1.3386
  153DOPC   H3Y18370   6.050   2.141   7.645  0.4453  0.1932  2.0552
  153DOPC   C3418371   6.117   2.089   7.440  0.4970  0.1288  1.3503
  153DOPC   H4X18372   6.077   1.987   7.460  0.4915  0.0701  1.0445
  153DOPC   H4Y18373   6.206   2.081   7.375 -0.3322 -1.5115  0.3667
  153DOPC   C3518374   6.006   2.170   7.367  0.4732  0.1735  0.1195
  153DOPC   H5X18375   6.044   2.274   7.375  0.7046  0.0201  1.3271
  153DOPC   H5Y18376   5.910   2.161   7.422 -0.0376 -3.0492 -1.1052
  153DOPC   C3618377   5.983   2.119   7.221  0.4513  0.7093  0.5449
  153DOPC   H6X18378   6.077   2.109   7.162  0.6314 -0.4025  0.9884
  153DOPC   H6Y18379   5.942   2.016   7.219  3.5563 -0.6520  0.8038
  153DOPC   C3718380   5.891   2.211   7.137 -0.2223  0.0517 -0.4134
  153DOPC   H7X18381   5.793   2.215   7.189 -0.3743 -0.0659 -0.6868
  153DOPC   H7Y18382   5.928   2.315   7.138 -0.9640  0.3204  0.0153
  153DOPC   C3818383   5.865   2.178   6.986  0.2347 -0.0907 -0.5440
  153DOPC   H8X18384   5.793   2.257   6.954  3.0426  2.9834  0.1292
  153DOPC   H8Y18385   5.816   2.079   6.976 -0.9627  0.5232 -1.0318
  153DOPC   C3918386   5.994   2.183   6.908  0.3340 -0.7820 -0.0002
  153DOPC   H9X18387   6.089   2.192   6.962  0.0086 -1.0186  0.6232
  153DOPC  C31018388   5.998   2.165   6.770 -0.1654 -0.1198  0.0098
  153DOPC  H10X18389   6.095   2.185   6.722  0.5574  2.0637  2.1659
  153DOPC  C31118390   5.880   2.143   6.679  0.5212  0.7534  0.6513
  153DOPC  H11X18391   5.807   2.221   6.706  0.0700  0.8656 -0.8332
  153DOPC  H11Y18392   5.839   2.040   6.688  3.7087 -0.7788 -0.5666
  153DOPC  C31218393   5.924   2.174   6.541  0.7447 -0.5184  0.0701
  153DOPC  H12X18394   6.011   2.110   6.515  1.6894  0.3322  1.0312
  153DOPC  H12Y18395   5.967   2.277   6.537 -1.3236  0.3886 -0.1340
  153DOPC  C31318396   5.811   2.156   6.440  0.0954 -0.0228 -0.1264
  153DOPC  H13X18397   5.787   2.048   6.445 -1.0804  0.2509  0.8770
  153DOPC  H13Y18398   5.728   2.224   6.468  0.7748  0.1849  1.4649
  153DOPC  C31418399   5.848   2.202   6.296  0.5096 -0.2811 -0.2068
  153DOPC  H14X18400   5.878   2.308   6.289 -0.9804  0.3278  1.6678
  153DOPC  H14Y18401   5.920   2.133   6.246 -1.3901 -1.1585 -1.8752
  153DOPC  C31518402   5.724   2.199   6.203 -0.0043 -1.0953 -0.7798
  153DOPC  H15X18403   5.734   2.257   6.110  0.2201  0.2825  0.0771
  153DOPC  H15Y18404   5.635   2.237   6.257 -0.9502 -0.1778 -2.8870
  153DOPC  C31618405   5.674   2.060   6.169 -0.3498 -0.0914  0.2189
  153DOPC  H16X18406   5.761   1.999   6.136 -1.9776 -0.6830 -3.4715
  153DOPC  H16Y18407   5.620   2.021   6.259  1.7030  3.1691  3.1045
  153DOPC  C31718408   5.588   2.058   6.042 -0.5250  0.0760 -0.1413
  153DOPC  H17X18409   5.500   2.123   6.061 -0.1828 -0.1353  2.5600
  153DOPC  H17Y18410   5.641   2.105   5.956 -0.2601 -0.3478 -0.2136
  153DOPC  C31818411   5.549   1.931   5.973  0.7400  0.2873 -0.1121
  153DOPC  H18X18412   5.494   1.937   5.877 -0.1677 -2.3109  0.1864
  153DOPC  H18Y18413   5.645   1.884   5.944  1.6577  2.5861 -0.9985
  153DOPC  H18Z18414   5.493   1.859   6.037  0.3314 -0.9343 -1.7743
  154DOPC     N18415   0.553   5.917   9.078 -0.2344  0.4979  0.1845
  154DOPC   C1218416   0.562   5.915   8.929  0.0037  0.5646 -0.3502
  154DOPC  H12A18417   0.505   5.830   8.893  0.1608 -0.1240  0.9744
  154DOPC  H12B18418   0.663   5.902   8.895  0.0788  1.6661 -0.5896
  154DOPC   C1318419   0.424   5.965   9.133 -0.2823  0.2325 -0.2836
  154DOPC  H13A18420   0.346   5.915   9.078 -1.0099  1.3663 -0.3432
  154DOPC  H13B18421   0.413   5.943   9.238  1.2037 -0.7696 -0.3192
  154DOPC  H13C18422   0.402   6.070   9.117  1.4049  0.5615 -0.6073
  154DOPC   C1418423   0.657   6.018   9.127 -0.0654 -0.0185 -0.1879
  154DOPC  H14A18424   0.628   6.115   9.090  1.6190  0.6329  0.1075
  154DOPC  H14B18425   0.663   6.028   9.235  0.5396 -0.0905 -0.2111
  154DOPC  H14C18426   0.755   5.993   9.089  0.6209  2.3291 -0.1529
  154DOPC   C1518427   0.583   5.780   9.129  0.0513  0.4893 -0.4781
  154DOPC  H15A18428   0.494   5.724   9.102 -0.6905  1.3809  0.0706
  154DOPC  H15B18429   0.609   5.786   9.233 -0.4579 -1.9898 -0.1369
  154DOPC  H15C18430   0.662   5.729   9.076 -1.2023 -2.1073 -0.0294
  154DOPC   C1118431   0.520   6.048   8.868  0.0263  0.2200 -0.0347
  154DOPC  H11A18432   0.560   6.139   8.917 -0.2464 -1.2424  3.1291
  154DOPC  H11B18433   0.560   6.042   8.764 -1.3537  2.3528 -0.7375
  154DOPC     P18434   0.283   5.982   8.749 -0.0086 -0.3396  0.4064
  154DOPC   O1318435   0.137   5.993   8.792 -0.4537 -0.0781 -0.2718
  154DOPC   O1418436   0.338   5.846   8.716  0.1040  0.1660  0.3077
  154DOPC   O1218437   0.373   6.056   8.857 -0.4431 -0.4331 -0.5539
  154DOPC   O1118438   0.306   6.091   8.640 -0.4624  0.3309  0.1507
  154DOPC    C118439   0.252   6.226   8.658 -0.3359  0.3139  0.0009
  154DOPC    HA18440   0.242   6.252   8.766 -0.1990  2.0168 -0.3580
  154DOPC    HB18441   0.148   6.226   8.619 -0.3217  0.7141 -0.0465
  154DOPC    C218442   0.342   6.328   8.582  0.4593  0.1042 -0.4151
  154DOPC    HS18443   0.311   6.425   8.626 -0.6793 -1.4716  2.5815
  154DOPC   O2118444   0.329   6.311   8.440  0.3395 -0.1143 -0.6164
  154DOPC   C2118445   0.227   6.382   8.380  0.6205  0.3864 -0.3882
  154DOPC   O2218446   0.159   6.461   8.443 -0.0751 -0.0165  0.0207
  154DOPC   C2218447   0.227   6.346   8.238  0.3538 -0.3206  0.7338
  154DOPC   H2R18448   0.243   6.237   8.222  0.2230 -0.4263  1.2939
  154DOPC   H2S18449   0.317   6.402   8.205 -0.8359  1.5946  0.5569
  154DOPC    C318450   0.492   6.331   8.620 -0.2275 -0.3482  0.0778
  154DOPC    HX18451   0.521   6.224   8.616  0.2317 -0.1704 -2.2956
  154DOPC    HY18452   0.514   6.379   8.718  3.2481 -1.9449  0.2058
  154DOPC   O3118453   0.568   6.402   8.519 -0.4971  0.3961  0.1816
  154DOPC   C3118454   0.698   6.368   8.501  0.1552  0.3430 -0.3474
  154DOPC   O3218455   0.767   6.301   8.575 -0.5557  0.3945 -0.4478
  154DOPC   C3218456   0.740   6.426   8.369  0.1742  0.4674  0.2574
  154DOPC   H2X18457   0.788   6.525   8.378 -0.3899  0.6893  0.9163
  154DOPC   H2Y18458   0.812   6.352   8.329 -1.0648 -0.3411 -0.5585
  154DOPC   C2318459   0.107   6.402   8.160 -0.2649 -0.1309 -0.8653
  154DOPC   H3R18460   0.089   6.504   8.200 -1.3237 -1.4466  2.3652
  154DOPC   H3S18461   0.011   6.350   8.183  1.0493 -1.9077  1.0194
  154DOPC   C2418462   0.130   6.399   8.013 -1.1391  0.9817  0.3879
  154DOPC   H4R18463   0.134   6.296   7.972  0.6863  0.4068  1.8831
  154DOPC   H4S18464   0.226   6.446   7.984 -0.4530  0.8680  2.3325
  154DOPC   C2518465   0.017   6.466   7.937  0.2241 -0.1149  0.4572
  154DOPC   H5R18466  -0.011   6.552   8.001 -1.1723 -0.3142  0.1450
  154DOPC   H5S18467  -0.075   6.403   7.938 -0.4155  0.7860  1.7339
  154DOPC   C2618468   0.058   6.507   7.798  0.6780 -0.5781  0.0846
  154DOPC   H6R18469   0.150   6.569   7.807 -1.2038  2.2052  1.6797
  154DOPC   H6S18470  -0.030   6.563   7.759 -0.5945 -2.2074  0.4960
  154DOPC   C2718471   0.084   6.389   7.707  0.7524 -0.5204 -0.0484
  154DOPC   H7R18472   0.007   6.312   7.730 -0.7951  1.0915  0.3526
  154DOPC   H7S18473   0.186   6.352   7.731  1.3840 -0.0293 -1.7934
  154DOPC   C2818474   0.079   6.438   7.558 -0.2085  0.4058 -0.0316
  154DOPC   H8R18475   0.132   6.369   7.489  0.2127  0.4004  0.2966
  154DOPC   H8S18476   0.141   6.530   7.565  1.6962 -0.9856  4.2512
  154DOPC   C2918477  -0.060   6.476   7.508  0.1181 -0.3161 -0.5944
  154DOPC   H9R18478  -0.135   6.507   7.582 -1.2987  0.4639 -2.3031
  154DOPC  C21018479  -0.094   6.489   7.381  0.3484  0.5402 -0.4993
  154DOPC  H10R18480  -0.199   6.509   7.354  0.4165  2.3406  0.3906
  154DOPC  C21118481  -0.010   6.445   7.265 -0.0630 -0.0834  0.1398
  154DOPC  H11R18482  -0.064   6.361   7.217  2.2938 -1.3120 -0.5468
  154DOPC  H11S18483   0.088   6.399   7.290 -0.0145  1.0867  2.3329
  154DOPC  C21218484  -0.002   6.556   7.160 -0.2590  0.0035 -0.7797
  154DOPC  H12R18485   0.065   6.632   7.206  1.1095 -1.5239 -0.0904
  154DOPC  H12S18486  -0.105   6.592   7.145  0.0555  0.8114 -1.0210
  154DOPC  C21318487   0.048   6.499   7.029 -0.2060  0.2053 -0.6256
  154DOPC  H13R18488  -0.004   6.407   6.996  2.6651 -2.1632  0.9558
  154DOPC  H13S18489   0.151   6.458   7.037 -0.1589  0.3586 -0.4161
  154DOPC  C21418490   0.060   6.604   6.922 -0.1300  0.1210 -0.0177
  154DOPC  H14R18491   0.127   6.683   6.962 -1.5014  0.9326  0.7584
  154DOPC  H14S18492  -0.040   6.650   6.911 -0.7839 -0.9170  1.1889
  154DOPC  C21518493   0.116   6.550   6.786  0.0566  0.2015  0.0007
  154DOPC  H15R18494   0.058   6.466   6.741  1.6114 -0.6285 -0.5540
  154DOPC  H15S18495   0.221   6.521   6.807 -0.8905 -1.6670  2.7573
  154DOPC  C21618496   0.116   6.660   6.679  0.1972  0.3832 -0.7762
  154DOPC  H16R18497   0.171   6.744   6.727 -0.1817  0.2120 -0.0235
  154DOPC  H16S18498   0.017   6.700   6.648 -0.2695  0.5530  0.8606
  154DOPC  C21718499   0.197   6.623   6.554 -0.1074 -0.4019  0.2008
  154DOPC  H17R18500   0.162   6.520   6.530  2.0409 -1.1592  0.1316
  154DOPC  H17S18501   0.305   6.612   6.574  0.2858  1.1614 -0.9653
  154DOPC  C21818502   0.185   6.720   6.438 -0.4614 -0.8919  1.0669
  154DOPC  H18R18503   0.082   6.720   6.397 -0.0337  2.5819 -0.2998
  154DOPC  H18S18504   0.257   6.686   6.360  0.9979 -1.1164  2.4599
  154DOPC  H18T18505   0.219   6.820   6.470  2.1634 -1.6999  1.0832
  154DOPC   C3318506   0.627   6.424   8.261 -0.4121  0.0506  0.2035
  154DOPC   H3X18507   0.550   6.502   8.280 -0.7927 -0.3462  0.2905
  154DOPC   H3Y18508   0.584   6.322   8.274  2.4240 -1.3340 -0.5396
  154DOPC   C3418509   0.674   6.445   8.113  0.4177 -0.7489 -0.4872
  154DOPC   H4X18510   0.761   6.376   8.104 -0.5615 -2.2052  0.6367
  154DOPC   H4Y18511   0.707   6.550   8.102 -2.9117  0.2642 -1.8054
  154DOPC   C3518512   0.565   6.400   8.009 -0.5092  0.0304 -0.8518
  154DOPC   H5X18513   0.472   6.459   8.019 -0.5267  0.3417 -2.5577
  154DOPC   H5Y18514   0.545   6.293   8.030  0.7720  0.1828  1.5812
  154DOPC   C3618515   0.630   6.428   7.871 -0.7517 -0.1215 -0.9989
  154DOPC   H6X18516   0.666   6.533   7.865  0.2395 -0.5472 -3.6836
  154DOPC   H6Y18517   0.722   6.369   7.849  0.9806  0.9934  2.4378
  154DOPC   C3718518   0.524   6.413   7.765 -0.5328  0.2002 -0.1293
  154DOPC   H7X18519   0.498   6.309   7.735  1.4186 -0.1412 -0.7690
  154DOPC   H7Y18520   0.432   6.467   7.795 -0.2630  0.5089  0.1671
  154DOPC   C3818521   0.566   6.486   7.634 -0.7851  0.0177  0.7865
  154DOPC   H8X18522   0.570   6.595   7.656 -1.9455  0.0686  0.8130
  154DOPC   H8Y18523   0.479   6.474   7.565 -0.2740  1.2314 -0.1114
  154DOPC   C3918524   0.697   6.444   7.557 -0.7236 -0.7756 -0.1991
  154DOPC   H9X18525   0.782   6.486   7.614  0.8965 -1.6669 -1.8730
  154DOPC  C31018526   0.720   6.357   7.463 -0.8898 -0.1601  0.2712
  154DOPC  H10X18527   0.818   6.353   7.412 -1.7093 -0.6063 -1.3581
  154DOPC  C31118528   0.605   6.287   7.392 -0.5097 -0.1154  0.1608
  154DOPC  H11X18529   0.510   6.306   7.447 -0.1014  1.3680  0.3990
  154DOPC  H11Y18530   0.613   6.176   7.392  2.8970  0.0353 -0.5687
  154DOPC  C31218531   0.596   6.325   7.250  0.5596  0.3300  0.2458
  154DOPC  H12X18532   0.687   6.309   7.189  0.2201  1.0036 -0.4692
  154DOPC  H12Y18533   0.564   6.430   7.230 -2.0651 -0.7513 -1.9513
  154DOPC  C31318534   0.484   6.243   7.184  0.7855  0.2255 -0.3251
  154DOPC  H13X18535   0.517   6.137   7.185 -1.2190 -0.4346 -0.3785
  154DOPC  H13Y18536   0.390   6.247   7.244  0.6092  2.4725 -0.6695
  154DOPC  C31418537   0.453   6.282   7.034 -0.0234 -0.1161  0.1501
  154DOPC  H14X18538   0.411   6.381   7.009 -0.5832 -0.9944 -2.8159
  154DOPC  H14Y18539   0.537   6.275   6.962 -1.2937  2.1178 -1.6653
  154DOPC  C31518540   0.347   6.184   6.986 -0.3829  0.1951  0.0915
  154DOPC  H15X18541   0.249   6.217   7.026 -0.5801 -0.3603  0.0724
  154DOPC  H15Y18542   0.368   6.082   7.024 -1.0314 -0.5620 -1.5235
  154DOPC  C31618543   0.341   6.196   6.830  0.5640  0.1434 -0.5110
  154DOPC  H16X18544   0.332   6.301   6.795 -2.0814  0.3749  0.6167
  154DOPC  H16Y18545   0.430   6.154   6.779 -1.1100 -2.5891 -1.4149
  154DOPC  C31718546   0.228   6.114   6.761  0.0973  0.3258 -0.5024
  154DOPC  H17X18547   0.232   6.019   6.817  1.7283  0.8990  0.4262
  154DOPC  H17Y18548   0.126   6.154   6.782 -0.7010 -1.6938 -0.3667
  154DOPC  C31818549   0.234   6.094   6.610  0.0643 -0.7524 -0.2771
  154DOPC  H18X18550   0.237   6.198   6.571 -1.6322 -0.8180 -0.6153
  154DOPC  H18Y18551   0.329   6.041   6.586  0.6351  0.1225 -0.0253
  154DOPC  H18Z18552   0.146   6.048   6.562 -0.2474 -0.0435 -0.4038
  155DOPC     N18553   3.021   3.848   8.839 -0.1957 -0.3159  0.1809
  155DOPC   C1218554   2.980   3.724   8.765 -0.0341 -0.4982  0.2370
  155DOPC  H12A18555   3.041   3.725   8.676 -2.0328  0.3326 -1.1795
  155DOPC  H12B18556   2.874   3.725   8.744  0.0979 -2.1378 -0.6671
  155DOPC   C1318557   2.984   3.835   8.983 -0.2504 -0.0590  0.6068
  155DOPC  H13A18558   2.876   3.837   8.985 -0.3288  0.4636 -1.5841
  155DOPC  H13B18559   3.002   3.733   9.014 -0.1082 -1.0208 -2.3915
  155DOPC  H13C18560   3.026   3.912   9.046  0.6216 -0.5141  0.5946
  155DOPC   C1418561   2.966   3.969   8.780 -0.0438 -0.3187  0.3844
  155DOPC  H14A18562   2.858   3.967   8.776 -0.1259 -1.4336  2.0300
  155DOPC  H14B18563   2.990   4.054   8.843  0.6198 -1.0809  1.1943
  155DOPC  H14C18564   3.005   3.985   8.681 -1.2152 -1.2163 -0.2401
  155DOPC   C1518565   3.171   3.873   8.825  0.1677 -0.3000  0.2223
  155DOPC  H15A18566   3.192   3.876   8.719 -1.7465 -2.7699 -0.3062
  155DOPC  H15B18567   3.226   3.793   8.872 -0.8962  0.0668  2.2221
  155DOPC  H15C18568   3.199   3.960   8.883 -1.6379  1.0620 -0.8647
  155DOPC   C1118569   3.011   3.596   8.846 -0.5298  0.2354 -0.1376
  155DOPC  H11A18570   2.945   3.586   8.935 -1.1654  1.7826 -0.4142
  155DOPC  H11B18571   2.988   3.510   8.780 -1.3992 -1.5107  2.2606
  155DOPC     P18572   3.213   3.450   8.935 -0.3350  0.0822 -0.2730
  155DOPC   O1318573   3.111   3.340   8.948 -0.3341 -0.7096 -0.0649
  155DOPC   O1418574   3.291   3.487   9.055 -0.1015  0.0881  0.0661
  155DOPC   O1218575   3.148   3.582   8.885  0.7481  0.3238 -0.2206
  155DOPC   O1118576   3.313   3.413   8.822  0.5251 -0.5124 -0.7236
  155DOPC    C118577   3.366   3.515   8.733 -0.2115 -0.1261  0.0149
  155DOPC    HA18578   3.463   3.474   8.698  0.4687 -0.2304  1.9071
  155DOPC    HB18579   3.388   3.611   8.783  3.0199 -1.7869  2.1529
  155DOPC    C218580   3.276   3.534   8.607  0.7891 -0.2533 -0.2874
  155DOPC    HS18581   3.174   3.557   8.646  1.3009 -1.1980  1.7750
  155DOPC   O2118582   3.271   3.412   8.536 -0.2983 -0.0750  0.6735
  155DOPC   C2118583   3.154   3.384   8.484  0.3120 -0.1898  0.4269
  155DOPC   O2218584   3.050   3.448   8.502 -0.2578 -0.0051 -0.1657
  155DOPC   C2218585   3.160   3.258   8.392 -0.1852 -0.6088 -0.3547
  155DOPC   H2R18586   3.122   3.174   8.455  0.1033  0.1602  0.8857
  155DOPC   H2S18587   3.267   3.244   8.363 -0.3156  1.0256 -1.7971
  155DOPC    C318588   3.333   3.640   8.516  0.1840  0.0204 -0.2451
  155DOPC    HX18589   3.430   3.605   8.474  0.8973  0.5874  0.8761
  155DOPC    HY18590   3.360   3.735   8.566 -2.8666  0.6384  0.4279
  155DOPC   O3118591   3.248   3.667   8.399  0.2015 -0.0173  0.1829
  155DOPC   C3118592   3.151   3.759   8.419  0.2313 -0.3720 -0.4872
  155DOPC   O3218593   3.143   3.825   8.520 -0.6229 -0.4715  0.2244
  155DOPC   C3218594   3.050   3.762   8.305  0.1465  0.5945  0.7006
  155DOPC   H2X18595   3.108   3.765   8.210  1.3711  1.0704  1.4333
  155DOPC   H2Y18596   2.986   3.672   8.311 -1.3411  1.3520 -2.1634
  155DOPC   C2318597   3.054   3.266   8.276 -0.8147 -0.6337 -0.4713
  155DOPC   H3R18598   2.956   3.270   8.327 -0.7714  0.7883 -0.4443
  155DOPC   H3S18599   3.076   3.174   8.218  0.9472 -1.0980  0.8622
  155DOPC   C2418600   3.080   3.382   8.177  0.3686  0.4571  0.1077
  155DOPC   H4R18601   3.189   3.402   8.165  0.1610  0.4991 -2.2817
  155DOPC   H4S18602   3.025   3.468   8.221  1.1543  0.1861  1.6844
  155DOPC   C2518603   3.016   3.345   8.040  0.0315  0.0762  0.0689
  155DOPC   H5R18604   2.921   3.291   8.057  1.2836 -1.4041  3.2090
  155DOPC   H5S18605   3.072   3.268   7.984 -0.7709 -0.7484  0.3728
  155DOPC   C2618606   2.977   3.467   7.951 -0.3746 -0.3628  1.1079
  155DOPC   H6R18607   3.075   3.498   7.909 -0.5013 -0.2057  0.9281
  155DOPC   H6S18608   2.941   3.553   8.011  0.3729  1.9405 -1.5539
  155DOPC   C2718609   2.882   3.422   7.841 -0.7845  0.2705 -0.1152
  155DOPC   H7R18610   2.801   3.356   7.879 -0.1205 -1.4208 -1.5292
  155DOPC   H7S18611   2.945   3.362   7.773 -0.5318  0.2955  0.0922
  155DOPC   C2818612   2.822   3.542   7.770 -0.0825 -0.5828  0.2312
  155DOPC   H8R18613   2.764   3.599   7.847 -0.7282 -0.4968 -0.3058
  155DOPC   H8S18614   2.757   3.512   7.685 -1.4131  1.5265  0.4214
  155DOPC   C2918615   2.931   3.629   7.706  0.1884 -0.4237 -0.4668
  155DOPC   H9R18616   2.950   3.723   7.759  3.0538 -0.6313 -0.9934
  155DOPC  C21018617   2.974   3.607   7.579 -0.1572 -0.2626  0.1477
  155DOPC  H10R18618   3.051   3.672   7.535 -0.0553  0.6471  1.6106
  155DOPC  C21118619   2.943   3.486   7.490  0.3414 -0.9246  0.5907
  155DOPC  H11R18620   2.835   3.461   7.495 -0.0131  0.6858  2.2907
  155DOPC  H11S18621   2.980   3.396   7.542 -0.4627 -1.4642  0.2412
  155DOPC  C21218622   3.008   3.490   7.354  0.2680 -0.0681  0.2516
  155DOPC  H12R18623   3.118   3.494   7.370  0.2652  0.5419  0.1667
  155DOPC  H12S18624   2.966   3.575   7.295  3.2627  0.3179 -1.5896
  155DOPC  C21318625   2.981   3.358   7.278 -0.3951 -0.4487  0.6081
  155DOPC  H13R18626   2.874   3.332   7.279 -0.2483 -1.1835 -0.6108
  155DOPC  H13S18627   3.033   3.276   7.331 -1.2120 -1.3268  0.0830
  155DOPC  C21418628   3.027   3.365   7.129 -0.4935 -0.2445 -0.9400
  155DOPC  H14R18629   3.037   3.264   7.083 -3.8047 -1.0213 -0.2038
  155DOPC  H14S18630   3.129   3.408   7.118  1.0254 -2.9415  1.3498
  155DOPC  C21518631   2.925   3.442   7.047  0.1128 -0.2509 -0.4614
  155DOPC  H15R18632   2.909   3.538   7.099  0.2803  0.2970 -1.3937
  155DOPC  H15S18633   2.827   3.389   7.043  0.4267 -0.7924 -1.3344
  155DOPC  C21618634   2.965   3.471   6.902  0.5686 -0.1004  0.1330
  155DOPC  H16R18635   2.983   3.377   6.845  0.0967 -0.8138  1.1380
  155DOPC  H16S18636   3.064   3.520   6.891  1.2653 -1.3275  0.6701
  155DOPC  C21718637   2.860   3.555   6.825  0.0631 -0.4793  0.9947
  155DOPC  H17R18638   2.843   3.653   6.876  1.8806  0.2511  0.2880
  155DOPC  H17S18639   2.766   3.497   6.838  0.4151 -1.2080  0.3996
  155DOPC  C21818640   2.903   3.585   6.682 -0.1467 -0.3466  0.2676
  155DOPC  H18R18641   2.915   3.489   6.627 -3.4809 -0.4489 -0.4959
  155DOPC  H18S18642   2.979   3.666   6.680  0.7451 -1.1191  1.6078
  155DOPC  H18T18643   2.818   3.637   6.632  0.3959  0.3046  0.0122
  155DOPC   C3318644   2.957   3.880   8.317 -0.4426  0.1144 -0.1540
  155DOPC   H3X18645   3.022   3.970   8.316 -0.5690  0.2231 -1.7468
  155DOPC   H3Y18646   2.902   3.873   8.413  2.0164 -0.0256  1.3423
  155DOPC   C3418647   2.866   3.879   8.198  0.2988  0.1262 -0.0285
  155DOPC   H4X18648   2.772   3.930   8.227  2.2502  3.5030  0.8350
  155DOPC   H4Y18649   2.845   3.773   8.171  1.3506  0.0620 -0.6363
  155DOPC   C3518650   2.924   3.955   8.081  0.0447  0.1086  0.4517
  155DOPC   H5X18651   3.027   3.915   8.069  0.6044  1.8207 -1.0066
  155DOPC   H5Y18652   2.932   4.064   8.101 -0.6957  0.5070 -1.2518
  155DOPC   C3618653   2.856   3.939   7.949  0.0554  0.2433  0.3693
  155DOPC   H6X18654   2.867   3.836   7.910 -0.3337  0.9904 -1.9200
  155DOPC   H6Y18655   2.748   3.958   7.963 -0.0702 -0.2599  0.1003
  155DOPC   C3718656   2.904   4.033   7.830  0.3277  0.4451 -0.1322
  155DOPC   H7X18657   2.851   4.019   7.733  1.3995 -0.4171 -0.6110
  155DOPC   H7Y18658   2.895   4.140   7.860  2.3337  0.7645 -0.5385
  155DOPC   C3818659   3.053   4.023   7.788  0.0047  0.0598  0.2027
  155DOPC   H8X18660   3.073   3.924   7.741  1.0984 -0.6206  2.0111
  155DOPC   H8Y18661   3.117   4.022   7.879 -0.5122  1.4881  0.5993
  155DOPC   C3918662   3.085   4.137   7.691  0.2813 -0.5170 -0.1760
  155DOPC   H9X18663   3.086   4.236   7.739 -0.4004 -1.8599  2.8872
  155DOPC  C31018664   3.137   4.134   7.568  0.1648  0.1758 -0.5760
  155DOPC  H10X18665   3.158   4.229   7.516  4.7923  0.1038  0.7436
  155DOPC  C31118666   3.172   4.008   7.495  0.1603  0.6090 -0.2932
  155DOPC  H11X18667   3.178   3.914   7.554  0.1293  0.5667 -0.3570
  155DOPC  H11Y18668   3.272   4.020   7.450 -0.5502  0.3183 -2.0586
  155DOPC  C31218669   3.069   3.970   7.380  0.1773 -1.0791  0.7475
  155DOPC  H12X18670   3.029   4.054   7.320 -0.3648 -1.8677 -0.0311
  155DOPC  H12Y18671   2.979   3.929   7.430 -0.7327  0.4108  0.3607
  155DOPC  C31318672   3.120   3.862   7.284 -0.5427 -0.5743  0.0387
  155DOPC  H13X18673   3.226   3.882   7.260 -0.0936 -0.7912  1.6932
  155DOPC  H13Y18674   3.118   3.761   7.330 -1.3687  0.4211  2.3670
  155DOPC  C31418675   3.044   3.864   7.155  0.3912  0.0440  0.5602
  155DOPC  H14X18676   3.058   3.765   7.106 -1.6446 -0.3115  0.6296
  155DOPC  H14Y18677   2.938   3.881   7.181  0.5099  2.5728 -0.3236
  155DOPC  C31518678   3.089   3.973   7.049 -0.7980  0.3389  0.3840
  155DOPC  H15X18679   3.199   3.960   7.035 -0.4586  4.1398 -1.5400
  155DOPC  H15Y18680   3.071   4.069   7.101  0.2297  0.5714  0.3392
  155DOPC  C31618681   3.017   3.961   6.910  0.2436 -0.2799  0.1199
  155DOPC  H16X18682   3.039   4.036   6.830 -2.0926  0.0882 -0.2343
  155DOPC  H16Y18683   3.047   3.865   6.863 -0.0340  0.0992 -0.8662
  155DOPC  C31718684   2.872   3.950   6.925  0.1006  0.0485  0.4036
  155DOPC  H17X18685   2.847   3.849   6.965 -1.6819  0.0079 -0.6808
  155DOPC  H17Y18686   2.826   4.023   6.995  1.1660  2.1139 -0.9547
  155DOPC  C31818687   2.789   3.951   6.793  0.0094  0.0657 -0.0882
  155DOPC  H18X18688   2.832   3.885   6.715  0.3199  0.9146 -0.6612
  155DOPC  H18Y18689   2.683   3.927   6.812 -1.6581  2.8804 -4.3068
  155DOPC  H18Z18690   2.787   4.054   6.749  0.0950 -0.3157 -1.0099
  156DOPC     N18691   5.284   0.841   8.880  0.0108 -0.3156  0.3318
  156DOPC   C1218692   5.347   0.740   8.799 -0.4318 -0.2374 -0.1884
  156DOPC  H12A18693   5.308   0.640   8.815 -0.7189 -0.4955 -2.3162
  156DOPC  H12B18694   5.450   0.740   8.831 -1.3270 -0.3398  3.1017
  156DOPC   C1318695   5.138   0.847   8.854 -0.4422  0.3140  0.6161
  156DOPC  H13A18696   5.085   0.906   8.927 -1.4932  1.6320 -1.1456
  156DOPC  H13B18697   5.134   0.908   8.765  2.4411 -0.0839  0.1034
  156DOPC  H13C18698   5.092   0.749   8.851  1.3798 -0.6001  0.6087
  156DOPC   C1418699   5.334   0.980   8.851  0.4862 -0.0551 -0.1183
  156DOPC  H14A18700   5.439   0.985   8.876  0.1245 -1.0262  1.7015
  156DOPC  H14B18701   5.311   1.009   8.749 -0.3444  0.1105  0.1134
  156DOPC  H14C18702   5.284   1.050   8.915  1.1398 -1.0600  1.5404
  156DOPC   C1518703   5.316   0.810   9.029  0.2244  0.7814 -0.2281
  156DOPC  H15A18704   5.424   0.809   9.034  0.1945  0.9570  0.6308
  156DOPC  H15B18705   5.264   0.721   9.059 -0.0929  1.2777  0.7552
  156DOPC  H15C18706   5.279   0.885   9.098 -3.1478 -1.2087  0.3169
  156DOPC   C1118707   5.354   0.747   8.652  0.5282  0.3654  0.4637
  156DOPC  H11A18708   5.384   0.645   8.622 -1.3879 -0.7437  2.0694
  156DOPC  H11B18709   5.252   0.752   8.607  1.5656 -1.5086 -2.3333
  156DOPC     P18710   5.587   0.845   8.602 -0.3241  0.2825  0.4372
  156DOPC   O1318711   5.638   0.823   8.739 -0.0722 -0.1360 -0.0809
  156DOPC   O1418712   5.629   0.977   8.538 -0.1266 -0.1035  0.1865
  156DOPC   O1218713   5.429   0.847   8.589 -0.0504 -0.9332 -0.3118
  156DOPC   O1118714   5.620   0.726   8.501 -0.2918 -0.6426 -0.0927
  156DOPC    C118715   5.551   0.700   8.377 -0.5186 -0.1332  1.4686
  156DOPC    HA18716   5.455   0.751   8.355  0.5913  0.2867 -3.7517
  156DOPC    HB18717   5.521   0.593   8.369 -0.3852 -0.0953  0.2522
  156DOPC    C218718   5.645   0.724   8.247 -0.3004  0.1807 -0.0816
  156DOPC    HS18719   5.576   0.730   8.160 -0.7439  1.7716  0.3523
  156DOPC   O2118720   5.750   0.625   8.225 -0.1962  0.3123  0.6514
  156DOPC   C2118721   5.723   0.521   8.139 -0.0703 -0.0727  0.0804
  156DOPC   O2218722   5.633   0.530   8.059 -0.4279 -0.2933  0.2446
  156DOPC   C2218723   5.811   0.399   8.170 -0.0672 -0.9060  0.2833
  156DOPC   H2R18724   5.775   0.362   8.268 -1.3298 -0.1813  0.1127
  156DOPC   H2S18725   5.915   0.436   8.188 -0.3104  0.4780 -0.9096
  156DOPC    C318726   5.713   0.862   8.244 -0.1737  0.1553  0.4027
  156DOPC    HX18727   5.788   0.870   8.326  1.2767 -2.1890 -0.5796
  156DOPC    HY18728   5.635   0.941   8.249  1.1760  1.5720 -0.3294
  156DOPC   O3118729   5.795   0.878   8.130  0.0914  0.2308 -0.2043
  156DOPC   C3118730   5.736   0.901   8.010  0.0735 -0.0034 -0.3374
  156DOPC   O3218731   5.619   0.929   7.997  0.0907  0.0177 -0.0048
  156DOPC   C3218732   5.843   0.926   7.908 -0.2316  0.3626  0.0419
  156DOPC   H2X18733   5.813   1.018   7.855 -1.2387  0.5130  0.8427
  156DOPC   H2Y18734   5.941   0.953   7.952 -0.9640  2.2996  0.5946
  156DOPC   C2318735   5.813   0.291   8.063 -0.1158 -0.1088  0.4224
  156DOPC   H3R18736   5.708   0.266   8.037  0.1659  0.1061 -1.0415
  156DOPC   H3S18737   5.847   0.195   8.108 -2.8961 -0.5950  1.6315
  156DOPC   C2418738   5.898   0.322   7.944 -0.1459 -1.2520  0.6579
  156DOPC   H4R18739   5.994   0.356   7.987 -0.3694 -1.8007  1.6470
  156DOPC   H4S18740   5.856   0.415   7.901  0.6352 -0.0418  2.4152
  156DOPC   C2518741   5.915   0.210   7.844 -0.6680  0.2150 -0.1879
  156DOPC   H5R18742   5.906   0.115   7.901 -5.0414  1.8846  2.3784
  156DOPC   H5S18743   6.018   0.208   7.803  1.0992 -0.3699  3.8006
  156DOPC   C2618744   5.819   0.235   7.726  0.1013 -0.4668  0.1442
  156DOPC   H6R18745   5.830   0.342   7.702  2.5578 -0.3821  1.3524
  156DOPC   H6S18746   5.717   0.209   7.761  0.5146 -0.8343  1.1130
  156DOPC   C2718747   5.844   0.158   7.599 -0.0264  0.5247  0.7986
  156DOPC   H7R18748   5.830   0.050   7.621  2.0464 -0.7244 -3.0628
  156DOPC   H7S18749   5.948   0.169   7.561 -0.5272  1.1754 -0.4273
  156DOPC   C2818750   5.760   0.176   7.475  0.3399 -0.1452 -1.1702
  156DOPC   H8R18751   5.652   0.168   7.499  0.5715  0.4566  0.1509
  156DOPC   H8S18752   5.794   0.086   7.418  2.3837 -0.7559  0.8596
  156DOPC   C2918753   5.768   0.310   7.407 -0.3101  0.4518  0.1568
  156DOPC   H9R18754   5.767   0.398   7.473 -2.1337  0.7134 -0.1839
  156DOPC  C21018755   5.794   0.329   7.274 -0.6664  0.1997 -1.0675
  156DOPC  H10R18756   5.784   0.432   7.236 -2.3272 -0.1152 -1.5299
  156DOPC  C21118757   5.828   0.237   7.163 -1.1788  1.0915  0.1464
  156DOPC  H11R18758   5.830   0.130   7.192 -0.2097  0.6253 -1.5150
  156DOPC  H11S18759   5.935   0.252   7.134 -1.1197 -0.8085 -0.7507
  156DOPC  C21218760   5.745   0.254   7.033  0.3091  0.4111  0.2434
  156DOPC  H12R18761   5.742   0.359   6.997 -1.9766 -0.3948 -2.2665
  156DOPC  H12S18762   5.638   0.231   7.055  0.3772 -0.5219 -0.3627
  156DOPC  C21318763   5.783   0.166   6.912  0.0526 -0.0236  0.3731
  156DOPC  H13R18764   5.819   0.071   6.956  0.0422 -0.1997  0.0106
  156DOPC  H13S18765   5.871   0.216   6.866 -0.4650 -0.1744 -0.8414
  156DOPC  C21418766   5.680   0.155   6.803  0.3713  0.3325 -0.1807
  156DOPC  H14R18767   5.637   0.257   6.791 -0.0415  0.1388 -0.3654
  156DOPC  H14S18768   5.604   0.088   6.850  1.7732 -0.2405  1.3725
  156DOPC  C21518769   5.736   0.101   6.666 -0.5139 -0.5701 -0.5825
  156DOPC  H15R18770   5.811   0.172   6.625  0.8547  0.1862  2.9146
  156DOPC  H15S18771   5.652   0.093   6.594  0.3505 -2.1926 -1.4731
  156DOPC  C21618772   5.804  -0.037   6.668 -0.4743  0.7165 -0.1782
  156DOPC  H16R18773   5.728  -0.116   6.684  0.0343  0.4045  0.7241
  156DOPC  H16S18774   5.875  -0.031   6.753 -1.2155  1.2521  0.4194
  156DOPC  C21718775   5.879  -0.078   6.544 -0.7954 -0.0812  1.4921
  156DOPC  H17R18776   5.929  -0.177   6.548  0.1612  0.1329 -2.1607
  156DOPC  H17S18777   5.960  -0.004   6.526  1.5137 -2.6707  0.5645
  156DOPC  C21818778   5.795  -0.070   6.413  0.2059  1.0487  0.1883
  156DOPC  H18R18779   5.855  -0.140   6.351 -0.1780 -0.0187  0.9829
  156DOPC  H18S18780   5.778   0.034   6.378 -1.1797  0.7815  0.0079
  156DOPC  H18T18781   5.699  -0.121   6.435  1.8098 -3.2761 -1.7607
  156DOPC   C3318782   5.858   0.803   7.812 -0.6832 -0.1306  0.3748
  156DOPC   H3X18783   5.845   0.712   7.875  0.4003 -0.3766  0.2492
  156DOPC   H3Y18784   5.955   0.813   7.759 -1.4168 -1.6269 -1.3646
  156DOPC   C3418785   5.756   0.795   7.703  0.5712 -0.1239 -0.4910
  156DOPC   H4X18786   5.656   0.791   7.751  1.5533  0.8249  1.7915
  156DOPC   H4Y18787   5.765   0.702   7.643 -0.3754  0.5432 -1.7274
  156DOPC   C3518788   5.751   0.911   7.604  0.2203 -0.5524  0.1728
  156DOPC   H5X18789   5.857   0.930   7.576 -0.1534 -0.0946 -1.0282
  156DOPC   H5Y18790   5.718   1.008   7.646 -1.1889 -0.8461 -0.1975
  156DOPC   C3618791   5.678   0.876   7.473  0.0338 -0.4691  0.4934
  156DOPC   H6X18792   5.574   0.846   7.497 -0.0414  1.7451  3.5274
  156DOPC   H6Y18793   5.663   0.963   7.406 -1.3524  0.0513  1.4483
  156DOPC   C3718794   5.746   0.765   7.397 -0.5017  0.0700 -0.0295
  156DOPC   H7X18795   5.854   0.778   7.374 -0.5121  1.3541  0.5158
  156DOPC   H7Y18796   5.736   0.672   7.456  0.7163  0.9528  1.6582
  156DOPC   C3818797   5.658   0.743   7.275  0.4059  0.2916 -0.5438
  156DOPC   H8X18798   5.551   0.747   7.302  0.7059 -1.7777  1.2445
  156DOPC   H8Y18799   5.660   0.638   7.238 -1.6927  0.7249 -2.0513
  156DOPC   C3918800   5.689   0.830   7.154  0.2599 -0.1057 -0.0728
  156DOPC   H9X18801   5.673   0.938   7.166 -0.6100 -0.0167 -1.7608
  156DOPC  C31018802   5.749   0.796   7.033  0.3411  0.1635  0.3172
  156DOPC  H10X18803   5.767   0.880   6.964 -0.4083  0.3652  0.3529
  156DOPC  C31118804   5.766   0.659   6.972 -0.6362 -0.1985 -0.2998
  156DOPC  H11X18805   5.720   0.576   7.029  0.5590 -0.5152  0.2323
  156DOPC  H11Y18806   5.874   0.636   6.986 -1.0466 -1.8447  0.2754
  156DOPC  C31218807   5.733   0.640   6.820  0.5044 -0.3029 -0.0786
  156DOPC  H12X18808   5.783   0.547   6.784  2.6210  0.2806  1.2062
  156DOPC  H12Y18809   5.781   0.727   6.770 -1.9603  1.5231  0.5170
  156DOPC  C31318810   5.581   0.637   6.782 -0.1392  0.3815  0.5793
  156DOPC  H13X18811   5.544   0.543   6.829  0.8205  0.2386  1.0663
  156DOPC  H13Y18812   5.528   0.725   6.825 -2.1068 -0.0240 -0.8483
  156DOPC  C31418813   5.549   0.624   6.637  0.3332  0.3227  0.7296
  156DOPC  H14X18814   5.444   0.590   6.633  0.5106 -0.2333  0.7233
  156DOPC  H14Y18815   5.553   0.715   6.574 -0.9676  0.4979  0.8689
  156DOPC  C31518816   5.632   0.515   6.573 -0.3237 -0.5118 -0.2544
  156DOPC  H15X18817   5.626   0.421   6.632 -0.8930 -1.3271 -1.5818
  156DOPC  H15Y18818   5.741   0.536   6.571 -0.2003 -0.4681  2.5560
  156DOPC  C31618819   5.587   0.485   6.435  0.1586 -0.5095 -0.4260
  156DOPC  H16X18820   5.476   0.492   6.431  0.2789  1.4459 -1.8034
  156DOPC  H16Y18821   5.616   0.565   6.364 -1.5145  0.8802  0.3870
  156DOPC  C31718822   5.637   0.350   6.380 -0.0301 -0.1288 -0.0144
  156DOPC  H17X18823   5.747   0.363   6.366 -0.1651 -0.4684 -1.6874
  156DOPC  H17Y18824   5.614   0.263   6.446  1.4110  0.2850  1.0804
  156DOPC  C31818825   5.606   0.328   6.230 -0.6365  0.2038 -0.0440
  156DOPC  H18X18826   5.636   0.414   6.168  0.4223 -0.5608 -0.6256
  156DOPC  H18Y18827   5.664   0.242   6.190  0.1013  0.9122 -0.5117
  156DOPC  H18Z18828   5.500   0.296   6.213 -1.1176  0.0240  2.7608
  157DOPC     N18829   5.711   3.684   8.781 -0.4386  0.8358 -0.4210
  157DOPC   C1218830   5.639   3.695   8.647  0.0444 -0.2899  0.0256
  157DOPC  H12A18831   5.543   3.645   8.651 -0.1783  0.0824 -0.5066
  157DOPC  H12B18832   5.703   3.645   8.576 -1.0205 -1.7348  0.0461
  157DOPC   C1318833   5.712   3.534   8.812 -0.0416 -0.5953 -0.3058
  157DOPC  H13A18834   5.614   3.492   8.829 -0.0300  0.4280  2.9881
  157DOPC  H13B18835   5.777   3.488   8.738 -0.7539  0.3279 -1.5364
  157DOPC  H13C18836   5.755   3.527   8.911 -0.0932 -0.3572 -0.2663
  157DOPC   C1418837   5.646   3.757   8.889  0.0876 -0.5122  0.4289
  157DOPC  H14A18838   5.712   3.774   8.973  0.1241 -0.2999  0.3555
  157DOPC  H14B18839   5.619   3.856   8.857 -0.7251 -0.8239  0.0962
  157DOPC  H14C18840   5.555   3.706   8.918 -0.9687 -0.7212 -2.8568
  157DOPC   C1518841   5.855   3.724   8.787  1.0697 -0.6230 -0.7271
  157DOPC  H15A18842   5.870   3.831   8.776 -1.3200 -0.4284 -3.3692
  157DOPC  H15B18843   5.920   3.686   8.710  0.9768  1.3348 -1.8515
  157DOPC  H15C18844   5.902   3.691   8.878  2.8195  0.1894 -1.2848
  157DOPC   C1118845   5.627   3.843   8.577 -0.2578 -0.4219  0.3513
  157DOPC  H11A18846   5.729   3.872   8.545 -0.1404 -1.7953 -0.6050
  157DOPC  H11B18847   5.561   3.828   8.488 -0.4294  1.4716  0.1256
  157DOPC     P18848   5.602   4.093   8.652  0.2604  0.6229  0.1975
  157DOPC   O1318849   5.737   4.107   8.709 -0.4417 -0.1978 -0.2072
  157DOPC   O1418850   5.490   4.161   8.723  0.2503  0.4499 -0.2269
  157DOPC   O1218851   5.557   3.936   8.659 -0.0211  0.1047  0.0484
  157DOPC   O1118852   5.602   4.131   8.505 -0.8598  0.2321 -0.2054
  157DOPC    C118853   5.482   4.136   8.431  0.3883 -0.0310 -0.3243
  157DOPC    HA18854   5.413   4.214   8.471 -0.5873 -0.4987 -1.0603
  157DOPC    HB18855   5.419   4.044   8.434  0.7804 -0.3201 -0.8863
  157DOPC    C218856   5.517   4.163   8.285  0.1434 -0.1527 -0.1098
  157DOPC    HS18857   5.424   4.153   8.225  0.0524  0.3687 -0.0566
  157DOPC   O2118858   5.607   4.065   8.237 -0.0020 -0.4255 -0.0280
  157DOPC   C2118859   5.563   3.950   8.206  0.3626  0.4896 -0.5076
  157DOPC   O2218860   5.444   3.909   8.214 -0.8851 -0.2433 -0.1106
  157DOPC   C2218861   5.677   3.875   8.134  0.2534 -0.1652 -0.2206
  157DOPC   H2R18862   5.727   3.805   8.205 -0.7961  1.5971  2.4393
  157DOPC   H2S18863   5.746   3.950   8.091 -0.4412 -0.7071 -2.3739
  157DOPC    C318864   5.573   4.302   8.264  0.6548  0.2208  0.1317
  157DOPC    HX18865   5.674   4.313   8.309  0.6599  0.2814  0.1056
  157DOPC    HY18866   5.511   4.370   8.326 -0.6155 -1.0977  0.3451
  157DOPC   O3118867   5.583   4.329   8.122  0.4945  0.5199 -0.4302
  157DOPC   C3118868   5.464   4.380   8.079 -0.2653  0.0662 -0.0481
  157DOPC   O3218869   5.362   4.383   8.142 -0.0548 -0.3628 -0.5288
  157DOPC   C3218870   5.494   4.451   7.943  0.3048 -0.6771 -0.2948
  157DOPC   H2X18871   5.479   4.560   7.959 -1.2227 -1.0927  1.5377
  157DOPC   H2Y18872   5.604   4.437   7.929  1.0264  0.2253  3.3601
  157DOPC   C2318873   5.624   3.799   8.012 -0.0050 -0.6618  0.0508
  157DOPC   H3R18874   5.534   3.740   8.040  1.8926 -2.9392  1.6729
  157DOPC   H3S18875   5.699   3.721   7.990  1.8518 -0.0870  3.7126
  157DOPC   C2418876   5.590   3.888   7.891  0.2448 -0.0296 -0.2095
  157DOPC   H4R18877   5.684   3.944   7.870  0.3576 -0.8868 -2.1928
  157DOPC   H4S18878   5.508   3.957   7.924  1.4700 -0.0230  3.3145
  157DOPC   C2518879   5.549   3.801   7.771 -0.1060 -0.0303 -0.7508
  157DOPC   H5R18880   5.459   3.745   7.803 -0.7574  1.5912  0.3760
  157DOPC   H5S18881   5.630   3.726   7.759 -0.8870 -1.2646  1.1151
  157DOPC   C2618882   5.525   3.888   7.645  0.5917 -0.5638 -0.5527
  157DOPC   H6R18883   5.609   3.961   7.647 -1.0148  1.3754  1.8308
  157DOPC   H6S18884   5.436   3.955   7.649  0.0137 -1.2585 -1.4364
  157DOPC   C2718885   5.518   3.808   7.520 -0.7259  0.4767  0.3145
  157DOPC   H7R18886   5.447   3.723   7.533  0.1025 -0.2530  0.1737
  157DOPC   H7S18887   5.619   3.764   7.505 -0.8062  0.1905  0.6045
  157DOPC   C2818888   5.489   3.891   7.402  0.0437  0.0696  0.0583
  157DOPC   H8R18889   5.571   3.965   7.398 -1.8886  2.3101 -0.7873
  157DOPC   H8S18890   5.399   3.953   7.424 -0.4190 -0.5670 -0.0134
  157DOPC   C2918891   5.479   3.804   7.281  0.9906  0.9091  0.3417
  157DOPC   H9R18892   5.421   3.713   7.301  2.0437  0.2820  0.6431
  157DOPC  C21018893   5.539   3.816   7.168 -0.3610  0.3280  0.4735
  157DOPC  H10R18894   5.526   3.743   7.086 -0.5327 -0.4994  1.2180
  157DOPC  C21118895   5.634   3.934   7.132 -0.6283  0.7649  0.2940
  157DOPC  H11R18896   5.740   3.902   7.133 -0.7099  0.4809  0.0125
  157DOPC  H11S18897   5.631   4.012   7.211  2.0010 -1.6112  2.9554
  157DOPC  C21218898   5.615   4.022   7.003 -0.2887 -0.7845 -0.6490
  157DOPC  H12R18899   5.705   4.087   7.006  0.5258 -1.8613  2.8107
  157DOPC  H12S18900   5.524   4.085   7.014  0.7466  0.4643  1.5390
  157DOPC  C21318901   5.608   3.939   6.877 -0.8389 -0.2722  0.2278
  157DOPC  H13R18902   5.518   3.874   6.865  0.5360 -2.2436  0.1243
  157DOPC  H13S18903   5.692   3.867   6.882 -0.7887 -0.1888  0.6271
  157DOPC  C21418904   5.620   4.021   6.748 -0.3220  0.2331 -0.6146
  157DOPC  H14R18905   5.726   4.053   6.741 -0.0771 -0.5915 -0.8672
  157DOPC  H14S18906   5.550   4.107   6.746  1.3190  1.6003 -0.4246
  157DOPC  C21518907   5.591   3.937   6.617 -0.1177 -0.2235  0.2577
  157DOPC  H15R18908   5.488   3.896   6.614  1.0864 -3.7392  1.5302
  157DOPC  H15S18909   5.658   3.850   6.632 -0.2971 -0.1051  1.9989
  157DOPC  C21618910   5.622   4.026   6.500 -0.3030  0.5887  0.0352
  157DOPC  H16R18911   5.730   4.046   6.486 -0.4655  0.5183 -1.5945
  157DOPC  H16S18912   5.574   4.125   6.513  1.9552  1.8464 -0.7253
  157DOPC  C21718913   5.572   3.964   6.370 -0.0440  0.4701  0.3278
  157DOPC  H17R18914   5.465   3.934   6.362 -0.9793  3.3562  0.6234
  157DOPC  H17S18915   5.637   3.878   6.342 -0.5430  0.5824 -1.2806
  157DOPC  C21818916   5.589   4.074   6.260 -0.6824  0.1005  0.3251
  157DOPC  H18R18917   5.699   4.087   6.255 -0.5113  1.4064  4.1814
  157DOPC  H18S18918   5.541   4.172   6.283  2.0610  2.1381 -1.8422
  157DOPC  H18T18919   5.532   4.050   6.167 -0.9759 -0.2613  0.5966
  157DOPC   C3318920   5.406   4.401   7.821 -1.2343  0.0216 -0.0321
  157DOPC   H3X18921   5.299   4.429   7.831 -1.1863 -0.3988  2.3844
  157DOPC   H3Y18922   5.414   4.290   7.828  0.2989  0.1678  1.1666
  157DOPC   C3418923   5.474   4.435   7.686  1.0585  0.4569  0.0633
  157DOPC   H4X18924   5.574   4.388   7.698  0.1074 -1.1548  2.5386
  157DOPC   H4Y18925   5.484   4.544   7.666  2.1477  0.6160  1.2756
  157DOPC   C3518926   5.393   4.361   7.570  0.2065  0.3125 -0.3326
  157DOPC   H5X18927   5.285   4.377   7.593  0.1528  0.9715 -0.9838
  157DOPC   H5Y18928   5.410   4.253   7.589  1.4863  0.0848 -2.4067
  157DOPC   C3618929   5.419   4.397   7.428  0.0873  0.1976  0.0254
  157DOPC   H6X18930   5.379   4.498   7.405 -1.8461 -0.2031  1.4684
  157DOPC   H6Y18931   5.528   4.405   7.404 -0.3033 -0.4424 -2.1749
  157DOPC   C3718932   5.346   4.303   7.329  0.2029  0.9452 -0.5998
  157DOPC   H7X18933   5.400   4.206   7.337  0.6833  1.2412 -0.2509
  157DOPC   H7Y18934   5.239   4.300   7.360  0.7349  0.4372  1.3327
  157DOPC   C3818935   5.376   4.345   7.181  0.2713  0.0488 -0.4457
  157DOPC   H8X18936   5.486   4.340   7.166  0.6389 -0.3905  2.0051
  157DOPC   H8Y18937   5.340   4.450   7.173  1.5337  0.7622  2.1144
  157DOPC   C3918938   5.303   4.264   7.080 -0.0700  0.2866  0.1516
  157DOPC   H9X18939   5.218   4.208   7.121  1.2477 -1.9321  0.0887
  157DOPC  C31018940   5.326   4.269   6.949 -0.2309  0.1460  0.3186
  157DOPC  H10X18941   5.271   4.203   6.881 -1.1636  0.3071  0.8965
  157DOPC  C31118942   5.420   4.377   6.887  0.1178 -0.7176 -0.1162
  157DOPC  H11X18943   5.513   4.330   6.849  0.0486  0.6101 -2.0414
  157DOPC  H11Y18944   5.445   4.458   6.960 -2.3383 -2.2384  2.6338
  157DOPC  C31218945   5.359   4.441   6.763 -0.7410  0.5692 -0.1057
  157DOPC  H12X18946   5.405   4.538   6.735  1.0047 -0.6544 -1.7210
  157DOPC  H12Y18947   5.250   4.457   6.776 -0.4705  0.6408  2.5360
  157DOPC  C31318948   5.371   4.336   6.648  0.4696  0.7677 -0.2994
  157DOPC  H13X18949   5.478   4.324   6.617  0.7102  1.5313  0.2040
  157DOPC  H13Y18950   5.338   4.239   6.690  0.5155 -0.5212 -3.0214
  157DOPC  C31418951   5.288   4.373   6.519  0.6318  0.0917  0.3385
  157DOPC  H14X18952   5.304   4.294   6.442 -0.3308  2.2681 -2.2331
  157DOPC  H14Y18953   5.180   4.379   6.544  0.8177  2.0233  0.8104
  157DOPC  C31518954   5.321   4.514   6.460 -0.5187 -0.5214  0.4053
  157DOPC  H15X18955   5.308   4.599   6.530 -1.1366 -0.0222 -0.3020
  157DOPC  H15Y18956   5.247   4.540   6.381  0.2267  0.6825  0.0700
  157DOPC  C31618957   5.459   4.531   6.406 -0.9833  0.3949  0.2457
  157DOPC  H16X18958   5.530   4.529   6.492 -1.5875 -1.5283  0.7482
  157DOPC  H16Y18959   5.485   4.446   6.339  2.8319 -0.2034  2.1859
  157DOPC  C31718960   5.482   4.672   6.354 -0.1937 -0.1267  0.4536
  157DOPC  H17X18961   5.391   4.731   6.329 -1.3014 -0.8231  2.6056
  157DOPC  H17Y18962   5.530   4.743   6.424  0.0599  2.0165 -1.7609
  157DOPC  C31818963   5.577   4.667   6.229  0.9075  0.3539  0.8747
  157DOPC  H18X18964   5.586   4.753   6.161 -0.6616 -0.7629 -0.8414
  157DOPC  H18Y18965   5.682   4.641   6.255  0.5993 -1.7194  0.2938
  157DOPC  H18Z18966   5.539   4.599   6.149  3.9529  1.3873 -1.6465
  158DOPC     N18967   4.131   1.920   8.551 -0.2613 -0.6122 -0.2934
  158DOPC   C1218968   4.032   1.812   8.578 -0.6894  0.7417  0.6593
  158DOPC  H12A18969   3.946   1.854   8.630 -0.6823 -0.6720  1.8884
  158DOPC  H12B18970   4.075   1.747   8.653 -1.0451 -1.7778 -1.2085
  158DOPC   C1318971   4.228   1.892   8.440  0.5266  0.1053 -1.1800
  158DOPC  H13A18972   4.289   1.806   8.461 -1.6213 -1.2492 -0.1160
  158DOPC  H13B18973   4.167   1.884   8.350 -0.6706  2.6767 -0.6885
  158DOPC  H13C18974   4.281   1.985   8.428 -1.3632  1.3848 -0.0870
  158DOPC   C1418975   4.217   1.935   8.673  0.1238  0.4303  0.4080
  158DOPC  H14A18976   4.297   2.007   8.669  1.1332 -0.6216  1.2744
  158DOPC  H14B18977   4.155   1.977   8.751  2.0222  1.3289  1.4978
  158DOPC  H14C18978   4.256   1.841   8.709 -2.8212 -0.3159  2.0033
  158DOPC   C1518979   4.062   2.048   8.519 -0.3186 -0.3084  0.1045
  158DOPC  H15A18980   3.998   2.026   8.435 -0.0151 -1.3666  0.1432
  158DOPC  H15B18981   4.134   2.121   8.486  1.0059 -0.9924  1.3886
  158DOPC  H15C18982   4.010   2.082   8.608 -1.4015  1.3670 -1.1092
  158DOPC   C1118983   3.980   1.725   8.464  0.3895  0.2699 -0.4642
  158DOPC  H11A18984   3.892   1.668   8.501  1.1694 -2.1636 -2.1039
  158DOPC  H11B18985   3.935   1.790   8.386  0.4721 -0.6862 -1.3301
  158DOPC     P18986   4.116   1.518   8.516  0.2814  0.2293 -0.0660
  158DOPC   O1318987   3.991   1.453   8.572  0.0155 -0.4870  0.0118
  158DOPC   O1418988   4.211   1.574   8.615  0.4216 -0.2630 -0.1964
  158DOPC   O1218989   4.081   1.630   8.416 -0.0199 -0.5365  0.0182
  158DOPC   O1118990   4.184   1.402   8.427 -0.2002 -0.3659 -0.1049
  158DOPC    C118991   4.299   1.429   8.359 -0.0473 -0.7600  0.1560
  158DOPC    HA18992   4.365   1.355   8.409  1.4376  0.9150  0.7935
  158DOPC    HB18993   4.345   1.527   8.383 -0.5151 -0.2685 -0.9361
  158DOPC    C218994   4.298   1.412   8.203 -0.2860 -0.6508  0.1023
  158DOPC    HS18995   4.398   1.444   8.166 -0.8108  1.1854  0.1509
  158DOPC   O2118996   4.210   1.504   8.137 -0.6859 -0.0865 -0.2230
  158DOPC   C2118997   4.238   1.632   8.151  0.4800  0.3078 -0.1347
  158DOPC   O2218998   4.335   1.674   8.208 -0.6913  0.7294 -0.2767
  158DOPC   C2218999   4.131   1.713   8.080 -0.5283  0.7444 -0.1376
  158DOPC   H2R19000   4.188   1.808   8.069 -0.8101  0.8860 -0.3766
  158DOPC   H2S19001   4.046   1.713   8.150 -0.0589  3.7912  0.5439
  158DOPC    C319002   4.273   1.270   8.154 -0.4098 -0.6649 -0.1201
  158DOPC    HX19003   4.184   1.242   8.215  0.5174  0.5719  1.9472
  158DOPC    HY19004   4.357   1.203   8.183 -0.0101 -0.4025 -0.6585
  158DOPC   O3119005   4.252   1.262   8.009  0.1244  0.0090 -0.1394
  158DOPC   C3119006   4.366   1.284   7.935 -0.2205  0.1249  0.2177
  158DOPC   O3219007   4.479   1.268   7.983 -0.2130  0.4728  0.6747
  158DOPC   C3219008   4.340   1.276   7.782  0.0483 -0.0611  0.1691
  158DOPC   H2X19009   4.435   1.311   7.736  0.1494 -0.3844  0.1310
  158DOPC   H2Y19010   4.328   1.169   7.756 -1.6238  0.4544 -1.4597
  158DOPC   C2319011   4.099   1.655   7.930  0.3137  0.7106 -0.0653
  158DOPC   H3R19012   4.073   1.549   7.952  1.5068  0.0005 -1.8511
  158DOPC   H3S19013   4.184   1.644   7.860  0.5849  2.1908  0.0015
  158DOPC   C2419014   3.975   1.730   7.872  0.0226 -0.2173 -0.1981
  158DOPC   H4R19015   4.003   1.836   7.850 -0.4807 -0.2556 -1.0748
  158DOPC   H4S19016   3.899   1.716   7.952  0.1402 -2.3906 -0.4059
  158DOPC   C2519017   3.912   1.661   7.753  0.0449 -0.1793  0.0313
  158DOPC   H5R19018   3.803   1.681   7.745  0.0492 -0.4841 -0.9669
  158DOPC   H5S19019   3.922   1.552   7.773  0.7855 -0.0064  0.6384
  158DOPC   C2619020   3.974   1.700   7.615  0.1048 -0.2451 -0.1680
  158DOPC   H6R19021   4.084   1.710   7.628 -0.0069  2.8894 -1.0545
  158DOPC   H6S19022   3.938   1.802   7.593  2.2465  0.5906  0.0360
  158DOPC   C2719023   3.945   1.595   7.507  0.2093 -0.1759  0.2383
  158DOPC   H7R19024   3.837   1.587   7.484 -0.1134  0.7897  1.3007
  158DOPC   H7S19025   3.969   1.497   7.554  0.6487 -0.7061 -1.0478
  158DOPC   C2819026   4.028   1.619   7.380  0.4214  0.3984 -0.3945
  158DOPC   H8R19027   4.016   1.527   7.319 -0.3858  0.1381  0.1522
  158DOPC   H8S19028   4.130   1.619   7.426 -0.4737 -0.3418  1.6794
  158DOPC   C2919029   3.980   1.741   7.310  0.2616  0.6420  0.2614
  158DOPC   H9R19030   3.985   1.833   7.370  1.0795  0.4631  0.4717
  158DOPC  C21019031   3.921   1.743   7.189 -0.6438 -0.1205 -0.6040
  158DOPC  H10R19032   3.878   1.840   7.158 -3.6173 -0.3921  2.1145
  158DOPC  C21119033   3.911   1.637   7.079 -1.1301  0.4820  0.1975
  158DOPC  H11R19034   3.812   1.634   7.030  0.0667  1.9091 -2.5070
  158DOPC  H11S19035   3.953   1.543   7.122  0.9722  0.2133 -2.2078
  158DOPC  C21219036   4.013   1.679   6.975 -0.1662 -1.2601  0.0561
  158DOPC  H12R19037   4.120   1.686   7.003  0.0152 -0.4519 -0.7897
  158DOPC  H12S19038   3.990   1.778   6.929  1.7010 -0.9977 -0.3659
  158DOPC  C21319039   4.023   1.578   6.855 -0.2894  0.5904  0.1588
  158DOPC  H13R19040   4.074   1.487   6.891 -0.5463  1.1243  1.9708
  158DOPC  H13S19041   4.088   1.632   6.783  1.6259  1.8295  2.6672
  158DOPC  C21419042   3.891   1.565   6.781 -0.0216  0.2510  0.1664
  158DOPC  H14R19043   3.833   1.660   6.779 -0.4770  0.0030  1.0519
  158DOPC  H14S19044   3.826   1.494   6.838  2.8146 -0.9709  2.1086
  158DOPC  C21519045   3.907   1.503   6.640  0.2737 -0.0494 -0.2977
  158DOPC  H15R19046   3.935   1.398   6.662 -0.3078  0.3639  2.9511
  158DOPC  H15S19047   3.975   1.566   6.580 -1.5533  1.7548 -0.5877
  158DOPC  C21619048   3.776   1.489   6.556  0.3556  0.3330  0.1869
  158DOPC  H16R19049   3.701   1.567   6.579 -0.5756 -0.6818  0.6680
  158DOPC  H16S19050   3.726   1.390   6.558  0.0622  0.4780  2.4016
  158DOPC  C21719051   3.809   1.529   6.411  0.2734  0.0105  0.1486
  158DOPC  H17R19052   3.907   1.483   6.387 -0.0313 -0.0252 -1.0763
  158DOPC  H17S19053   3.833   1.637   6.421 -1.6463  0.4854  0.0340
  158DOPC  C21819054   3.707   1.507   6.302  0.0319  0.2368  0.0810
  158DOPC  H18R19055   3.733   1.555   6.205 -1.5639  3.0346  0.9297
  158DOPC  H18S19056   3.605   1.534   6.336  0.9420  1.1914  2.2404
  158DOPC  H18T19057   3.712   1.401   6.268 -0.3339  0.0889  0.4746
  158DOPC   C3319058   4.213   1.340   7.725 -0.3640  0.2403  0.6772
  158DOPC   H3X19059   4.224   1.451   7.719  0.2585  0.2426  1.6904
  158DOPC   H3Y19060   4.124   1.314   7.787 -1.5319  1.9115 -0.2095
  158DOPC   C3419061   4.184   1.275   7.577  0.2320 -0.7759  0.1537
  158DOPC   H4X19062   4.076   1.288   7.556  0.3970 -0.3257 -0.4710
  158DOPC   H4Y19063   4.223   1.171   7.574  0.6360 -0.7612  2.5613
  158DOPC   C3519064   4.270   1.338   7.462 -0.3743  0.0514 -0.0213
  158DOPC   H5X19065   4.373   1.298   7.464  0.1611  1.3376 -0.6102
  158DOPC   H5Y19066   4.276   1.449   7.472 -1.0549 -0.0096  1.3608
  158DOPC   C3619067   4.224   1.303   7.329 -0.2279 -0.3607  0.1887
  158DOPC   H6X19068   4.213   1.192   7.333  1.0936 -0.4655  2.2927
  158DOPC   H6Y19069   4.121   1.343   7.316 -0.7419 -0.5858  2.9231
  158DOPC   C3719070   4.328   1.336   7.219 -0.2804  0.2948  0.6059
  158DOPC   H7X19071   4.329   1.447   7.213 -3.6176  0.3998  0.2012
  158DOPC   H7Y19072   4.424   1.297   7.260  0.0236  0.9642  0.5413
  158DOPC   C3819073   4.291   1.285   7.076  0.4359 -0.0175  0.1128
  158DOPC   H8X19074   4.359   1.338   7.006  1.1697 -0.9285  0.1314
  158DOPC   H8Y19075   4.190   1.324   7.051  1.1965  1.6964 -0.4086
  158DOPC   C3919076   4.297   1.143   7.047  0.2127  0.0301 -0.4301
  158DOPC   H9X19077   4.299   1.080   7.136  0.5707  0.9196  0.2104
  158DOPC  C31019078   4.330   1.086   6.929 -0.1073  0.3699  0.3560
  158DOPC  H10X19079   4.329   0.976   6.928 -0.4254  0.3666  0.6050
  158DOPC  C31119080   4.349   1.160   6.803 -0.7175  0.1196 -0.0748
  158DOPC  H11X19081   4.431   1.108   6.751 -1.5759 -0.4747 -0.8712
  158DOPC  H11Y19082   4.374   1.268   6.814 -0.9355  0.2619 -0.9213
  158DOPC  C31219083   4.215   1.149   6.714 -0.7145 -0.5422  0.1314
  158DOPC  H12X19084   4.130   1.204   6.759  0.1737  1.0035  0.0055
  158DOPC  H12Y19085   4.186   1.042   6.723 -2.6172 -0.0403  0.3319
  158DOPC  C31319086   4.246   1.192   6.569  0.4457  0.1849  0.3435
  158DOPC  H13X19087   4.327   1.128   6.530 -0.5642 -1.1180  0.3383
  158DOPC  H13Y19088   4.153   1.161   6.518  1.2825 -0.7994 -0.6104
  158DOPC  C31419089   4.267   1.341   6.549 -0.2047 -0.4254  0.5478
  158DOPC  H14X19090   4.183   1.396   6.596 -1.9434  0.6984 -3.5050
  158DOPC  H14Y19091   4.368   1.376   6.580 -1.2013  0.2311  3.3911
  158DOPC  C31519092   4.250   1.361   6.397 -0.1933  0.0607 -0.7255
  158DOPC  H15X19093   4.142   1.350   6.370 -0.3701 -1.8207  0.4939
  158DOPC  H15Y19094   4.306   1.302   6.322  0.3821 -0.8069  0.3477
  158DOPC  C31619095   4.289   1.502   6.363  0.1584 -0.5509  0.1571
  158DOPC  H16X19096   4.242   1.566   6.441  2.7517 -1.1608  2.3805
  158DOPC  H16Y19097   4.399   1.510   6.369  0.0134  1.5084  0.9385
  158DOPC  C31719098   4.253   1.544   6.221  0.1268  0.2486 -0.2812
  158DOPC  H17X19099   4.298   1.641   6.191 -1.7239  1.6040  1.1314
  158DOPC  H17Y19100   4.297   1.466   6.155  0.3351 -1.7743  2.0958
  158DOPC  C31819101   4.100   1.558   6.190 -0.5040  0.7243  0.3487
  158DOPC  H18X19102   4.061   1.611   6.279  1.3212 -0.3235  1.8718
  158DOPC  H18Y19103   4.079   1.629   6.108 -0.2276  1.3983  0.8502
  158DOPC  H18Z19104   4.033   1.469   6.195 -1.5043  1.4764  0.6447
  159DOPC     N19105   0.298   3.932   9.044  0.2166  0.6822  0.2848
  159DOPC   C1219106   0.309   3.936   8.892  0.0756 -0.7375  0.1788
  159DOPC  H12A19107   0.209   3.919   8.854  0.8079 -1.8405 -1.3811
  159DOPC  H12B19108   0.369   3.855   8.852  0.8062 -0.6932  1.1529
  159DOPC   C1319109   0.267   3.788   9.087 -0.5551 -0.9528  0.5859
  159DOPC  H13A19110   0.186   3.733   9.042  1.6692 -3.8138 -0.2394
  159DOPC  H13B19111   0.349   3.722   9.061  1.1613  1.0104  0.7488
  159DOPC  H13C19112   0.262   3.785   9.194 -0.0729  3.5260  0.8973
  159DOPC   C1419113   0.192   4.019   9.099  1.2524  0.5210  0.7353
  159DOPC  H14A19114   0.092   3.999   9.065  1.4368  1.7199 -0.6058
  159DOPC  H14B19115   0.185   4.025   9.207 -1.1169  3.5468  0.5492
  159DOPC  H14C19116   0.203   4.121   9.066 -2.0803  0.1822 -1.8937
  159DOPC   C1519117   0.429   3.969   9.108  0.3873  0.0817 -0.1004
  159DOPC  H15A19118   0.461   4.071   9.092 -1.1826  0.3735 -1.6316
  159DOPC  H15B19119   0.510   3.909   9.068 -1.9540 -2.1919 -1.7016
  159DOPC  H15C19120   0.443   3.938   9.211 -2.2778 -0.4765  0.1561
  159DOPC   C1119121   0.351   4.069   8.827 -0.5328 -0.5451 -0.0981
  159DOPC  H11A19122   0.451   4.100   8.865  0.4116 -2.0741 -1.1959
  159DOPC  H11B19123   0.358   4.048   8.718  1.4695 -2.3303  0.3077
  159DOPC     P19124   0.122   4.188   8.786  0.0076  0.1896  0.1962
  159DOPC   O1319125   0.050   4.293   8.859 -0.0851  1.1051  0.6022
  159DOPC   O1419126   0.058   4.059   8.769  0.2894  0.1247  0.1671
  159DOPC   O1219127   0.266   4.183   8.854 -0.0662 -0.4525  0.3311
  159DOPC   O1119128   0.158   4.231   8.636 -0.7665 -0.3754 -0.7101
  159DOPC    C119129   0.241   4.338   8.603  0.2457  0.2017  0.1293
  159DOPC    HA19130   0.345   4.329   8.640  0.0803 -0.0977  0.5234
  159DOPC    HB19131   0.201   4.427   8.656  0.4192 -0.7105  1.8561
  159DOPC    C219132   0.236   4.367   8.447  0.8816 -0.3177 -0.2359
  159DOPC    HS19133   0.282   4.464   8.419  1.3623 -0.1538  1.0782
  159DOPC   O2119134   0.097   4.365   8.407  0.0535  0.0880 -0.0168
  159DOPC   C2119135   0.023   4.468   8.435 -0.5084  0.4417 -0.0326
  159DOPC   O2219136   0.069   4.575   8.481 -0.1943  0.1837  1.0569
  159DOPC   C2219137  -0.115   4.443   8.390 -0.3063  0.2260  0.5416
  159DOPC   H2R19138  -0.188   4.515   8.433 -0.2073  1.4221 -1.1900
  159DOPC   H2S19139  -0.142   4.338   8.412  0.2444  0.4070  2.2089
  159DOPC    C319140   0.296   4.239   8.378 -0.4199 -0.5197 -0.0746
  159DOPC    HX19141   0.241   4.147   8.408 -0.1796 -0.8517 -0.6434
  159DOPC    HY19142   0.403   4.225   8.403  0.3353  0.6432 -2.3475
  159DOPC   O3119143   0.274   4.244   8.235 -0.3645  0.0910 -0.1100
  159DOPC   C3119144   0.360   4.324   8.170 -0.0468 -0.5936 -0.0074
  159DOPC   O3219145   0.453   4.382   8.217  0.1576 -0.1749  0.1243
  159DOPC   C3219146   0.319   4.332   8.016 -0.5323  0.2543  0.4095
  159DOPC   H2X19147   0.402   4.286   7.958  0.0229  1.3549  0.3103
  159DOPC   H2Y19148   0.222   4.278   8.016  0.0801 -0.8825 -0.1752
  159DOPC   C2319149  -0.106   4.472   8.238 -0.8110 -0.0100 -0.1953
  159DOPC   H3R19150  -0.200   4.428   8.198  0.1434 -1.1007 -1.3084
  159DOPC   H3S19151  -0.025   4.412   8.191 -0.0431 -0.3393  1.4472
  159DOPC   C2419152  -0.106   4.622   8.204  0.5228 -1.1988 -0.2130
  159DOPC   H4R19153  -0.005   4.666   8.216 -0.2164  0.4688  0.2280
  159DOPC   H4S19154  -0.174   4.677   8.272  0.7434 -0.1950 -0.7820
  159DOPC   C2519155  -0.145   4.648   8.063 -0.5493  0.7457  0.0787
  159DOPC   H5R19156  -0.087   4.582   7.995  0.6602  1.7932  0.0604
  159DOPC   H5S19157  -0.122   4.755   8.045 -0.5844  0.6207 -0.7277
  159DOPC   C2619158  -0.291   4.628   8.035  0.4958  0.8204 -1.0056
  159DOPC   H6R19159  -0.353   4.692   8.101  0.9905 -0.4870  0.8011
  159DOPC   H6S19160  -0.312   4.520   8.051  2.5730  0.3437 -1.2518
  159DOPC   C2719161  -0.331   4.672   7.897  0.4000 -0.5342 -0.1807
  159DOPC   H7R19162  -0.267   4.613   7.827  0.6731  0.8227 -1.1053
  159DOPC   H7S19163  -0.285   4.773   7.889 -1.7946  0.4615 -0.9487
  159DOPC   C2819164  -0.480   4.672   7.887 -0.0367  0.2156  0.9262
  159DOPC   H8R19165  -0.524   4.765   7.845 -0.6161 -0.0701  0.8900
  159DOPC   H8S19166  -0.525   4.659   7.987 -0.7628  0.0444  0.5787
  159DOPC   C2919167  -0.519   4.570   7.790 -0.4850  0.2724  0.7896
  159DOPC   H9R19168  -0.542   4.471   7.833  0.3085 -0.9025 -1.3625
  159DOPC  C21019169  -0.516   4.585   7.651  0.0819 -0.2694 -0.8719
  159DOPC  H10R19170  -0.533   4.497   7.588 -0.3828  0.5440 -1.8933
  159DOPC  C21119171  -0.475   4.709   7.575 -0.0404 -0.5224  0.7848
  159DOPC  H11R19172  -0.447   4.794   7.642  0.2112  1.9638 -2.2199
  159DOPC  H11S19173  -0.566   4.751   7.526  0.1169 -1.9434 -0.7965
  159DOPC  C21219174  -0.367   4.679   7.474 -0.1575  0.2847  0.8468
  159DOPC  H12R19175  -0.270   4.671   7.527 -0.1044 -0.2446  0.6708
  159DOPC  H12S19176  -0.365   4.759   7.396 -2.4818  0.7740  1.2134
  159DOPC  C21319177  -0.379   4.556   7.384  0.1951  0.3517 -0.1856
  159DOPC  H13R19178  -0.391   4.455   7.429  0.7688  0.1324 -0.5232
  159DOPC  H13S19179  -0.278   4.540   7.340  0.7816 -1.8480  1.7336
  159DOPC  C21419180  -0.488   4.584   7.272 -0.8215 -0.3256 -0.6005
  159DOPC  H14R19181  -0.471   4.683   7.223  2.0715  1.1411  2.9238
  159DOPC  H14S19182  -0.590   4.585   7.314  0.1220  0.0852  1.8500
  159DOPC  C21519183  -0.460   4.481   7.168  0.0142  0.1141 -0.2826
  159DOPC  H15R19184  -0.470   4.376   7.204 -1.6818  1.1481  2.6276
  159DOPC  H15S19185  -0.353   4.478   7.141 -0.1640 -2.9368 -0.9498
  159DOPC  C21619186  -0.538   4.518   7.044 -0.0974 -0.9228 -0.1570
  159DOPC  H16R19187  -0.491   4.606   6.996 -0.1353 -2.1723 -2.6559
  159DOPC  H16S19188  -0.640   4.552   7.072  0.2292  1.0104 -1.1288
  159DOPC  C21719189  -0.545   4.403   6.939  0.4057  0.3974  0.0951
  159DOPC  H17R19190  -0.623   4.429   6.865 -3.7419  0.0525  3.9658
  159DOPC  H17S19191  -0.579   4.312   6.993 -1.4022  1.1335  0.2578
  159DOPC  C21819192  -0.405   4.376   6.866 -0.4620  0.1131  0.2162
  159DOPC  H18R19193  -0.383   4.273   6.831 -1.2971 -0.9409  2.5774
  159DOPC  H18S19194  -0.325   4.407   6.937 -1.4067  0.3727  1.1823
  159DOPC  H18T19195  -0.411   4.450   6.783  0.6555  1.3654  1.1939
  159DOPC   C3319196   0.298   4.482   7.978  0.4910  0.2008  0.6512
  159DOPC   H3X19197   0.389   4.545   7.969 -0.3211  1.2337 -0.7622
  159DOPC   H3Y19198   0.236   4.536   8.054  1.3318  1.0371  0.7704
  159DOPC   C3419199   0.239   4.483   7.834 -0.0066 -0.2703 -0.2562
  159DOPC   H4X19200   0.216   4.590   7.814  0.0627  0.2430  2.1989
  159DOPC   H4Y19201   0.143   4.428   7.820 -0.5999  1.1687 -2.3519
  159DOPC   C3519202   0.344   4.445   7.726 -0.4855 -0.4070  0.4683
  159DOPC   H5X19203   0.379   4.342   7.749 -2.1037 -1.6141 -2.0040
  159DOPC   H5Y19204   0.429   4.517   7.726  0.7728 -1.8462  0.3732
  159DOPC   C3619205   0.286   4.437   7.586 -0.0624 -0.3073  0.1146
  159DOPC   H6X19206   0.227   4.344   7.572 -0.4371 -0.1972  0.9134
  159DOPC   H6Y19207   0.223   4.527   7.568  0.0886 -0.4623 -1.2672
  159DOPC   C3719208   0.389   4.457   7.469  0.2174 -0.4544  0.2241
  159DOPC   H7X19209   0.438   4.555   7.483  0.6178 -0.5339 -0.5412
  159DOPC   H7Y19210   0.457   4.369   7.463  0.8309  0.0966 -2.0826
  159DOPC   C3819211   0.331   4.478   7.326  0.1615 -0.2348 -0.2475
  159DOPC   H8X19212   0.419   4.516   7.270  1.8553 -1.6362  1.3584
  159DOPC   H8Y19213   0.250   4.554   7.327  0.4264  0.0506  0.7852
  159DOPC   C3919214   0.278   4.354   7.257 -0.5894  0.1176  0.2681
  159DOPC   H9X19215   0.195   4.304   7.308 -1.0032  0.3496 -0.1724
  159DOPC  C31019216   0.310   4.313   7.128  0.3329  0.0562 -0.2650
  159DOPC  H10X19217   0.237   4.244   7.085  1.7384 -0.8555 -1.2755
  159DOPC  C31119218   0.401   4.369   7.029  0.2133 -0.1401  0.0072
  159DOPC  H11X19219   0.497   4.314   7.023  0.1104 -0.1826 -1.7780
  159DOPC  H11Y19220   0.428   4.473   7.057  0.8611 -0.2781 -0.0961
  159DOPC  C31219221   0.340   4.385   6.891 -0.2573  0.1120  0.2816
  159DOPC  H12X19222   0.308   4.293   6.838 -2.8868  0.6163  0.9035
  159DOPC  H12Y19223   0.422   4.437   6.836 -1.2102  0.3603 -0.9384
  159DOPC  C31319224   0.222   4.484   6.885  0.2849  0.7881  1.3058
  159DOPC  H13X19225   0.127   4.458   6.937 -0.5795 -0.7856 -0.9057
  159DOPC  H13Y19226   0.264   4.580   6.920  2.5821  1.1927 -2.1256
  159DOPC  C31419227   0.175   4.506   6.733 -0.1318  0.1419  0.0226
  159DOPC  H14X19228   0.265   4.545   6.681  0.8368 -1.2222  0.5977
  159DOPC  H14Y19229   0.139   4.412   6.686 -1.1391  0.9113 -0.7804
  159DOPC  C31519230   0.064   4.608   6.705 -0.0646 -0.3010 -0.4419
  159DOPC  H15X19231   0.098   4.712   6.722  0.6766 -0.4831 -0.7688
  159DOPC  H15Y19232  -0.020   4.577   6.771 -0.2328  1.1262  0.0321
  159DOPC  C31619233   0.011   4.581   6.560  0.3161  0.6742 -0.2296
  159DOPC  H16X19234   0.086   4.534   6.493 -0.7273 -1.1799 -0.1914
  159DOPC  H16Y19235  -0.072   4.509   6.580  0.0170  0.8970 -0.6626
  159DOPC  C31719236  -0.056   4.708   6.503 -0.1163  0.2328  0.1274
  159DOPC  H17X19237  -0.126   4.757   6.574  0.9975  3.8850 -1.0882
  159DOPC  H17Y19238   0.029   4.778   6.489 -0.5163  0.4264 -1.5118
  159DOPC  C31819239  -0.118   4.683   6.367  0.1831  0.4094 -0.1956
  159DOPC  H18X19240  -0.178   4.589   6.367  0.6003  0.1288  0.9297
  159DOPC  H18Y19241  -0.184   4.761   6.323 -2.1308 -1.6057 -0.5187
  159DOPC  H18Z19242  -0.041   4.678   6.287 -0.2605 -0.9776 -0.5649
  160DOPC     N19243   2.674   1.987   9.240  0.2280  0.2062 -0.7147
  160DOPC   C1219244   2.711   2.002   9.096 -0.2289 -0.2093  0.4167
  160DOPC  H12A19245   2.692   1.909   9.045  1.4536  0.2036 -1.0237
  160DOPC  H12B19246   2.816   2.023   9.086 -0.4161  0.1439 -1.0350
  160DOPC   C1319247   2.777   1.893   9.308  0.1151  0.6364  0.6208
  160DOPC  H13A19248   2.868   1.944   9.338  0.3994  0.5301 -0.0332
  160DOPC  H13B19249   2.741   1.860   9.404 -2.3219  0.7827 -0.1730
  160DOPC  H13C19250   2.809   1.813   9.243  1.3897  0.7380  1.0791
  160DOPC   C1419251   2.549   1.918   9.261 -0.1873 -0.5092 -0.2801
  160DOPC  H14A19252   2.521   1.843   9.189  2.0373 -2.0715  0.3713
  160DOPC  H14B19253   2.539   1.860   9.351 -0.8686 -1.4447 -0.9380
  160DOPC  H14C19254   2.463   1.983   9.261  0.9405  1.0373 -0.4024
  160DOPC   C1519255   2.669   2.114   9.321 -0.5989 -0.8210  0.2657
  160DOPC  H15A19256   2.618   2.092   9.414 -1.5255  2.6787  0.7190
  160DOPC  H15B19257   2.627   2.199   9.271 -0.2899 -1.4060 -1.0194
  160DOPC  H15C19258   2.769   2.136   9.355 -0.2922 -1.8394  0.0564
  160DOPC   C1119259   2.633   2.111   9.017  0.8423  0.3194  0.4866
  160DOPC  H11A19260   2.661   2.210   9.058  0.8119  0.2552  0.6619
  160DOPC  H11B19261   2.671   2.115   8.912  0.5363 -0.9617  0.3065
  160DOPC     P19262   2.433   1.961   8.939  0.2678 -0.2514  0.1069
  160DOPC   O1319263   2.298   1.933   8.993 -0.6427  0.0766 -0.2554
  160DOPC   O1419264   2.529   1.849   8.934  0.1600 -0.1358 -0.4091
  160DOPC   O1219265   2.495   2.089   9.018  0.1340 -0.0110  0.3017
  160DOPC   O1119266   2.421   2.012   8.790 -0.2411 -0.0062  0.3602
  160DOPC    C119267   2.330   2.123   8.761 -0.0684  0.5602  0.1247
  160DOPC    HA19268   2.383   2.219   8.775 -1.1858  1.3563 -0.9308
  160DOPC    HB19269   2.241   2.112   8.826 -0.0219 -0.3104  0.0584
  160DOPC    C219270   2.283   2.105   8.615  0.2542  0.1586 -0.3960
  160DOPC    HS19271   2.189   2.165   8.609 -0.3253 -0.4525  1.7061
  160DOPC   O2119272   2.258   1.973   8.579  0.0850 -0.0191  0.0814
  160DOPC   C2119273   2.158   1.915   8.643 -0.2290  0.2970 -0.0401
  160DOPC   O2219274   2.077   1.979   8.712 -0.3905 -0.2298 -0.3017
  160DOPC   C2219275   2.157   1.766   8.629 -0.2697  0.4736 -0.1296
  160DOPC   H2R19276   2.170   1.714   8.727  3.1358 -0.3117 -0.8546
  160DOPC   H2S19277   2.246   1.729   8.574 -0.3153 -0.1430  0.1955
  160DOPC    C319278   2.389   2.148   8.514  0.4620  0.1916 -0.6410
  160DOPC    HX19279   2.481   2.088   8.529  0.6688  0.6196 -0.1559
  160DOPC    HY19280   2.425   2.251   8.534  3.0532 -0.2504 -2.4859
  160DOPC   O3119281   2.331   2.138   8.381 -0.1655  0.5101  0.0599
  160DOPC   C3119282   2.375   2.038   8.302 -0.2083  0.3154  1.4608
  160DOPC   O3219283   2.443   1.944   8.336  0.1697 -0.0002 -0.0457
  160DOPC   C3219284   2.311   2.060   8.168  0.3011  0.3499  0.6032
  160DOPC   H2X19285   2.201   2.070   8.175  0.3471  1.7919 -0.3047
  160DOPC   H2Y19286   2.353   2.156   8.132 -0.4202 -0.0033 -1.3046
  160DOPC   C2319287   2.025   1.703   8.555 -0.1323 -0.0480 -0.7331
  160DOPC   H3R19288   2.047   1.595   8.542  1.6986  0.4713 -2.4197
  160DOPC   H3S19289   2.010   1.755   8.459 -0.7162 -0.4875 -0.8835
  160DOPC   C2419290   1.906   1.710   8.654 -0.0085  0.7082  0.7594
  160DOPC   H4R19291   1.879   1.809   8.698 -2.5835  0.8819 -0.9943
  160DOPC   H4S19292   1.925   1.635   8.733  1.6660 -1.7976 -1.8271
  160DOPC   C2519293   1.780   1.649   8.581  0.0821  0.1009  1.2478
  160DOPC   H5R19294   1.718   1.628   8.671 -1.2586 -2.3562 -0.1485
  160DOPC   H5S19295   1.806   1.549   8.540  0.3405  0.4392  0.5764
  160DOPC   C2619296   1.699   1.742   8.489  1.0337  0.0030  0.5684
  160DOPC   H6R19297   1.751   1.768   8.395 -2.9858 -0.2044 -1.9816
  160DOPC   H6S19298   1.662   1.833   8.543 -1.1442 -0.0604 -0.7060
  160DOPC   C2719299   1.577   1.669   8.432 -0.5203  0.4382 -0.3191
  160DOPC   H7R19300   1.514   1.638   8.519  1.2470 -0.0774  0.8187
  160DOPC   H7S19301   1.597   1.572   8.383 -0.2747  0.5422 -0.4243
  160DOPC   C2819302   1.497   1.757   8.342 -1.3672 -0.1248  0.3012
  160DOPC   H8R19303   1.553   1.761   8.247 -0.6225  2.8773  0.7523
  160DOPC   H8S19304   1.514   1.862   8.376  0.1159 -0.0876 -0.4867
  160DOPC   C2919305   1.355   1.725   8.311  0.5506  0.1283 -0.3280
  160DOPC   H9R19306   1.311   1.647   8.374  1.0818  0.8445  0.9707
  160DOPC  C21019307   1.284   1.778   8.207 -0.4332 -0.2919 -0.5838
  160DOPC  H10R19308   1.185   1.739   8.179 -0.3737  0.3596 -1.8063
  160DOPC  C21119309   1.341   1.872   8.111  0.2709  0.9750  0.2774
  160DOPC  H11R19310   1.445   1.905   8.133  1.4818 -1.0632 -1.7628
  160DOPC  H11S19311   1.275   1.960   8.122  0.2392  0.8977  0.7026
  160DOPC  C21219312   1.336   1.822   7.970 -0.5336  0.3821 -0.0785
  160DOPC  H12R19313   1.229   1.811   7.944 -0.2125  0.4055 -1.4766
  160DOPC  H12S19314   1.394   1.727   7.971  1.6460  1.6331  0.7665
  160DOPC  C21319315   1.411   1.915   7.865  0.5756  0.8583  0.0293
  160DOPC  H13R19316   1.511   1.946   7.900  0.1778  2.3413 -0.0732
  160DOPC  H13S19317   1.355   2.011   7.852  0.0983  0.4822 -0.8228
  160DOPC  C21419318   1.419   1.859   7.720  0.5502  0.2094  0.0752
  160DOPC  H14R19319   1.334   1.788   7.720  0.4586  0.2149  2.7992
  160DOPC  H14S19320   1.508   1.797   7.697 -0.1960 -0.3452 -1.5214
  160DOPC  C21519321   1.391   1.968   7.614  0.2691  0.1786 -0.1352
  160DOPC  H15R19322   1.464   2.047   7.644  1.0362 -1.7272  3.6621
  160DOPC  H15S19323   1.286   1.999   7.630  0.4414  0.9337 -0.4276
  160DOPC  C21619324   1.428   1.923   7.476  0.2322 -0.1627  0.6500
  160DOPC  H16R19325   1.377   1.826   7.457 -0.5825  0.5402 -1.0505
  160DOPC  H16S19326   1.536   1.914   7.453  0.3833  0.5847  1.0414
  160DOPC  C21719327   1.386   2.030   7.373 -0.1020  0.2456  0.3093
  160DOPC  H17R19328   1.450   2.117   7.396 -0.0458  0.0623  0.8886
  160DOPC  H17S19329   1.277   2.049   7.379 -0.3219  0.5131 -3.0292
  160DOPC  C21819330   1.426   1.974   7.235  0.2531 -0.7099  0.6924
  160DOPC  H18R19331   1.390   1.870   7.224  0.8439 -0.8735  0.3048
  160DOPC  H18S19332   1.536   1.967   7.227  0.5314  2.2017  0.6725
  160DOPC  H18T19333   1.407   2.032   7.142  2.3517  0.5251  0.9799
  160DOPC   C3319334   2.357   1.947   8.073  0.3074 -0.1690 -0.8117
  160DOPC   H3X19335   2.315   1.850   8.104  0.6860 -0.0670  0.0485
  160DOPC   H3Y19336   2.468   1.949   8.079  0.3632 -1.5974 -1.1516
  160DOPC   C3419337   2.307   1.978   7.932  1.0563  0.7309  0.4664
  160DOPC   H4X19338   2.364   2.068   7.899 -0.5742  0.9043 -2.1303
  160DOPC   H4Y19339   2.200   2.008   7.929  0.5262 -0.9496 -3.1825
  160DOPC   C3519340   2.310   1.864   7.836  0.1960  0.2690  0.1068
  160DOPC   H5X19341   2.242   1.783   7.868  0.1916  0.3958  0.4161
  160DOPC   H5Y19342   2.410   1.816   7.828 -0.8024 -2.0869  0.8788
  160DOPC   C3619343   2.265   1.915   7.696  0.1469 -0.2178  0.3988
  160DOPC   H6X19344   2.157   1.941   7.695  0.2393  0.2088 -0.8114
  160DOPC   H6Y19345   2.329   2.000   7.662  2.3584 -2.6094 -1.9789
  160DOPC   C3719346   2.294   1.806   7.583 -0.1909  0.0776 -0.5766
  160DOPC   H7X19347   2.390   1.749   7.586 -1.3698 -1.9714  0.3498
  160DOPC   H7Y19348   2.222   1.723   7.599 -2.2614  1.5898 -1.5287
  160DOPC   C3819349   2.262   1.862   7.442 -0.2506  0.1664 -0.3615
  160DOPC   H8X19350   2.335   1.942   7.416  0.5705 -0.6023 -0.5001
  160DOPC   H8Y19351   2.158   1.899   7.447 -0.7141 -1.0295 -0.6228
  160DOPC   C3919352   2.277   1.751   7.344  0.0110  0.3086 -0.6387
  160DOPC   H9X19353   2.328   1.659   7.377 -0.6641 -0.1839 -0.9371
  160DOPC  C31019354   2.249   1.756   7.215  0.6109 -0.4459  0.0064
  160DOPC  H10X19355   2.254   1.668   7.149  0.4930 -1.2949  1.0921
  160DOPC  C31119356   2.191   1.879   7.141  0.2624  0.7723  0.0268
  160DOPC  H11X19357   2.199   1.973   7.199  3.9761  1.1684 -0.8950
  160DOPC  H11Y19358   2.085   1.850   7.125  0.8156 -1.2214 -0.3924
  160DOPC  C31219359   2.264   1.881   7.006 -0.6279  0.0646  0.4510
  160DOPC  H12X19360   2.242   1.789   6.948 -2.1526 -0.1642  1.3174
  160DOPC  H12Y19361   2.372   1.899   7.024 -0.8899  1.4304  0.7708
  160DOPC  C31319362   2.218   1.990   6.910 -0.5799  0.2656 -0.3642
  160DOPC  H13X19363   2.115   1.972   6.872  0.0897 -0.2612 -2.0001
  160DOPC  H13Y19364   2.207   2.085   6.967 -0.8943 -1.2589  2.2528
  160DOPC  C31419365   2.318   2.023   6.800 -0.4050  0.5512 -0.3876
  160DOPC  H14X19366   2.418   2.044   6.844 -0.1069 -1.5212  0.0403
  160DOPC  H14Y19367   2.329   1.928   6.742 -0.4564 -0.0323  0.5338
  160DOPC  C31519368   2.278   2.132   6.699 -0.0239 -0.5406 -0.2183
  160DOPC  H15X19369   2.371   2.157   6.643  1.4041  0.7604  2.5498
  160DOPC  H15Y19370   2.256   2.221   6.761 -0.9229  0.0816 -1.3942
  160DOPC  C31619371   2.159   2.109   6.614  0.3797 -0.1427  0.2268
  160DOPC  H16X19372   2.172   2.018   6.550 -0.6292 -0.7266  0.8216
  160DOPC  H16Y19373   2.070   2.097   6.680  0.2226 -0.3806 -0.0209
  160DOPC  C31719374   2.129   2.238   6.537 -0.3817  0.6471  0.4312
  160DOPC  H17X19375   2.140   2.333   6.593 -1.3782  0.9203  0.1729
  160DOPC  H17Y19376   2.208   2.236   6.459 -0.1612 -0.4854  0.6589
  160DOPC  C31819377   1.996   2.237   6.466 -0.2943 -0.3305  0.1447
  160DOPC  H18X19378   1.996   2.148   6.401 -1.7454 -1.4168  1.5640
  160DOPC  H18Y19379   1.903   2.227   6.526 -1.1332 -2.1726 -1.3753
  160DOPC  H18Z19380   1.988   2.325   6.399  1.6983 -0.2287 -0.0424
  161DOPC     N19381   3.617   3.189   8.786 -0.0348 -0.1831  0.1379
  161DOPC   C1219382   3.467   3.183   8.795  0.0781  0.5254  1.3167
  161DOPC  H12A19383   3.423   3.280   8.817  1.0747  1.1969  0.4151
  161DOPC  H12B19384   3.438   3.135   8.888  0.0397 -1.0391  0.5112
  161DOPC   C1319385   3.650   3.229   8.643  0.3151 -0.5883 -0.0857
  161DOPC  H13A19386   3.758   3.234   8.630  0.3830  0.1396  0.6747
  161DOPC  H13B19387   3.609   3.159   8.572 -0.6866  1.5827 -1.7526
  161DOPC  H13C19388   3.603   3.322   8.617 -0.0151 -0.8435 -0.4226
  161DOPC   C1419389   3.689   3.056   8.815  0.4787  0.3247 -0.0327
  161DOPC  H14A19390   3.793   3.083   8.807  0.9862 -1.4962 -0.0212
  161DOPC  H14B19391   3.676   3.015   8.915  0.7642  1.2431  0.3843
  161DOPC  H14C19392   3.661   2.974   8.750 -1.0204  1.0259 -0.3100
  161DOPC   C1519393   3.676   3.288   8.881  0.7133 -0.5731 -0.4692
  161DOPC  H15A19394   3.652   3.274   8.985 -2.1279  0.0235 -0.9481
  161DOPC  H15B19395   3.632   3.384   8.859 -2.0519 -1.6909 -0.3187
  161DOPC  H15C19396   3.784   3.291   8.880  0.7053  0.8175  0.6389
  161DOPC   C1119397   3.391   3.117   8.676  0.6571  0.3401 -0.3225
  161DOPC  H11A19398   3.283   3.136   8.694  0.6007 -0.5402  0.3019
  161DOPC  H11B19399   3.418   3.158   8.576 -1.5016  0.6873 -0.8054
  161DOPC     P19400   3.357   2.872   8.780 -0.4691  0.2171  0.1404
  161DOPC   O1319401   3.233   2.919   8.834 -0.8916  0.4942  0.1713
  161DOPC   O1419402   3.451   2.830   8.891  0.3820 -0.3593 -0.4508
  161DOPC   O1219403   3.423   2.975   8.685 -0.1091  0.0101 -0.3913
  161DOPC   O1119404   3.331   2.748   8.683  0.2886 -0.0926  0.0185
  161DOPC    C119405   3.415   2.704   8.578 -0.7881 -0.4594  0.2712
  161DOPC    HA19406   3.413   2.593   8.578  2.8184 -0.7037 -2.1256
  161DOPC    HB19407   3.519   2.740   8.591 -1.3563  1.0860  0.7590
  161DOPC    C219408   3.369   2.759   8.443  0.0632  0.6297 -0.0917
  161DOPC    HS19409   3.384   2.868   8.450  1.7654  0.3867  0.4825
  161DOPC   O2119410   3.228   2.727   8.425 -0.1550  0.1610 -0.0507
  161DOPC   C2119411   3.163   2.824   8.367  0.4962 -0.6932  0.4680
  161DOPC   O2219412   3.206   2.922   8.305 -0.3130  0.1019  0.2304
  161DOPC   C2219413   3.012   2.794   8.387  0.2398 -0.1102  0.0271
  161DOPC   H2R19414   2.981   2.801   8.494  0.1907  0.4581 -0.0181
  161DOPC   H2S19415   2.993   2.691   8.350  0.1918  0.1358 -0.6459
  161DOPC    C319416   3.460   2.697   8.330 -0.1074 -0.0281  0.3308
  161DOPC    HX19417   3.428   2.591   8.333 -0.8755  0.1900  0.0268
  161DOPC    HY19418   3.568   2.699   8.358  0.2534 -0.2460 -0.9696
  161DOPC   O3119419   3.439   2.758   8.199 -0.4629 -0.2243 -0.0561
  161DOPC   C3119420   3.493   2.877   8.171  0.0148  0.2392 -0.6699
  161DOPC   O3219421   3.569   2.935   8.247 -0.1844  0.3133  0.0135
  161DOPC   C3219422   3.472   2.913   8.022  0.1949  0.3699  0.2742
  161DOPC   H2X19423   3.554   2.984   7.997 -0.1698  0.3066 -1.2024
  161DOPC   H2Y19424   3.480   2.821   7.959 -2.6151  0.9439 -1.0997
  161DOPC   C2319425   2.917   2.903   8.319  0.3579  0.5659  0.1766
  161DOPC   H3R19426   2.951   3.008   8.334  0.2028  0.5103  0.9395
  161DOPC   H3S19427   2.812   2.899   8.354  0.4718  0.8549  0.5626
  161DOPC   C2419428   2.915   2.874   8.165 -0.5306 -0.1609  0.6580
  161DOPC   H4R19429   2.883   2.769   8.152  0.6819 -0.6320  1.3820
  161DOPC   H4S19430   3.017   2.884   8.123 -1.2399  1.5347 -0.8591
  161DOPC   C2519431   2.830   2.976   8.082 -0.2503 -0.8550 -0.3295
  161DOPC   H5R19432   2.859   3.080   8.111  0.9798 -1.3025  0.0784
  161DOPC   H5S19433   2.720   2.970   8.098 -0.1595  1.8683  2.4158
  161DOPC   C2619434   2.850   2.976   7.926 -0.5108 -0.1231  0.5508
  161DOPC   H6R19435   2.837   2.870   7.898 -1.2687 -0.4516  2.0400
  161DOPC   H6S19436   2.942   3.029   7.892 -1.2842  1.5073  0.8789
  161DOPC   C2719437   2.735   3.043   7.851  0.6084 -0.3808  0.0230
  161DOPC   H7R19438   2.741   3.153   7.868 -0.3535 -0.1035 -1.2938
  161DOPC   H7S19439   2.638   3.015   7.896  0.1551  0.3589 -0.4830
  161DOPC   C2819440   2.750   3.032   7.699  0.2721 -0.1184 -0.1633
  161DOPC   H8R19441   2.664   3.072   7.641 -0.9971 -1.1969  0.9028
  161DOPC   H8S19442   2.750   2.923   7.674 -0.0611  0.8135 -5.2449
  161DOPC   C2919443   2.881   3.090   7.651 -0.3019  0.0568  0.0401
  161DOPC   H9R19444   2.921   3.182   7.695  1.1147  0.2747 -1.5937
  161DOPC  C21019445   2.963   3.037   7.553  0.4634 -0.1053  0.0322
  161DOPC  H10R19446   3.064   3.078   7.539  0.1148  0.7768  0.0013
  161DOPC  C21119447   2.929   2.931   7.455  0.5712 -0.1796  0.8076
  161DOPC  H11R19448   2.823   2.901   7.463  0.9391 -2.1964 -1.0034
  161DOPC  H11S19449   2.982   2.834   7.466  1.1008 -0.2134 -1.6006
  161DOPC  C21219450   2.954   2.982   7.308 -0.3247 -0.3664  0.2074
  161DOPC  H12R19451   3.062   2.983   7.281 -0.3463  0.9182  0.1259
  161DOPC  H12S19452   2.925   3.088   7.293 -0.0374 -0.0465  1.7612
  161DOPC  C21319453   2.879   2.890   7.211  1.1974 -0.4849 -0.3144
  161DOPC  H13R19454   2.775   2.920   7.235  1.6395  0.7082  0.1974
  161DOPC  H13S19455   2.893   2.785   7.244 -1.2361 -0.8130 -0.1363
  161DOPC  C21419456   2.909   2.910   7.064 -0.1729 -0.0538 -0.2668
  161DOPC  H14R19457   2.875   2.829   6.996 -1.4354  0.3171 -0.1010
  161DOPC  H14S19458   3.018   2.926   7.052  0.4480 -1.4791  2.6622
  161DOPC  C21519459   2.824   3.033   7.021 -0.0672  0.1483 -0.2982
  161DOPC  H15R19460   2.842   3.121   7.086  0.5753  0.5281 -0.9807
  161DOPC  H15S19461   2.717   3.007   7.037 -0.3331  1.7708  0.8197
  161DOPC  C21619462   2.824   3.063   6.869  0.5839 -0.1924  1.1652
  161DOPC  H16R19463   2.814   2.968   6.811  0.4912  0.4789  0.0499
  161DOPC  H16S19464   2.916   3.117   6.838  0.0906 -0.4136 -0.7912
  161DOPC  C21719465   2.707   3.159   6.825 -0.4572  0.1543 -0.7949
  161DOPC  H17R19466   2.700   3.248   6.890  0.8377  0.4661 -1.0612
  161DOPC  H17S19467   2.614   3.101   6.846 -1.7227  2.3203 -0.0848
  161DOPC  C21819468   2.701   3.202   6.686 -0.4943 -0.4916  0.2981
  161DOPC  H18R19469   2.781   3.265   6.643 -1.7441  0.5404 -0.5948
  161DOPC  H18S19470   2.599   3.243   6.672 -0.5273  0.3978  2.7483
  161DOPC  H18T19471   2.707   3.108   6.626  0.1465 -1.3515  1.6715
  161DOPC   C3319472   3.336   2.969   7.992  0.3962  0.1967  0.1088
  161DOPC   H3X19473   3.315   3.052   8.063  0.1778 -1.5460  2.2019
  161DOPC   H3Y19474   3.251   2.901   8.012 -0.8263  1.9000  0.9810
  161DOPC   C3419475   3.331   3.018   7.842  0.3054 -0.2301  0.2869
  161DOPC   H4X19476   3.226   3.020   7.807 -0.6254 -1.7863  2.7497
  161DOPC   H4Y19477   3.384   2.950   7.771 -1.1464 -0.2229 -0.8504
  161DOPC   C3519478   3.398   3.159   7.841  0.4601  0.4043  0.7205
  161DOPC   H5X19479   3.482   3.155   7.914 -0.4047  1.2774  1.8116
  161DOPC   H5Y19480   3.338   3.245   7.880  0.6417  0.4224  0.9587
  161DOPC   C3619481   3.447   3.182   7.697 -0.2403  0.3384  0.0905
  161DOPC   H6X19482   3.512   3.271   7.696 -0.5042  0.5777  1.6821
  161DOPC   H6Y19483   3.499   3.089   7.665 -0.7010 -0.4006  1.4034
  161DOPC   C3719484   3.328   3.223   7.593 -0.0796  0.4082  0.2484
  161DOPC   H7X19485   3.277   3.125   7.584  1.0623 -0.5924  3.1385
  161DOPC   H7Y19486   3.259   3.287   7.652 -0.0954 -0.2769  0.9949
  161DOPC   C3819487   3.371   3.298   7.473  0.0575  0.2585  0.1967
  161DOPC   H8X19488   3.427   3.386   7.513  0.1952  0.4189 -0.3375
  161DOPC   H8Y19489   3.278   3.328   7.420  0.4130  2.3954  0.6925
  161DOPC   C3919490   3.466   3.225   7.371  0.5374 -1.0080 -0.2677
  161DOPC   H9X19491   3.573   3.243   7.391  1.3706 -2.0503 -3.1965
  161DOPC  C31019492   3.444   3.162   7.255 -0.1860  0.1918 -0.3411
  161DOPC  H10X19493   3.533   3.133   7.197  0.7649 -0.9983  1.6106
  161DOPC  C31119494   3.308   3.150   7.196  0.6884  0.1660  0.3667
  161DOPC  H11X19495   3.257   3.246   7.173 -1.8828 -1.3902 -0.8655
  161DOPC  H11Y19496   3.242   3.103   7.272  0.2427 -0.0798 -0.1656
  161DOPC  C31219497   3.301   3.080   7.061  0.3301  1.0132  0.3396
  161DOPC  H12X19498   3.194   3.077   7.033  0.3194  0.1287  0.4377
  161DOPC  H12Y19499   3.338   2.976   7.071 -0.0738  0.8254 -0.0919
  161DOPC  C31319500   3.369   3.156   6.940 -0.5470  0.0637 -0.1972
  161DOPC  H13X19501   3.327   3.258   6.928 -2.0780 -0.5367 -0.1311
  161DOPC  H13Y19502   3.478   3.164   6.962 -0.6967 -0.1303  0.6444
  161DOPC  C31419503   3.334   3.085   6.813  0.6720  0.7415  0.1985
  161DOPC  H14X19504   3.366   2.981   6.834 -3.1411 -0.1930  2.2228
  161DOPC  H14Y19505   3.225   3.089   6.792  0.8089 -1.6800 -1.4082
  161DOPC  C31519506   3.421   3.141   6.693  0.0403 -0.6566  0.0081
  161DOPC  H15X19507   3.530   3.144   6.713  0.0617 -3.2383  0.6398
  161DOPC  H15Y19508   3.401   3.251   6.691  1.8103 -0.2682 -3.2445
  161DOPC  C31619509   3.387   3.088   6.550 -0.3133 -0.1223 -0.0193
  161DOPC  H16X19510   3.448   3.148   6.480 -0.4327  2.6671  2.1159
  161DOPC  H16Y19511   3.427   2.985   6.541  0.2676  0.2163 -1.6750
  161DOPC  C31719512   3.240   3.100   6.507  0.3838 -0.1722 -0.6207
  161DOPC  H17X19513   3.243   3.028   6.422  0.6638 -0.0369 -0.7250
  161DOPC  H17Y19514   3.177   3.060   6.589  1.2515 -1.4265 -0.5532
  161DOPC  C31819515   3.208   3.242   6.470  0.0811  0.0535  0.7887
  161DOPC  H18X19516   3.236   3.308   6.554  2.2254 -1.2186  1.1601
  161DOPC  H18Y19517   3.272   3.275   6.386 -2.6396 -0.1300 -1.5329
  161DOPC  H18Z19518   3.102   3.264   6.446  0.5770  1.6057 -0.1286
  162DOPC     N19519   0.928   1.128   8.982  0.8447 -0.3330  0.2756
  162DOPC   C1219520   0.938   1.074   8.835  0.0170  0.2229  0.3008
  162DOPC  H12A19521   0.849   1.108   8.783 -0.4553  0.2939  1.1501
  162DOPC  H12B19522   0.923   0.967   8.831 -0.8712  0.3023  1.2184
  162DOPC   C1319523   0.945   1.274   8.991 -0.0074  0.7463 -0.4067
  162DOPC  H13A19524   0.919   1.303   9.092  0.4191 -2.6588  0.7823
  162DOPC  H13B19525   1.047   1.307   8.974  0.3275 -0.0550 -0.0072
  162DOPC  H13C19526   0.883   1.330   8.922 -0.5763  0.4361 -0.1497
  162DOPC   C1419527   1.038   1.064   9.066  0.3677  0.0830  0.7598
  162DOPC  H14A19528   1.127   1.072   9.004  1.2033  0.2231  1.9359
  162DOPC  H14B19529   1.053   1.114   9.160  1.4875  0.9639  0.1465
  162DOPC  H14C19530   1.013   0.959   9.075 -0.5215  0.2526  0.2938
  162DOPC   C1519531   0.800   1.086   9.046  0.3471 -0.0191  0.6934
  162DOPC  H15A19532   0.717   1.140   9.001  0.3145 -1.4755 -1.0607
  162DOPC  H15B19533   0.797   1.111   9.151 -1.7176  0.7947  0.5031
  162DOPC  H15C19534   0.787   0.979   9.042  0.3005  0.0217 -0.4307
  162DOPC   C1119535   1.062   1.088   8.743  0.2841  0.2278  0.2106
  162DOPC  H11A19536   1.058   1.021   8.654  0.3139  0.4278  0.0583
  162DOPC  H11B19537   1.074   1.197   8.728 -0.3673  0.8856  3.7041
  162DOPC     P19538   1.321   1.093   8.787 -0.2912  0.0069  0.4945
  162DOPC   O1319539   1.417   0.983   8.821  0.5136 -0.3353  0.1185
  162DOPC   O1419540   1.347   1.222   8.857  0.1104  0.7923 -0.3221
  162DOPC   O1219541   1.172   1.049   8.821 -0.6545  0.4724 -0.9252
  162DOPC   O1119542   1.331   1.118   8.632 -0.3250 -0.2449 -0.0377
  162DOPC    C119543   1.411   1.031   8.545  0.0240  0.4920 -0.3150
  162DOPC    HA19544   1.412   0.927   8.584  1.0709  0.1349 -1.2460
  162DOPC    HB19545   1.518   1.061   8.545  0.1452  0.1311 -1.7305
  162DOPC    C219546   1.365   1.041   8.405  0.2159 -0.0909 -0.0807
  162DOPC    HS19547   1.416   0.968   8.339 -0.9843 -0.0901 -1.0544
  162DOPC   O2119548   1.402   1.168   8.355 -0.6189 -0.5023  0.5742
  162DOPC   C2119549   1.452   1.187   8.231  0.8016 -0.4887  0.0795
  162DOPC   O2219550   1.471   1.097   8.153  0.2213  0.6193 -0.4288
  162DOPC   C2219551   1.482   1.338   8.202 -0.3700  0.1216  0.0208
  162DOPC   H2R19552   1.556   1.364   8.281 -0.8230  0.4978  0.3249
  162DOPC   H2S19553   1.384   1.383   8.227 -2.8152 -2.8086 -3.4296
  162DOPC    C319554   1.210   1.026   8.389  0.3608 -0.7412  0.0046
  162DOPC    HX19555   1.185   1.121   8.442  0.7404 -0.7114  0.1399
  162DOPC    HY19556   1.177   0.935   8.444  2.2637 -0.7948  1.1408
  162DOPC   O3119557   1.158   1.031   8.257 -0.1175 -0.1048  0.3304
  162DOPC   C3119558   1.199   0.933   8.173  0.3689  0.1708 -0.2865
  162DOPC   O3219559   1.262   0.833   8.209 -0.2652 -0.1998  0.0637
  162DOPC   C3219560   1.155   0.958   8.036  0.1684  0.1769 -1.1251
  162DOPC   H2X19561   1.063   0.899   8.015  0.2886  0.2011 -1.7237
  162DOPC   H2Y19562   1.123   1.064   8.024 -1.8423  0.0056  1.8216
  162DOPC   C2319563   1.539   1.369   8.062 -0.3942 -0.8537  0.0453
  162DOPC   H3R19564   1.631   1.308   8.045  1.5950  1.8282  0.4211
  162DOPC   H3S19565   1.564   1.477   8.056 -0.0886 -0.9915 -2.2305
  162DOPC   C2419566   1.442   1.342   7.951  0.4458 -0.6343 -0.1033
  162DOPC   H4R19567   1.350   1.401   7.970  1.1904 -0.0324  1.8814
  162DOPC   H4S19568   1.407   1.238   7.965  0.2136 -0.6111 -0.4852
  162DOPC   C2519569   1.502   1.378   7.817 -0.1069 -0.4065  0.4333
  162DOPC   H5R19570   1.596   1.322   7.801 -0.1308 -0.3766  0.1725
  162DOPC   H5S19571   1.532   1.485   7.819 -0.8941 -0.1779  0.4467
  162DOPC   C2619572   1.412   1.365   7.701  0.7815  1.0111 -0.7721
  162DOPC   H6R19573   1.353   1.459   7.697 -0.4412  0.2508 -1.0237
  162DOPC   H6S19574   1.342   1.280   7.710 -0.6273  2.1219 -0.8789
  162DOPC   C2719575   1.480   1.349   7.572  0.4236 -0.1783 -0.1146
  162DOPC   H7R19576   1.514   1.244   7.560  0.7714 -0.0960  0.1571
  162DOPC   H7S19577   1.574   1.408   7.565 -0.2511  0.7667 -1.8508
  162DOPC   C2819578   1.381   1.368   7.454  0.9479  0.8799  1.0053
  162DOPC   H8R19579   1.283   1.320   7.470 -0.2293  2.3322 -1.2029
  162DOPC   H8S19580   1.423   1.318   7.364  1.2498  0.9254  1.1198
  162DOPC   C2919581   1.362   1.515   7.432  0.1547 -0.0968  0.5883
  162DOPC   H9R19582   1.332   1.578   7.517 -0.5882  2.0645 -1.1769
  162DOPC  C21019583   1.371   1.568   7.305  0.1863 -0.7032 -0.0132
  162DOPC  H10R19584   1.356   1.677   7.298  1.0168 -0.4915  1.1577
  162DOPC  C21119585   1.398   1.490   7.175 -0.2934  0.2655 -0.0489
  162DOPC  H11R19586   1.338   1.397   7.168  0.6539 -0.5260  1.8411
  162DOPC  H11S19587   1.503   1.459   7.158 -0.1565  1.6537 -2.1091
  162DOPC  C21219588   1.361   1.585   7.057  0.1112 -0.1856 -0.1951
  162DOPC  H12R19589   1.412   1.683   7.056 -1.0028  0.4065 -0.2540
  162DOPC  H12S19590   1.252   1.605   7.059 -0.1134 -1.3766  0.2428
  162DOPC  C21319591   1.385   1.526   6.913  0.4380  0.1049 -0.6187
  162DOPC  H13R19592   1.293   1.468   6.890  0.5610  0.1279 -1.1890
  162DOPC  H13S19593   1.468   1.452   6.917 -0.3687 -1.0570  5.9943
  162DOPC  C21419594   1.402   1.634   6.801 -0.0326 -0.3827 -0.6389
  162DOPC  H14R19595   1.489   1.698   6.827  0.3028 -0.7630 -0.8072
  162DOPC  H14S19596   1.320   1.707   6.783  0.2394 -0.2469 -1.3825
  162DOPC  C21519597   1.442   1.566   6.669 -0.2957  0.2363  0.1799
  162DOPC  H15R19598   1.359   1.512   6.618  0.2514  0.5713 -1.0861
  162DOPC  H15S19599   1.511   1.483   6.696  0.2929  0.1767 -1.4259
  162DOPC  C21619600   1.508   1.650   6.559 -0.9588 -0.5599  0.2916
  162DOPC  H16R19601   1.595   1.704   6.602 -1.2718 -0.2748  0.5714
  162DOPC  H16S19602   1.441   1.736   6.536  0.0333  0.0210 -0.4884
  162DOPC  C21719603   1.543   1.582   6.426 -0.1791  0.5023  0.3454
  162DOPC  H17R19604   1.567   1.657   6.348  1.5757 -0.6341 -0.2627
  162DOPC  H17S19605   1.462   1.518   6.386  1.4175 -0.8366 -0.9101
  162DOPC  C21819606   1.664   1.491   6.457 -0.4523  0.4394  0.4122
  162DOPC  H18R19607   1.710   1.455   6.363  0.3873  1.1560  0.5337
  162DOPC  H18S19608   1.644   1.393   6.506 -0.6156 -0.7819 -1.9389
  162DOPC  H18T19609   1.743   1.548   6.511 -0.9037  1.1953  0.2894
  162DOPC   C3319610   1.263   0.931   7.928  0.1614 -0.0777 -0.2526
  162DOPC   H3X19611   1.300   0.826   7.925  2.7356  0.7510 -0.0512
  162DOPC   H3Y19612   1.351   0.992   7.957 -0.7471  0.5316  1.3822
  162DOPC   C3419613   1.214   0.965   7.787 -0.5478 -0.2801 -0.1184
  162DOPC   H4X19614   1.173   1.068   7.800 -2.3788 -1.0618  0.4822
  162DOPC   H4Y19615   1.141   0.886   7.763 -1.1750 -0.4274  2.0956
  162DOPC   C3519616   1.321   0.967   7.677  0.2043 -0.2826  0.9927
  162DOPC   H5X19617   1.360   0.863   7.671 -0.4639 -0.5531  1.3183
  162DOPC   H5Y19618   1.399   1.041   7.703 -0.1343  1.1150 -1.6071
  162DOPC   C3619619   1.249   1.000   7.548 -0.0480  0.1758  0.4856
  162DOPC   H6X19620   1.165   0.927   7.544  1.1021 -1.1351 -2.1087
  162DOPC   H6Y19621   1.206   1.102   7.559  0.4623  0.4547 -0.0117
  162DOPC   C3719622   1.337   0.987   7.425  0.3691 -0.2645  0.3175
  162DOPC   H7X19623   1.402   1.077   7.433  0.3874 -0.3075  0.6626
  162DOPC   H7Y19624   1.413   0.908   7.441  0.9979  0.4351  0.8426
  162DOPC   C3819625   1.280   0.977   7.282 -0.4806 -0.0174  0.3899
  162DOPC   H8X19626   1.222   0.882   7.276 -0.8404  0.2892 -2.2101
  162DOPC   H8Y19627   1.360   0.980   7.205 -1.0451  0.2461 -0.1949
  162DOPC   C3919628   1.178   1.087   7.256 -0.4693 -0.8558  0.1041
  162DOPC   H9X19629   1.116   1.119   7.341 -1.8250 -2.0487 -0.3924
  162DOPC  C31019630   1.130   1.126   7.130  0.2716  0.3425  0.2940
  162DOPC  H10X19631   1.046   1.197   7.123 -0.9882 -1.0842  0.3810
  162DOPC  C31119632   1.172   1.057   6.998 -0.0873 -0.2071  0.2397
  162DOPC  H11X19633   1.088   1.007   6.946  1.1437 -2.0941 -0.0429
  162DOPC  H11Y19634   1.248   0.977   7.016  0.7257  0.7508  1.2127
  162DOPC  C31219635   1.225   1.170   6.912  0.5806 -0.5326 -0.2031
  162DOPC  H12X19636   1.311   1.225   6.955  0.5781  1.4471 -2.5305
  162DOPC  H12Y19637   1.144   1.241   6.885  0.4423 -0.7205 -0.2863
  162DOPC  C31319638   1.273   1.113   6.784 -0.1678 -0.7030 -0.4909
  162DOPC  H13X19639   1.362   1.052   6.806 -0.0752  0.1153  1.6884
  162DOPC  H13Y19640   1.186   1.056   6.743 -0.6730 -0.0699 -0.3197
  162DOPC  C31419641   1.312   1.227   6.680 -0.2902  0.6184  0.6038
  162DOPC  H14X19642   1.238   1.310   6.682  1.5481  2.4195 -1.4528
  162DOPC  H14Y19643   1.406   1.274   6.717  0.6142 -0.7803  0.1748
  162DOPC  C31519644   1.325   1.176   6.532  0.0617 -0.4485  0.6080
  162DOPC  H15X19645   1.414   1.109   6.536  0.2356 -0.1384  2.7707
  162DOPC  H15Y19646   1.349   1.261   6.465  0.4703 -0.8478  0.2379
  162DOPC  C31619647   1.200   1.118   6.463  0.5664  0.1854  0.4171
  162DOPC  H16X19648   1.245   1.082   6.368 -0.3486 -0.1382  0.0905
  162DOPC  H16Y19649   1.157   1.027   6.511 -1.5612  1.3128  0.7930
  162DOPC  C31719650   1.100   1.229   6.436  0.4304  1.1720  0.6768
  162DOPC  H17X19651   1.059   1.284   6.523  0.4059  0.3856  1.1778
  162DOPC  H17Y19652   1.147   1.304   6.369 -0.1973  1.4622  0.5461
  162DOPC  C31819653   0.970   1.201   6.360 -0.3274  0.1812 -0.6809
  162DOPC  H18X19654   0.987   1.132   6.274 -0.0622  0.7191 -1.0633
  162DOPC  H18Y19655   0.894   1.132   6.405  0.2673 -0.1657 -0.1967
  162DOPC  H18Z19656   0.921   1.289   6.314 -1.2087  0.5285  0.8409
  163DOPC     N19657   0.144   3.049   8.736  0.2462  0.5691  1.2212
  163DOPC   C1219658   0.105   3.161   8.637  0.1469  0.1421 -0.1998
  163DOPC  H12A19659   0.005   3.194   8.663  1.2435  3.7964 -0.0402
  163DOPC  H12B19660   0.116   3.136   8.532 -1.8416  2.2531 -0.9953
  163DOPC   C1319661   0.265   2.982   8.686 -0.8977  0.3361 -0.3078
  163DOPC  H13A19662   0.291   2.900   8.751 -2.1930  0.4266  0.3417
  163DOPC  H13B19663   0.250   2.928   8.593  0.0025  1.5915 -1.2301
  163DOPC  H13C19664   0.354   3.043   8.674 -2.3537  2.6094 -0.2488
  163DOPC   C1419665   0.032   2.946   8.747 -1.0158  0.4952 -0.0990
  163DOPC  H14A19666   0.007   2.909   8.649 -1.5716 -0.1456  0.2817
  163DOPC  H14B19667   0.060   2.863   8.810  1.4335  0.8936 -0.5382
  163DOPC  H14C19668  -0.054   2.986   8.799 -0.9669 -0.1862  0.5203
  163DOPC   C1519669   0.159   3.104   8.877 -0.5827  0.8301 -0.2678
  163DOPC  H15A19670   0.074   3.165   8.905  1.3779  2.6452  2.1263
  163DOPC  H15B19671   0.251   3.159   8.882  0.5238 -0.9947  0.1201
  163DOPC  H15C19672   0.172   3.026   8.950  0.7665  1.3478  0.0599
  163DOPC   C1119673   0.179   3.286   8.665 -0.5011 -0.1650  0.1070
  163DOPC  H11A19674   0.283   3.250   8.676 -0.2170  0.4150 -0.6591
  163DOPC  H11B19675   0.164   3.349   8.575 -0.5163 -1.0287 -0.5004
  163DOPC     P19676   0.241   3.457   8.846  0.3723  0.0167 -0.0179
  163DOPC   O1319677   0.358   3.384   8.889  0.0262 -0.0852 -0.4443
  163DOPC   O1419678   0.175   3.531   8.957  0.1961  0.2715 -0.0897
  163DOPC   O1219679   0.135   3.358   8.784  0.1415  0.0980 -0.2280
  163DOPC   O1119680   0.261   3.550   8.721 -0.5681  0.7407  0.3496
  163DOPC    C119681   0.153   3.643   8.701  0.5004  0.5198  0.2511
  163DOPC    HA19682   0.167   3.731   8.767  0.2315  0.7400  0.0135
  163DOPC    HB19683   0.052   3.607   8.730  0.9630 -1.2739 -0.2274
  163DOPC    C219684   0.143   3.670   8.550 -0.5623  0.4509  0.0379
  163DOPC    HS19685   0.090   3.577   8.518  0.6254 -0.3868  0.4118
  163DOPC   O2119686   0.280   3.683   8.500  0.5643  0.3904  0.3049
  163DOPC   C2119687   0.308   3.607   8.396  0.0450 -0.5248 -0.7459
  163DOPC   O2219688   0.231   3.540   8.330  0.6390 -0.3317  0.6114
  163DOPC   C2219689   0.467   3.600   8.381  0.5628  0.0270  0.0165
  163DOPC   H2R19690   0.514   3.507   8.418  1.8165 -0.1803 -1.9426
  163DOPC   H2S19691   0.512   3.681   8.441 -1.6059 -0.3802  2.3650
  163DOPC    C319692   0.068   3.806   8.518 -0.0578  0.4951  0.5320
  163DOPC    HX19693   0.129   3.891   8.555 -0.9002  1.1129  0.5291
  163DOPC    HY19694  -0.028   3.807   8.573 -0.9867  2.3806 -0.9938
  163DOPC   O3119695   0.033   3.811   8.381 -0.1259  0.2805  0.2169
  163DOPC   C3119696   0.121   3.868   8.304 -0.2659  0.1384  0.1922
  163DOPC   O3219697   0.235   3.904   8.332 -0.0989  0.6915 -0.3122
  163DOPC   C3219698   0.067   3.865   8.159  1.0791 -0.1017  0.1210
  163DOPC   H2X19699   0.067   3.760   8.123 -2.2553 -0.5900  1.1722
  163DOPC   H2Y19700  -0.042   3.887   8.158  0.1619 -3.4532  3.3354
  163DOPC   C2319701   0.506   3.608   8.232 -0.2379  0.2379  0.5586
  163DOPC   H3R19702   0.464   3.519   8.180 -0.9262  0.0615  1.3737
  163DOPC   H3S19703   0.616   3.594   8.235 -0.2207  0.3429  0.4193
  163DOPC   C2419704   0.460   3.734   8.154  0.5178  0.6172  0.2551
  163DOPC   H4R19705   0.483   3.829   8.208  0.0002  1.8586 -1.5981
  163DOPC   H4S19706   0.349   3.732   8.156  0.4477  0.1521 -1.8668
  163DOPC   C2519707   0.505   3.736   8.008  0.1541 -0.4442 -1.0574
  163DOPC   H5R19708   0.616   3.733   8.009  0.1651 -0.6215  0.8203
  163DOPC   H5S19709   0.469   3.828   7.957 -0.0435  0.2132  0.2272
  163DOPC   C2619710   0.456   3.628   7.914  0.1790  0.2991 -0.7541
  163DOPC   H6R19711   0.506   3.536   7.948 -1.0764 -0.1916 -0.1775
  163DOPC   H6S19712   0.487   3.652   7.809  0.5274 -1.8101 -1.1693
  163DOPC   C2719713   0.310   3.604   7.928 -0.0847 -0.0518  0.1459
  163DOPC   H7R19714   0.257   3.701   7.918 -0.6433 -0.3786 -0.0889
  163DOPC   H7S19715   0.277   3.564   8.026  1.4502  1.8984  1.5552
  163DOPC   C2819716   0.252   3.515   7.816  0.0873 -0.4844 -0.3047
  163DOPC   H8R19717   0.299   3.416   7.832  1.3691  0.2279  0.5236
  163DOPC   H8S19718   0.290   3.555   7.719  0.5330 -2.0709 -0.8075
  163DOPC   C2919719   0.100   3.490   7.813 -0.0308 -0.0198  0.8518
  163DOPC   H9R19720   0.042   3.536   7.894 -2.0767 -0.5157 -0.2651
  163DOPC  C21019721   0.034   3.461   7.701 -0.5561  0.8533  0.3181
  163DOPC  H10R19722  -0.076   3.453   7.699 -0.6338  1.5233 -3.0090
  163DOPC  C21119723   0.106   3.401   7.573 -1.2368 -0.2851 -0.3326
  163DOPC  H11R19724   0.039   3.325   7.527 -1.6641  0.2223 -0.5615
  163DOPC  H11S19725   0.197   3.350   7.610 -1.9280 -0.3183  1.4589
  163DOPC  C21219726   0.136   3.517   7.471  0.8268  0.2911 -0.8681
  163DOPC  H12R19727   0.199   3.597   7.514 -1.3611  3.1113 -2.5267
  163DOPC  H12S19728   0.037   3.566   7.459  0.7780  0.3095 -0.3982
  163DOPC  C21319729   0.180   3.458   7.336  0.1226 -0.4121 -0.0320
  163DOPC  H13R19730   0.281   3.413   7.341  0.4245  0.0863 -1.2245
  163DOPC  H13S19731   0.201   3.550   7.276  1.8400 -0.5960  0.2254
  163DOPC  C21419732   0.070   3.379   7.272 -0.1203 -0.3623  1.1722
  163DOPC  H14R19733  -0.034   3.416   7.281 -0.1962 -0.7036  1.7452
  163DOPC  H14S19734   0.062   3.278   7.319  0.0165 -0.2016  1.5428
  163DOPC  C21519735   0.098   3.370   7.123 -0.3298 -0.1182 -0.7561
  163DOPC  H15R19736   0.202   3.332   7.112 -0.3150 -0.0515 -0.8426
  163DOPC  H15S19737   0.098   3.473   7.083  0.3519 -0.6695 -2.2831
  163DOPC  C21619738   0.003   3.275   7.060 -0.4560  0.2356  0.2644
  163DOPC  H16R19739  -0.103   3.308   7.061 -0.4022  0.4044  1.1570
  163DOPC  H16S19740  -0.002   3.185   7.124 -0.6704  0.0217 -0.0471
  163DOPC  C21719741   0.043   3.256   6.913  0.7712  0.1089  0.5263
  163DOPC  H17R19742   0.148   3.219   6.916  1.5428  2.2110  1.4812
  163DOPC  H17S19743   0.046   3.355   6.862 -0.1892 -0.0004  0.2530
  163DOPC  C21819744  -0.043   3.172   6.823  0.3222 -0.2897 -0.0624
  163DOPC  H18R19745  -0.152   3.192   6.826  0.2378 -0.7967  2.7276
  163DOPC  H18S19746  -0.041   3.067   6.858 -0.4280  0.1533  1.3614
  163DOPC  H18T19747  -0.008   3.169   6.717 -0.5428  1.0823 -0.4266
  163DOPC   C3319748   0.134   3.966   8.061 -0.3636 -0.0066 -0.0759
  163DOPC   H3X19749   0.237   3.924   8.060 -1.0616 -2.0460  2.4236
  163DOPC   H3Y19750   0.139   4.063   8.113  1.3483 -0.2636  0.2990
  163DOPC   C3419751   0.071   3.986   7.921 -0.1453  0.3771 -0.1172
  163DOPC   H4X19752  -0.022   4.045   7.933 -0.1185  0.5302 -0.6735
  163DOPC   H4Y19753   0.050   3.889   7.871  3.8140 -0.4414 -0.5825
  163DOPC   C3519754   0.161   4.054   7.812 -0.1283  0.4209 -0.4742
  163DOPC   H5X19755   0.199   4.152   7.847  2.5451 -0.2695 -1.2785
  163DOPC   H5Y19756   0.093   4.072   7.726  0.5172  1.1164 -0.8420
  163DOPC   C3619757   0.263   3.963   7.768 -0.3109 -0.3615 -0.6026
  163DOPC   H6X19758   0.352   3.981   7.832  0.9588 -0.5539 -2.2576
  163DOPC   H6Y19759   0.239   3.855   7.769  1.6887 -0.8402 -0.8086
  163DOPC   C3719760   0.325   3.982   7.625  0.5410  0.2268 -0.4307
  163DOPC   H7X19761   0.348   4.090   7.607 -1.2510  0.5194 -1.1667
  163DOPC   H7Y19762   0.419   3.923   7.630 -0.4703 -1.3104  1.4863
  163DOPC   C3819763   0.234   3.926   7.500 -0.4035  0.6050 -0.6007
  163DOPC   H8X19764   0.127   3.955   7.505 -1.4947 -3.1362  1.9533
  163DOPC   H8Y19765   0.240   3.816   7.491  1.1373  0.8131 -2.8573
  163DOPC   C3919766   0.288   3.985   7.368  0.0861  0.4756 -0.0321
  163DOPC   H9X19767   0.330   4.086   7.382  0.5007  0.1438  1.3025
  163DOPC  C31019768   0.307   3.927   7.249  0.8151  0.1288  0.1070
  163DOPC  H10X19769   0.359   3.972   7.163 -2.7228 -0.7782 -2.7198
  163DOPC  C31119770   0.257   3.791   7.215 -0.2968  0.3851  0.0701
  163DOPC  H11X19771   0.163   3.762   7.266 -0.9303 -1.4084 -1.9161
  163DOPC  H11Y19772   0.336   3.721   7.249 -1.6357 -0.8633  0.7320
  163DOPC  C31219773   0.225   3.785   7.062 -0.4558  0.1655 -0.2299
  163DOPC  H12X19774   0.153   3.862   7.027 -3.5359 -1.9634  1.0363
  163DOPC  H12Y19775   0.173   3.687   7.056  0.6331 -0.4699  0.4129
  163DOPC  C31319776   0.350   3.772   6.972  0.6816 -0.2190 -0.1129
  163DOPC  H13X19777   0.379   3.879   6.968  0.9840 -0.3172 -0.5229
  163DOPC  H13Y19778   0.436   3.728   7.027  0.1394 -0.2981  0.6967
  163DOPC  C31419779   0.326   3.728   6.834 -0.2333  0.9383 -0.7433
  163DOPC  H14X19780   0.326   3.617   6.842 -0.0991  1.0649  3.0506
  163DOPC  H14Y19781   0.228   3.771   6.804 -1.2069 -0.6737 -0.0333
  163DOPC  C31519782   0.434   3.762   6.731  0.4213 -0.2388  0.6529
  163DOPC  H15X19783   0.528   3.709   6.759  0.2691 -0.1082  1.4448
  163DOPC  H15Y19784   0.458   3.870   6.741  1.0124 -0.1639 -1.2076
  163DOPC  C31619785   0.389   3.720   6.589 -0.5606 -0.1851  0.1276
  163DOPC  H16X19786   0.363   3.612   6.589 -0.3942 -0.2366  1.5956
  163DOPC  H16Y19787   0.306   3.782   6.548  0.5453  2.3097  1.4625
  163DOPC  C31719788   0.510   3.749   6.494 -0.0889  0.0804  0.1850
  163DOPC  H17X19789   0.541   3.855   6.497  0.2450 -0.0109 -0.0675
  163DOPC  H17Y19790   0.604   3.701   6.527  0.5430  0.4623 -1.0109
  163DOPC  C31819791   0.473   3.715   6.350 -0.5360 -0.3453  0.5457
  163DOPC  H18X19792   0.429   3.613   6.337  1.2851 -1.3316  1.7007
  163DOPC  H18Y19793   0.395   3.785   6.315 -1.8134 -1.5580  0.8556
  163DOPC  H18Z19794   0.557   3.712   6.277 -1.3837 -1.4458 -0.4225
  164DOPC     N19795   1.070   1.762   9.037 -0.3103  1.0672 -0.3517
  164DOPC   C1219796   1.164   1.800   8.921  0.5374 -0.1274 -0.0698
  164DOPC  H12A19797   1.183   1.719   8.852 -0.5602 -0.7437  0.3090
  164DOPC  H12B19798   1.262   1.827   8.957  0.3058 -0.1313  0.5736
  164DOPC   C1319799   1.046   1.874   9.127  0.7154  0.4219  0.0933
  164DOPC  H13A19800   0.960   1.860   9.192 -0.6035  0.0811 -1.6647
  164DOPC  H13B19801   1.133   1.896   9.187  1.3540 -2.0771  0.1975
  164DOPC  H13C19802   1.026   1.961   9.066  1.9067  1.3044  0.8981
  164DOPC   C1419803   1.143   1.657   9.118  0.3524  0.1046  0.3041
  164DOPC  H14A19804   1.080   1.616   9.196  0.4406  0.3059  0.4836
  164DOPC  H14B19805   1.190   1.585   9.052 -0.2249  0.3889 -0.4164
  164DOPC  H14C19806   1.225   1.697   9.177  0.8676 -0.2191 -0.1775
  164DOPC   C1519807   0.942   1.706   8.992  0.5881  0.3234 -0.1178
  164DOPC  H15A19808   0.890   1.774   8.926  0.3303  2.8916  2.5215
  164DOPC  H15B19809   0.879   1.684   9.078  1.4000  2.7583  1.2066
  164DOPC  H15C19810   0.965   1.610   8.949 -1.4272 -0.9748  1.5169
  164DOPC   C1119811   1.122   1.906   8.812 -0.0814  0.2666  0.2042
  164DOPC  H11A19812   1.197   1.915   8.731  0.0393  1.4290  0.4318
  164DOPC  H11B19813   1.038   1.855   8.760  0.6004 -1.2664  0.5348
  164DOPC     P19814   1.188   2.135   8.895 -0.1747 -0.2269  0.1734
  164DOPC   O1319815   1.308   2.067   8.951 -0.4573  0.3788  0.3050
  164DOPC   O1419816   1.136   2.248   8.971 -0.7591  0.4628  0.1098
  164DOPC   O1219817   1.072   2.028   8.870 -0.0592  0.8103 -0.2717
  164DOPC   O1119818   1.223   2.196   8.754  0.0285 -0.1777  0.0738
  164DOPC    C119819   1.112   2.240   8.674  0.3210 -0.1938  0.2275
  164DOPC    HA19820   1.129   2.341   8.631 -1.2425 -0.1733 -0.4339
  164DOPC    HB19821   1.022   2.264   8.735 -0.8875  0.3926 -1.7093
  164DOPC    C219822   1.077   2.140   8.566 -0.2126  0.0263  0.2800
  164DOPC    HS19823   1.055   2.039   8.608 -1.0781 -0.2307 -0.7522
  164DOPC   O2119824   1.178   2.122   8.472  0.0893 -0.3550  0.4622
  164DOPC   C2119825   1.240   2.215   8.415  0.2970 -0.0780  0.0544
  164DOPC   O2219826   1.219   2.338   8.424  0.2225 -0.1807 -0.5172
  164DOPC   C2219827   1.341   2.159   8.318  0.5485 -0.8740 -0.3211
  164DOPC   H2R19828   1.284   2.096   8.247  0.2322  0.5076 -1.3222
  164DOPC   H2S19829   1.404   2.087   8.374 -0.8384 -2.2856 -0.4923
  164DOPC    C319830   0.938   2.182   8.498 -0.1136  0.8086 -0.6311
  164DOPC    HX19831   0.938   2.293   8.491 -0.1807  0.8541  0.0329
  164DOPC    HY19832   0.857   2.150   8.566  1.1102  0.0218  0.5157
  164DOPC   O3119833   0.909   2.129   8.370 -0.1122  0.1582  0.3319
  164DOPC   C3119834   0.882   1.999   8.364 -0.3268 -0.2602  0.0791
  164DOPC   O3219835   0.891   1.922   8.460 -0.2673  0.3304  0.1191
  164DOPC   C3219836   0.829   1.970   8.224 -0.3255 -0.5843  0.5549
  164DOPC   H2X19837   0.721   1.993   8.236 -0.3149 -0.2663  0.0715
  164DOPC   H2Y19838   0.878   2.036   8.148 -1.5198 -1.1300 -0.7293
  164DOPC   C2319839   1.420   2.276   8.243 -0.7239  0.5967  0.3642
  164DOPC   H3R19840   1.471   2.338   8.320 -1.5023  0.4489  1.0071
  164DOPC   H3S19841   1.346   2.342   8.192 -0.9567  0.6097  0.7209
  164DOPC   C2419842   1.523   2.220   8.142 -0.0034  0.0459 -0.7540
  164DOPC   H4R19843   1.467   2.169   8.061 -0.5189 -0.0271 -0.3558
  164DOPC   H4S19844   1.589   2.147   8.193  1.1377  2.0846  0.8465
  164DOPC   C2519845   1.608   2.332   8.088  0.0871  0.5303  0.3524
  164DOPC   H5R19846   1.679   2.377   8.161 -0.1239 -0.7489  1.3913
  164DOPC   H5S19847   1.551   2.412   8.035  0.3865  0.8347  0.4854
  164DOPC   C2619848   1.697   2.279   7.971  0.1833  1.0926 -0.7908
  164DOPC   H6R19849   1.618   2.245   7.901  0.0735  0.2897 -0.2848
  164DOPC   H6S19850   1.750   2.191   8.014 -1.4027 -0.0317 -1.0567
  164DOPC   C2719851   1.802   2.374   7.921  0.1050 -0.3326  0.1439
  164DOPC   H7R19852   1.883   2.371   7.997  1.4189 -3.4828 -1.2435
  164DOPC   H7S19853   1.753   2.474   7.909 -1.9379 -1.2326  0.6058
  164DOPC   C2819854   1.870   2.352   7.782 -0.6909 -0.6302 -0.8615
  164DOPC   H8R19855   1.954   2.423   7.764 -0.1158 -1.8728 -3.4321
  164DOPC   H8S19856   1.804   2.384   7.699  0.2929  0.4931 -1.2410
  164DOPC   C2919857   1.920   2.215   7.754  0.0482 -0.1975 -0.6074
  164DOPC   H9R19858   1.972   2.174   7.841  0.9336  1.0218 -0.5396
  164DOPC  C21019859   1.911   2.150   7.639 -0.8012  1.3773  0.6789
  164DOPC  H10R19860   1.942   2.045   7.641 -0.0751  1.5102 -1.2394
  164DOPC  C21119861   1.854   2.190   7.513 -0.8873  1.0109  0.0250
  164DOPC  H11R19862   1.910   2.279   7.478 -1.8296  1.3533 -0.6621
  164DOPC  H11S19863   1.748   2.221   7.525 -1.5774 -0.8095 -0.8993
  164DOPC  C21219864   1.867   2.072   7.407  0.5765 -0.1167  0.4712
  164DOPC  H12R19865   1.821   1.976   7.439  0.1249  0.0082  0.1991
  164DOPC  H12S19866   1.974   2.058   7.380  0.2849  1.3703 -1.6890
  164DOPC  C21319867   1.790   2.113   7.277 -0.2240 -0.2742  0.0392
  164DOPC  H13R19868   1.802   2.224   7.273  2.4715 -0.3631  2.3088
  164DOPC  H13S19869   1.684   2.090   7.302  0.0998  1.1425  3.2690
  164DOPC  C21419870   1.855   2.059   7.147 -0.5342 -0.1828 -0.4113
  164DOPC  H14R19871   1.856   1.949   7.163 -0.1661  0.0472  1.3085
  164DOPC  H14S19872   1.956   2.103   7.132 -0.4177 -0.3698 -0.1730
  164DOPC  C21519873   1.766   2.082   7.023  0.4689 -0.6701  0.2563
  164DOPC  H15R19874   1.740   2.189   7.031  1.3017 -0.4451  0.0625
  164DOPC  H15S19875   1.675   2.019   7.032 -0.4650  0.3569 -1.5221
  164DOPC  C21619876   1.823   2.059   6.885 -0.8570 -0.6767  0.2479
  164DOPC  H16R19877   1.843   1.950   6.886  3.8621 -0.0417  2.6110
  164DOPC  H16S19878   1.925   2.101   6.871 -1.5540  1.0084  0.0196
  164DOPC  C21719879   1.741   2.107   6.765  1.4179  0.0368 -0.2469
  164DOPC  H17R19880   1.809   2.090   6.679  0.3568 -1.0600 -0.9083
  164DOPC  H17S19881   1.715   2.213   6.785 -0.4717 -0.4316 -0.0705
  164DOPC  C21819882   1.610   2.028   6.742 -0.1522 -0.3410 -1.1071
  164DOPC  H18R19883   1.623   1.924   6.777  5.5247 -0.7169 -3.2743
  164DOPC  H18S19884   1.590   2.011   6.634  1.8295 -0.9268 -1.4249
  164DOPC  H18T19885   1.522   2.076   6.790  0.9621  0.9343 -0.2460
  164DOPC   C3319886   0.863   1.831   8.185 -0.3341  0.0784 -0.0596
  164DOPC   H3X19887   0.815   1.762   8.257 -0.0495  0.1563  0.2046
  164DOPC   H3Y19888   0.972   1.810   8.177 -0.5440 -1.0780 -0.0969
  164DOPC   C3419889   0.804   1.806   8.040 -0.3387  0.0066  0.1264
  164DOPC   H4X19890   0.708   1.861   8.034  0.2948  1.3794  1.8993
  164DOPC   H4Y19891   0.778   1.698   8.034  0.1251 -0.0919 -0.1320
  164DOPC   C3519892   0.909   1.851   7.932  0.4459 -0.1303  0.6293
  164DOPC   H5X19893   1.000   1.788   7.940  2.2530  2.4465  2.0659
  164DOPC   H5Y19894   0.936   1.954   7.962 -0.9605  0.8933 -1.4068
  164DOPC   C3619895   0.845   1.850   7.796  0.0288 -0.1132  0.4668
  164DOPC   H6X19896   0.800   1.753   7.765 -0.1501  0.3217 -0.7034
  164DOPC   H6Y19897   0.757   1.915   7.815  0.0393 -0.1008  0.4721
  164DOPC   C3719898   0.919   1.909   7.679  0.1404  0.0753  0.5352
  164DOPC   H7X19899   0.858   1.903   7.586 -1.0372  1.8447  1.1404
  164DOPC   H7Y19900   0.931   2.016   7.704 -1.9929  1.5062 -3.6000
  164DOPC   C3819901   1.058   1.842   7.656  0.0245 -0.0162  0.2013
  164DOPC   H8X19902   1.105   1.848   7.756 -0.7347  1.1590  0.5143
  164DOPC   H8Y19903   1.101   1.916   7.585  0.1761  2.0673  2.3453
  164DOPC   C3919904   1.044   1.700   7.607  0.0581 -0.4991  0.2094
  164DOPC   H9X19905   1.037   1.617   7.679 -0.6041  0.1921  0.9629
  164DOPC  C31019906   1.018   1.667   7.479 -0.3170 -0.6170 -0.2278
  164DOPC  H10X19907   1.003   1.560   7.456 -1.8808 -0.3814 -0.4840
  164DOPC  C31119908   1.009   1.759   7.355 -0.5157  0.6892 -0.4139
  164DOPC  H11X19909   1.097   1.761   7.288 -0.0109 -2.7742 -0.0784
  164DOPC  H11Y19910   0.981   1.861   7.388 -0.4729  0.2105  1.1900
  164DOPC  C31219911   0.899   1.702   7.264 -0.1079 -0.7984  0.1169
  164DOPC  H12X19912   0.814   1.670   7.329 -0.7125 -0.4419 -0.4913
  164DOPC  H12Y19913   0.939   1.614   7.210  3.1802  0.7272 -0.1457
  164DOPC  C31319914   0.856   1.795   7.151 -0.3950 -0.2802 -0.0849
  164DOPC  H13X19915   0.778   1.736   7.097 -0.5132  0.8489 -1.1880
  164DOPC  H13Y19916   0.803   1.879   7.201 -2.2204 -2.0728  1.1692
  164DOPC  C31419917   0.972   1.833   7.054 -0.1545 -0.3433  0.0917
  164DOPC  H14X19918   1.022   1.742   7.016 -0.8099 -1.4356  1.7267
  164DOPC  H14Y19919   1.061   1.878   7.104  1.2225 -1.0371 -1.6344
  164DOPC  C31519920   0.939   1.930   6.945 -0.3821  0.2433 -1.1530
  164DOPC  H15X19921   0.879   2.015   6.984  1.0307  0.2557  1.1663
  164DOPC  H15Y19922   0.875   1.876   6.872  1.3146  0.6980 -3.0718
  164DOPC  C31619923   1.062   1.985   6.872  0.7237 -0.1329 -0.2496
  164DOPC  H16X19924   1.145   2.010   6.942  1.9656  0.3177 -1.8408
  164DOPC  H16Y19925   1.100   1.926   6.786  1.1587 -0.4375  0.1389
  164DOPC  C31719926   1.020   2.121   6.804  0.1616  0.2643 -0.4054
  164DOPC  H17X19927   0.973   2.193   6.874  0.2558 -1.0774  1.0957
  164DOPC  H17Y19928   1.116   2.168   6.773 -1.2564  4.2086  0.5715
  164DOPC  C31819929   0.927   2.104   6.681 -0.6367  0.1987 -0.0472
  164DOPC  H18X19930   0.914   2.193   6.616  0.4670 -0.2200 -0.8858
  164DOPC  H18Y19931   0.971   2.023   6.619  1.0122  2.3729 -1.9400
  164DOPC  H18Z19932   0.829   2.062   6.709  0.2978 -2.4232 -0.4545
  165DOPC     N19933   5.259   2.697   8.664 -0.4206  0.1022 -0.1019
  165DOPC   C1219934   5.299   2.610   8.542 -0.0723  0.2260 -0.1767
  165DOPC  H12A19935   5.206   2.586   8.492  0.0718  1.0503 -0.8672
  165DOPC  H12B19936   5.330   2.513   8.577 -1.6635 -0.0660  0.5021
  165DOPC   C1319937   5.150   2.639   8.742  0.0004 -0.2635 -0.1986
  165DOPC  H13A19938   5.123   2.692   8.832 -0.4506 -1.8518  0.6423
  165DOPC  H13B19939   5.056   2.639   8.689 -0.9000  1.6513  1.2899
  165DOPC  H13C19940   5.176   2.541   8.779  0.1843 -0.8972 -1.8955
  165DOPC   C1419941   5.211   2.832   8.623  0.2205  0.0120  0.4406
  165DOPC  H14A19942   5.114   2.833   8.576 -0.2377  0.6085  1.3687
  165DOPC  H14B19943   5.216   2.896   8.709  1.4425 -0.1833  0.5349
  165DOPC  H14C19944   5.292   2.871   8.563 -0.5622 -0.1724 -0.7664
  165DOPC   C1519945   5.380   2.713   8.747  0.2913 -0.1893 -0.0928
  165DOPC  H15A19946   5.407   2.610   8.766  1.2721  0.4024  1.9726
  165DOPC  H15B19947   5.360   2.771   8.836  0.4107  1.9172 -1.3666
  165DOPC  H15C19948   5.444   2.764   8.677 -1.2544  2.1402  0.0831
  165DOPC   C1119949   5.400   2.665   8.449  0.2676 -0.4996 -0.0107
  165DOPC  H11A19950   5.409   2.595   8.364  0.1620 -1.7098  0.9568
  165DOPC  H11B19951   5.365   2.762   8.406 -2.0475 -1.0470  0.5458
  165DOPC     P19952   5.633   2.783   8.488 -0.1311 -0.8402 -0.0911
  165DOPC   O1319953   5.764   2.730   8.532 -0.2435  0.2620  0.0503
  165DOPC   O1419954   5.590   2.916   8.540  0.1935 -0.1376 -0.5288
  165DOPC   O1219955   5.523   2.675   8.516 -0.2789 -0.0870  0.2959
  165DOPC   O1119956   5.622   2.796   8.333  0.0212  0.6102 -0.2136
  165DOPC    C119957   5.665   2.679   8.259  0.1407 -0.2010  0.1171
  165DOPC    HA19958   5.607   2.586   8.282  1.1639 -1.3377 -1.6571
  165DOPC    HB19959   5.771   2.659   8.286  0.0407 -0.0488  0.6285
  165DOPC    C219960   5.664   2.704   8.104 -0.6536 -0.1879  0.0799
  165DOPC    HS19961   5.732   2.635   8.051  0.7791  0.2091  1.3451
  165DOPC   O2119962   5.704   2.844   8.093 -0.1996 -0.1154  0.1468
  165DOPC   C2119963   5.835   2.867   8.069  0.3851 -0.4808  0.4630
  165DOPC   O2219964   5.922   2.787   8.072  0.3184 -0.3798 -0.2522
  165DOPC   C2219965   5.856   3.017   8.028 -0.1379  0.4840 -0.1852
  165DOPC   H2R19966   5.884   3.073   8.119  1.3180  3.1395 -2.0988
  165DOPC   H2S19967   5.764   3.063   7.984 -0.4815  1.0732  1.0925
  165DOPC    C319968   5.520   2.695   8.046 -0.0383  1.0060 -0.7793
  165DOPC    HX19969   5.471   2.782   8.096  1.7083  0.3136  2.4220
  165DOPC    HY19970   5.471   2.601   8.077  2.2334  0.2954  0.9533
  165DOPC   O3119971   5.542   2.703   7.901  0.3892  0.4765  0.2489
  165DOPC   C3119972   5.454   2.785   7.834 -0.7669  0.3896  0.0166
  165DOPC   O3219973   5.356   2.836   7.887 -0.4678 -0.0355 -0.2873
  165DOPC   C3219974   5.498   2.792   7.682 -0.0313  0.7937  0.0621
  165DOPC   H2X19975   5.596   2.844   7.673  0.2092  0.9056  2.6562
  165DOPC   H2Y19976   5.520   2.693   7.635  0.0792  1.2727 -0.9359
  165DOPC   C2319977   5.967   3.041   7.921  0.1518  0.3498 -0.0064
  165DOPC   H3R19978   6.058   2.988   7.956 -0.0173 -0.7209 -1.1080
  165DOPC   H3S19979   5.990   3.150   7.917  2.6426 -0.1307 -1.3154
  165DOPC   C2419980   5.924   2.986   7.779  0.1215  0.0494  0.0981
  165DOPC   H4R19981   5.870   2.889   7.793 -1.4478  0.9883  0.7846
  165DOPC   H4S19982   6.020   2.964   7.727 -0.7964 -0.6848 -1.3844
  165DOPC   C2519983   5.832   3.085   7.702  0.0259 -0.0012  0.9655
  165DOPC   H5R19984   5.888   3.181   7.704 -0.5098  0.5258 -2.5313
  165DOPC   H5S19985   5.738   3.101   7.760 -1.0221  0.1426 -0.7187
  165DOPC   C2619986   5.795   3.050   7.559  0.3215  0.2336  0.1126
  165DOPC   H6R19987   5.750   3.142   7.514  0.4479 -0.4577 -1.5095
  165DOPC   H6S19988   5.723   2.965   7.558  0.1128  0.2072  3.8586
  165DOPC   C2719989   5.927   3.023   7.490 -0.1443  0.5653  0.5571
  165DOPC   H7R19990   5.957   2.919   7.517 -1.6727  0.0136  0.2701
  165DOPC   H7S19991   5.997   3.102   7.523 -1.0607  2.9359 -2.6067
  165DOPC   C2819992   5.918   3.029   7.335  0.0701 -0.3505  0.5810
  165DOPC   H8R19993   6.019   3.013   7.290  0.3902  1.3491  0.6182
  165DOPC   H8S19994   5.900   3.135   7.308  0.8914  0.5033  3.0838
  165DOPC   C2919995   5.803   2.948   7.291  0.2052  0.1988 -0.3553
  165DOPC   H9R19996   5.794   2.850   7.340 -1.9600 -0.2778 -1.5974
  165DOPC  C21019997   5.732   2.958   7.174  0.3062 -0.3595  0.0008
  165DOPC  H10R19998   5.656   2.881   7.159  1.0488 -0.9780 -0.6797
  165DOPC  C21119999   5.748   3.051   7.056  0.6391  0.8856  1.1624
  165DOPC  H11R20000   5.851   3.092   7.059  1.9159 -1.6098 -2.1593
  165DOPC  H11S20001   5.681   3.139   7.072 -0.0456  0.3002  1.5753
  165DOPC  C21220002   5.721   2.986   6.923  0.1184 -1.0094  0.8696
  165DOPC  H12R20003   5.622   2.935   6.918 -0.7070  0.6245 -0.6597
  165DOPC  H12S20004   5.790   2.902   6.903 -0.3708 -1.0824 -0.6517
  165DOPC  C21320005   5.711   3.086   6.807 -0.0134 -0.2491  0.6304
  165DOPC  H13R20006   5.777   3.174   6.817 -0.2577  0.1372 -0.8694
  165DOPC  H13S20007   5.610   3.131   6.807 -0.1368 -0.4077 -1.4812
  165DOPC  C21420008   5.750   3.012   6.679  0.1394 -0.3052  0.0969
  165DOPC  H14R20009   5.678   2.929   6.664 -0.9293  0.5414  0.3206
  165DOPC  H14S20010   5.853   2.976   6.695  0.2430  0.6457  1.8318
  165DOPC  C21520011   5.768   3.096   6.553 -0.3714 -0.2341  0.1477
  165DOPC  H15R20012   5.832   3.185   6.569 -0.5195  0.1942 -1.4454
  165DOPC  H15S20013   5.670   3.137   6.522  1.3526  1.6701 -3.5028
  165DOPC  C21620014   5.805   3.012   6.430  0.3330  0.2331  1.2423
  165DOPC  H16R20015   5.720   2.941   6.418 -0.9523  2.0796 -1.4621
  165DOPC  H16S20016   5.901   2.957   6.442  2.0076  2.7760  0.2194
  165DOPC  C21720017   5.820   3.097   6.308  0.1903 -0.8752 -0.3481
  165DOPC  H17R20018   5.883   3.185   6.330 -3.3032  2.0173 -0.9556
  165DOPC  H17S20019   5.723   3.145   6.281 -0.2023 -1.7143 -0.4703
  165DOPC  C21820020   5.861   3.030   6.177 -0.1023  0.1770  0.1221
  165DOPC  H18R20021   5.771   2.984   6.131 -0.8876  0.4319  1.3430
  165DOPC  H18S20022   5.928   2.945   6.200  0.8545  1.1325  0.9691
  165DOPC  H18T20023   5.921   3.093   6.108  0.3976 -0.9544 -0.4821
  165DOPC   C3320024   5.393   2.862   7.602  0.0315 -0.2350 -0.3513
  165DOPC   H3X20025   5.352   2.951   7.654  0.4394 -1.3604  2.0510
  165DOPC   H3Y20026   5.298   2.806   7.596  0.5756 -1.2702  0.4025
  165DOPC   C3420027   5.437   2.884   7.457 -0.2863 -0.1571 -0.3384
  165DOPC   H4X20028   5.462   2.786   7.411 -1.6352 -0.0716 -1.2841
  165DOPC   H4Y20029   5.531   2.942   7.444  0.1995 -1.4775 -3.5623
  165DOPC   C3520030   5.328   2.943   7.370 -0.1349  0.2494 -0.2555
  165DOPC   H5X20031   5.297   3.038   7.418 -3.5950 -1.2017  0.6355
  165DOPC   H5Y20032   5.238   2.879   7.370 -0.8181  1.1836 -0.2539
  165DOPC   C3620033   5.382   2.962   7.225  0.7614  0.4480 -0.1598
  165DOPC   H6X20034   5.460   3.040   7.220 -0.3810  1.6090 -0.5504
  165DOPC   H6Y20035   5.419   2.868   7.181 -1.6742 -0.0082 -1.4375
  165DOPC   C3720036   5.273   3.016   7.135  0.5751  0.0583 -0.6492
  165DOPC   H7X20037   5.236   3.110   7.181  0.0052 -0.8083  0.7534
  165DOPC   H7Y20038   5.186   2.949   7.126  1.6316 -1.2368 -1.6823
  165DOPC   C3820039   5.313   3.034   6.985 -0.0369 -0.1452  0.5920
  165DOPC   H8X20040   5.357   2.936   6.959 -0.3587 -0.3565  0.8236
  165DOPC   H8Y20041   5.398   3.105   6.984  1.1635 -1.5362  0.5562
  165DOPC   C3920042   5.195   3.075   6.900 -0.1487  0.5902 -0.3781
  165DOPC   H9X20043   5.111   3.123   6.951 -0.6746  0.1071 -0.7752
  165DOPC  C31020044   5.187   3.061   6.766 -0.2490 -0.8353  0.4880
  165DOPC  H10X20045   5.092   3.083   6.716 -2.0209 -1.7327  3.1811
  165DOPC  C31120046   5.290   3.018   6.674 -0.3827  0.0683  0.3510
  165DOPC  H11X20047   5.272   2.914   6.640  1.4979 -0.5333  1.0796
  165DOPC  H11Y20048   5.393   3.009   6.715  0.1391  0.6853 -0.7715
  165DOPC  C31220049   5.288   3.089   6.534  0.0368 -0.2925  0.5589
  165DOPC  H12X20050   5.374   3.160   6.537  0.5603 -0.9634  2.3065
  165DOPC  H12Y20051   5.188   3.138   6.525 -0.3535 -1.0434  0.7548
  165DOPC  C31320052   5.310   2.991   6.417  0.2927 -0.3619  0.3511
  165DOPC  H13X20053   5.416   2.958   6.417 -0.0199 -1.4286  0.1851
  165DOPC  H13Y20054   5.257   2.896   6.439 -2.4875  0.8129 -0.8327
  165DOPC  C31420055   5.251   3.038   6.281 -0.4116 -0.6755  0.2539
  165DOPC  H14X20056   5.294   3.137   6.256  0.6959 -1.6452 -1.8915
  165DOPC  H14Y20057   5.299   2.979   6.201  0.8878 -0.3428  0.7612
  165DOPC  C31520058   5.101   3.043   6.264 -0.9942  0.3844 -0.2557
  165DOPC  H15X20059   5.079   3.112   6.179 -1.5560 -1.4433 -1.6623
  165DOPC  H15Y20060   5.053   3.093   6.350 -1.5911 -0.8136  0.1272
  165DOPC  C31620061   5.039   2.907   6.232  0.4529  0.0298 -0.1354
  165DOPC  H16X20062   5.045   2.841   6.321 -0.4303 -2.6731 -1.9505
  165DOPC  H16Y20063   4.930   2.929   6.221  0.4723  0.2246  0.0570
  165DOPC  C31720064   5.091   2.841   6.105  0.4789 -0.7144  0.0893
  165DOPC  H17X20065   5.058   2.896   6.014 -1.7137  0.0270  1.2570
  165DOPC  H17Y20066   5.202   2.835   6.106  0.5389  0.1405 -0.3554
  165DOPC  C31820067   5.028   2.706   6.072  0.4542 -1.0904 -0.4067
  165DOPC  H18X20068   4.917   2.700   6.073  0.5075 -2.2873  0.4272
  165DOPC  H18Y20069   5.064   2.681   5.970 -0.5812 -3.8293 -0.1631
  165DOPC  H18Z20070   5.059   2.624   6.140 -0.0642 -2.0863 -1.3413
  166DOPC     N20071   5.853   3.052   8.833  0.2272 -0.2304  0.2704
  166DOPC   C1220072   5.864   3.023   8.688  0.0174  0.3743  1.5626
  166DOPC  H12A20073   5.784   2.955   8.664  0.8597 -0.0605 -0.1293
  166DOPC  H12B20074   5.961   2.976   8.674 -1.1958 -2.0790  0.8821
  166DOPC   C1320075   5.827   2.927   8.911 -0.0913  0.2155  0.1755
  166DOPC  H13A20076   5.893   2.846   8.885 -0.9764 -2.0095  4.1210
  166DOPC  H13B20077   5.831   2.952   9.016 -1.7300  0.5354  0.1884
  166DOPC  H13C20078   5.728   2.886   8.904 -0.4640  0.6397  2.1874
  166DOPC   C1420079   5.739   3.138   8.853  0.0181  0.0616 -0.4258
  166DOPC  H14A20080   5.639   3.100   8.837 -0.9592  2.0461  0.5679
  166DOPC  H14B20081   5.735   3.172   8.955 -0.4857 -2.7650  0.5663
  166DOPC  H14C20082   5.753   3.226   8.791  1.3496 -0.0518 -0.3039
  166DOPC   C1520083   5.972   3.131   8.896  0.4332  0.5269  0.6535
  166DOPC  H15A20084   5.947   3.155   8.998  1.0703  0.7959  0.7468
  166DOPC  H15B20085   5.978   3.227   8.848 -0.4475  1.4503  2.3074
  166DOPC  H15C20086   6.057   3.066   8.882  0.0058 -0.5654  2.7635
  166DOPC   C1120087   5.845   3.143   8.586 -0.8324  0.6818 -0.1030
  166DOPC  H11A20088   5.849   3.102   8.483  0.3660  0.5402 -0.0162
  166DOPC  H11B20089   5.744   3.186   8.605 -0.5408  0.6960  1.6191
  166DOPC     P20090   5.946   3.376   8.520  0.3126 -0.5933  0.1122
  166DOPC   O1320091   6.074   3.443   8.549 -0.0012 -0.0247 -0.3172
  166DOPC   O1420092   5.819   3.449   8.537  0.2016 -0.1413  0.8874
  166DOPC   O1220093   5.951   3.240   8.610 -0.0236 -0.0631 -0.4155
  166DOPC   O1120094   5.947   3.319   8.373 -0.3595  0.2341  0.2914
  166DOPC    C120095   6.064   3.258   8.312  0.6219 -0.1574 -0.0605
  166DOPC    HA20096   6.027   3.175   8.247  1.1645 -0.4944  0.0610
  166DOPC    HB20097   6.133   3.216   8.387  0.5137 -1.8521 -0.8532
  166DOPC    C220098   6.138   3.369   8.225  0.9696 -0.3649  0.6085
  166DOPC    HS20099   6.143   3.460   8.289  2.1772  0.3959 -0.5277
  166DOPC   O2120100   6.073   3.384   8.097  0.6372 -0.3619  0.1152
  166DOPC   C2120101   5.997   3.493   8.082 -0.2027  0.0148 -0.1108
  166DOPC   O2220102   5.986   3.582   8.167 -0.3724  0.3183  0.0055
  166DOPC   C2220103   5.922   3.497   7.944 -0.1177  0.7261 -0.4166
  166DOPC   H2R20104   5.831   3.560   7.951  0.1882  1.3020 -1.4732
  166DOPC   H2S20105   5.884   3.396   7.916 -0.2103  0.6984 -0.1898
  166DOPC    C320106   6.286   3.320   8.203  0.0156  0.0348 -0.3094
  166DOPC    HX20107   6.275   3.212   8.180 -0.9611  0.1549 -0.4556
  166DOPC    HY20108   6.344   3.320   8.298 -1.9125 -0.3988  0.9385
  166DOPC   O3120109   6.347   3.385   8.095  0.7664 -0.1187  0.7646
  166DOPC   C3120110   6.369   3.520   8.108 -0.0464  0.0920  0.8397
  166DOPC   O3220111   6.364   3.579   8.215  0.1424  0.2956  0.6678
  166DOPC   C3220112   6.404   3.577   7.967  0.3575 -0.0507  0.2941
  166DOPC   H2X20113   6.511   3.554   7.948  0.1171 -0.1950 -0.9580
  166DOPC   H2Y20114   6.331   3.548   7.889 -2.7098  2.4866  1.9974
  166DOPC   C2320115   6.015   3.550   7.832  0.0472  0.8222  0.2614
  166DOPC   H3R20116   6.105   3.492   7.801 -0.2788  0.0630  0.7058
  166DOPC   H3S20117   6.059   3.649   7.858  0.8650  0.7131 -0.6358
  166DOPC   C2420118   5.935   3.569   7.700 -0.9900 -0.1631  0.7589
  166DOPC   H4R20119   5.832   3.608   7.712 -1.2939 -0.8871  0.5906
  166DOPC   H4S20120   5.931   3.467   7.655  0.9902 -0.2434  0.6426
  166DOPC   C2520121   6.022   3.657   7.604  0.6268  0.3067  0.1349
  166DOPC   H5R20122   6.119   3.608   7.582  0.8746  0.1231  1.5575
  166DOPC   H5S20123   6.039   3.760   7.642 -1.2098  0.7411 -0.1146
  166DOPC   C2620124   5.952   3.685   7.466 -0.0251 -0.0622 -0.5459
  166DOPC   H6R20125   6.035   3.718   7.399  1.9267  0.8553  2.1344
  166DOPC   H6S20126   5.881   3.768   7.485 -0.2960 -0.3936 -0.0866
  166DOPC   C2720127   5.868   3.572   7.399 -1.2551  0.1377 -0.4679
  166DOPC   H7R20128   5.777   3.556   7.462 -1.8853  0.1292 -1.3523
  166DOPC   H7S20129   5.931   3.480   7.403 -1.7634 -0.1684  2.4347
  166DOPC   C2820130   5.830   3.611   7.262  0.0147 -0.1727 -0.0790
  166DOPC   H8R20131   5.803   3.718   7.255 -0.3375 -0.3308 -1.6067
  166DOPC   H8S20132   5.729   3.568   7.245 -0.3817  0.7364 -0.0718
  166DOPC   C2920133   5.936   3.585   7.156  0.4076 -0.6051  0.5869
  166DOPC   H9R20134   6.030   3.640   7.171 -0.0081  0.3011 -0.0478
  166DOPC  C21020135   5.918   3.503   7.046 -0.0599 -0.5913 -0.2864
  166DOPC  H10R20136   5.991   3.502   6.964 -0.9224  1.2759 -1.1217
  166DOPC  C21120137   5.795   3.438   7.005  0.3313 -0.0092  0.0296
  166DOPC  H11R20138   5.741   3.413   7.099  0.8258  1.9201  0.8898
  166DOPC  H11S20139   5.818   3.340   6.959 -1.7273  0.1995 -1.5896
  166DOPC  C21220140   5.701   3.532   6.933 -0.6932  0.1376  0.3281
  166DOPC  H12R20141   5.689   3.622   6.996  1.0642 -0.9683  2.3960
  166DOPC  H12S20142   5.603   3.480   6.928  0.4231 -2.0342 -1.1287
  166DOPC  C21320143   5.746   3.569   6.793 -0.2120 -0.5586 -0.1611
  166DOPC  H13R20144   5.851   3.606   6.790 -0.0726 -0.7456  1.6669
  166DOPC  H13S20145   5.683   3.652   6.753 -2.4548 -1.3266  1.5971
  166DOPC  C21420146   5.720   3.446   6.698  0.1639 -0.8546  0.0597
  166DOPC  H14R20147   5.613   3.417   6.712  0.4952 -3.7569 -2.5760
  166DOPC  H14S20148   5.792   3.369   6.733  4.5758  2.0147 -1.9075
  166DOPC  C21520149   5.751   3.484   6.551  0.4592  0.8511  0.6191
  166DOPC  H15R20150   5.693   3.575   6.526  0.6435  0.9419  0.5243
  166DOPC  H15S20151   5.719   3.400   6.486 -0.6906  2.1140 -0.5269
  166DOPC  C21620152   5.897   3.520   6.524  0.4801  0.0107 -0.3393
  166DOPC  H16R20153   5.944   3.421   6.506 -0.3515 -0.2332 -1.2653
  166DOPC  H16S20154   5.949   3.567   6.610  0.1680 -0.8891  0.3557
  166DOPC  C21720155   5.908   3.605   6.397 -0.2202 -0.4259 -0.2645
  166DOPC  H17R20156   6.012   3.630   6.367  0.4776 -1.0452  1.4868
  166DOPC  H17S20157   5.861   3.701   6.428 -0.0323 -0.2553 -0.4978
  166DOPC  C21820158   5.837   3.551   6.268  0.1900  0.5898 -0.4024
  166DOPC  H18R20159   5.727   3.547   6.283  0.2012 -0.5074 -0.5467
  166DOPC  H18S20160   5.876   3.455   6.228 -0.8007  0.3917 -0.9218
  166DOPC  H18T20161   5.858   3.621   6.184  1.0505  1.0933  0.2127
  166DOPC   C3320162   6.400   3.731   7.967 -1.0983 -0.2833  0.8093
  166DOPC   H3X20163   6.450   3.774   8.056  1.6140 -1.8109  0.1274
  166DOPC   H3Y20164   6.296   3.771   7.968 -1.2815 -0.7470  1.1765
  166DOPC   C3420165   6.476   3.771   7.844 -0.2687 -0.2871  0.1644
  166DOPC   H4X20166   6.579   3.730   7.851 -0.3429 -0.2893  1.6355
  166DOPC   H4Y20167   6.487   3.882   7.841 -1.1593 -0.1887  0.3500
  166DOPC   C3520168   6.415   3.709   7.710  0.0764 -0.2750 -0.4234
  166DOPC   H5X20169   6.309   3.736   7.692  0.3569  0.5297 -0.9172
  166DOPC   H5Y20170   6.409   3.598   7.703  0.7167 -0.2621 -1.4868
  166DOPC   C3620171   6.486   3.752   7.577 -0.1043 -0.0807  0.6316
  166DOPC   H6X20172   6.497   3.862   7.583 -0.9538  0.0801 -0.5240
  166DOPC   H6Y20173   6.579   3.693   7.565 -0.3673 -0.3975  0.1323
  166DOPC   C3720174   6.394   3.742   7.450  0.4959  0.1346  0.4135
  166DOPC   H7X20175   6.364   3.637   7.426 -0.4821  0.6224 -0.5499
  166DOPC   H7Y20176   6.293   3.778   7.480 -0.3013 -1.3642 -0.3178
  166DOPC   C3820177   6.433   3.819   7.327 -0.2001  0.5734 -0.1409
  166DOPC   H8X20178   6.467   3.921   7.356  1.0589 -0.2170  1.3078
  166DOPC   H8Y20179   6.339   3.821   7.268 -1.1873 -4.1905  0.8425
  166DOPC   C3920180   6.553   3.752   7.257 -0.4291 -0.0813  0.2927
  166DOPC   H9X20181   6.651   3.775   7.301 -1.2567  1.1702  1.5513
  166DOPC  C31020182   6.544   3.678   7.146  0.3790 -0.7276  0.0185
  166DOPC  H10X20183   6.631   3.618   7.114  1.2466  0.2960  0.4030
  166DOPC  C31120184   6.422   3.653   7.074  0.1579 -0.0283  0.4564
  166DOPC  H11X20185   6.372   3.750   7.057  2.0296  0.7584 -0.9318
  166DOPC  H11Y20186   6.364   3.583   7.139 -1.2333  0.5089 -0.1656
  166DOPC  C31220187   6.454   3.593   6.933 -0.1611  0.0417  0.0767
  166DOPC  H12X20188   6.358   3.559   6.889 -0.8357  0.1819  1.3765
  166DOPC  H12Y20189   6.512   3.499   6.940 -0.7417 -0.4366 -1.3560
  166DOPC  C31320190   6.536   3.683   6.842  0.9223 -0.0939 -0.1371
  166DOPC  H13X20191   6.477   3.773   6.815 -2.1894 -1.2460  2.1903
  166DOPC  H13Y20192   6.632   3.710   6.890  0.3932 -1.6275  1.9346
  166DOPC  C31420193   6.568   3.596   6.720 -0.3782 -0.0021 -0.2860
  166DOPC  H14X20194   6.643   3.521   6.754 -1.1149  0.0058  1.4484
  166DOPC  H14Y20195   6.477   3.542   6.686  0.5541 -2.0701  0.3524
  166DOPC  C31520196   6.635   3.667   6.611 -0.7017  0.0174 -0.2873
  166DOPC  H15X20197   6.734   3.708   6.640 -0.9484  0.4270 -0.0145
  166DOPC  H15Y20198   6.576   3.750   6.567  0.2165  0.3956 -0.8533
  166DOPC  C31620199   6.667   3.566   6.500  0.1049  0.0003  0.1112
  166DOPC  H16X20200   6.736   3.485   6.531  0.9252  1.0799  1.2436
  166DOPC  H16Y20201   6.568   3.525   6.470 -0.6925  2.0551 -0.2718
  166DOPC  C31720202   6.740   3.643   6.389 -0.0451  0.8376  0.6691
  166DOPC  H17X20203   6.666   3.708   6.338  0.4221 -0.1284 -1.3515
  166DOPC  H17Y20204   6.828   3.708   6.410  1.2171  0.9132 -3.9135
  166DOPC  C31820205   6.789   3.547   6.274  0.3749  0.0921 -0.4012
  166DOPC  H18X20206   6.876   3.485   6.304 -0.2185 -1.1465 -1.1638
  166DOPC  H18Y20207   6.706   3.480   6.242 -0.0496  0.3678  0.0980
  166DOPC  H18Z20208   6.829   3.605   6.188  1.1731  0.5272  0.2564
  167DOPC     N20209   6.433   4.220   9.228  0.4385 -0.5582  0.3698
  167DOPC   C1220210   6.427   4.345   9.138  0.4086 -0.4560 -0.0821
  167DOPC  H12A20211   6.494   4.423   9.171 -2.1322  2.9341 -2.2409
  167DOPC  H12B20212   6.337   4.396   9.167  1.6596  1.0411  1.3505
  167DOPC   C1320213   6.564   4.152   9.217 -0.2743  0.5639 -0.4850
  167DOPC  H13A20214   6.581   4.139   9.111 -0.2710  0.3145 -0.4525
  167DOPC  H13B20215   6.643   4.212   9.259 -0.5210  0.4726  0.1128
  167DOPC  H13C20216   6.566   4.052   9.256  0.9676 -0.0333 -1.9722
  167DOPC   C1420217   6.325   4.124   9.186  0.0207  0.1225  0.0068
  167DOPC  H14A20218   6.318   4.038   9.251  1.5786 -0.9867 -1.2190
  167DOPC  H14B20219   6.229   4.171   9.196  0.3462  0.5001  1.4908
  167DOPC  H14C20220   6.351   4.094   9.085  3.1187  1.8773  0.1531
  167DOPC   C1520221   6.412   4.272   9.365 -0.8369  0.3947  0.2413
  167DOPC  H15A20222   6.331   4.342   9.378  0.8602  2.5084 -0.0752
  167DOPC  H15B20223   6.499   4.328   9.394 -1.8588  0.9213  2.5104
  167DOPC  H15C20224   6.412   4.194   9.440 -2.5599  0.8958  0.8197
  167DOPC   C1120225   6.416   4.332   8.987 -0.0058 -0.0640 -0.3927
  167DOPC  H11A20226   6.412   4.433   8.941 -0.2697 -0.4979 -1.3527
  167DOPC  H11B20227   6.517   4.295   8.958  0.4304  2.0026 -1.6840
  167DOPC     P20228   6.180   4.321   8.870  0.1108  0.5503  0.3713
  167DOPC   O1320229   6.121   4.414   8.967 -0.0171  0.3503  0.3765
  167DOPC   O1420230   6.084   4.220   8.820 -0.5510 -0.5121  0.0360
  167DOPC   O1220231   6.305   4.248   8.934  0.8036 -0.0215 -0.2445
  167DOPC   O1120232   6.244   4.405   8.758  0.0364  0.3793 -0.2664
  167DOPC    C120233   6.307   4.337   8.648 -0.7212  0.2066  1.0164
  167DOPC    HA20234   6.352   4.237   8.666 -0.1591  0.0089 -1.2380
  167DOPC    HB20235   6.385   4.408   8.613 -1.5342  0.5326 -0.1983
  167DOPC    C220236   6.206   4.322   8.528  0.0888 -0.0497  0.4257
  167DOPC    HS20237   6.121   4.256   8.553  0.2230 -0.5767 -0.4743
  167DOPC   O2120238   6.280   4.285   8.412 -0.4458  0.1624  0.2242
  167DOPC   C2120239   6.281   4.151   8.388  0.4093 -0.2877 -0.3549
  167DOPC   O2220240   6.208   4.069   8.444  0.0776 -0.1273 -0.4155
  167DOPC   C2220241   6.382   4.119   8.273  0.5303  0.0774  0.2127
  167DOPC   H2R20242   6.400   4.009   8.279  2.3859  0.3768  1.0109
  167DOPC   H2S20243   6.482   4.159   8.302  1.4135 -0.2426 -2.2039
  167DOPC    C320244   6.154   4.465   8.506 -0.1427 -0.8258 -0.7258
  167DOPC    HX20245   6.239   4.537   8.508 -1.2699  0.5663 -0.7143
  167DOPC    HY20246   6.087   4.500   8.587  1.7627 -0.5830  0.8311
  167DOPC   O3120247   6.090   4.484   8.373 -0.0209  0.0173 -0.6685
  167DOPC   C3120248   5.984   4.406   8.357 -0.2543 -0.1455  1.1558
  167DOPC   O3220249   5.930   4.333   8.437  0.6813 -0.2428  0.4587
  167DOPC   C3220250   5.941   4.426   8.212  0.5427  0.2765  0.5157
  167DOPC   H2X20251   5.841   4.473   8.212  0.7397  0.8572 -2.2855
  167DOPC   H2Y20252   6.006   4.496   8.156  0.2560 -2.4455 -3.7475
  167DOPC   C2320253   6.323   4.168   8.139  0.2249  0.1277 -0.2767
  167DOPC   H3R20254   6.302   4.277   8.150  0.6802  0.0635  1.4865
  167DOPC   H3S20255   6.230   4.120   8.102  0.1340 -1.3954  1.7575
  167DOPC   C2420256   6.428   4.167   8.023  0.0722  0.1124  0.1298
  167DOPC   H4R20257   6.472   4.068   8.000  0.2203  0.0115  0.8102
  167DOPC   H4S20258   6.514   4.228   8.058  0.6788 -0.1935 -0.7877
  167DOPC   C2520259   6.390   4.234   7.889  0.2816  0.2365 -0.2207
  167DOPC   H5R20260   6.342   4.332   7.912 -2.3542 -1.4004  1.9355
  167DOPC   H5S20261   6.306   4.175   7.847 -0.0999  0.8459 -0.3259
  167DOPC   C2620262   6.500   4.252   7.789 -0.3850  0.9441 -0.0946
  167DOPC   H6R20263   6.558   4.159   7.775 -0.5155  0.7697  0.4848
  167DOPC   H6S20264   6.574   4.326   7.826 -0.3714  0.5523  0.6881
  167DOPC   C2720265   6.452   4.313   7.654 -0.4876  0.4318 -0.0085
  167DOPC   H7R20266   6.404   4.411   7.678 -1.4738 -0.3035  1.1258
  167DOPC   H7S20267   6.368   4.260   7.605  0.4838 -0.9180 -0.2596
  167DOPC   C2820268   6.565   4.340   7.549 -0.1027 -0.2543  0.2798
  167DOPC   H8R20269   6.646   4.405   7.587  1.0129 -0.8846 -0.9316
  167DOPC   H8S20270   6.517   4.397   7.466  1.5672  0.9912  0.1167
  167DOPC   C2920271   6.611   4.207   7.494 -0.4834 -0.6650 -0.3940
  167DOPC   H9R20272   6.675   4.145   7.559 -1.5292 -0.7717  0.5573
  167DOPC  C21020273   6.597   4.160   7.364 -0.7718  0.8172 -0.1610
  167DOPC  H10R20274   6.628   4.059   7.334  1.5555  1.7213 -1.0724
  167DOPC  C21120275   6.516   4.236   7.255 -0.1524 -0.5332 -0.1104
  167DOPC  H11R20276   6.564   4.329   7.219 -0.9273  0.2463  0.8185
  167DOPC  H11S20277   6.417   4.270   7.291 -0.8088  1.6170 -3.4592
  167DOPC  C21220278   6.485   4.154   7.128  0.1412 -0.3168  0.2207
  167DOPC  H12R20279   6.433   4.062   7.160  2.0068 -0.9460  1.6349
  167DOPC  H12S20280   6.412   4.221   7.077 -2.5948 -3.0060  0.3216
  167DOPC  C21320281   6.608   4.129   7.036  0.1901  0.4906 -0.1006
  167DOPC  H13R20282   6.673   4.045   7.070 -1.1969 -1.5856 -2.2462
  167DOPC  H13S20283   6.677   4.214   7.023  0.4186  0.1172 -1.3847
  167DOPC  C21420284   6.556   4.085   6.894  0.4163  0.6164 -0.3919
  167DOPC  H14R20285   6.504   4.170   6.845  0.2555  1.0035  0.4366
  167DOPC  H14S20286   6.481   4.007   6.917 -0.4687  1.6640  0.3569
  167DOPC  C21520287   6.664   4.014   6.808  0.7031 -0.0524 -0.0753
  167DOPC  H15R20288   6.601   3.983   6.721 -1.5953  3.4293  0.1615
  167DOPC  H15S20289   6.710   3.934   6.870 -0.8185  1.7797  3.6991
  167DOPC  C21620290   6.765   4.117   6.749 -0.4293 -0.0550  0.8889
  167DOPC  H16R20291   6.815   4.155   6.841  0.3403 -0.9958  0.8807
  167DOPC  H16S20292   6.718   4.208   6.707  1.0974  1.0067  1.3956
  167DOPC  C21720293   6.869   4.053   6.646 -0.2981 -0.3663 -0.5009
  167DOPC  H17R20294   6.884   3.953   6.692  1.6979  0.7133  1.3591
  167DOPC  H17S20295   6.959   4.116   6.631  0.4335 -1.8716 -3.0914
  167DOPC  C21820296   6.811   4.033   6.507  0.0953  0.0698  0.0694
  167DOPC  H18R20297   6.717   3.975   6.521  0.6283 -0.3106  2.5894
  167DOPC  H18S20298   6.882   3.975   6.445 -0.1944  0.3056 -0.4845
  167DOPC  H18T20299   6.793   4.131   6.459  1.4726  0.0886 -0.4467
  167DOPC   C3320300   5.936   4.294   8.124 -0.3367  0.2796 -0.4643
  167DOPC   H3X20301   5.872   4.224   8.182  0.3980  0.4069  0.5223
  167DOPC   H3Y20302   6.039   4.252   8.128 -0.1777  0.4960 -1.9248
  167DOPC   C3420303   5.888   4.315   7.981  0.4900  0.1974 -0.1002
  167DOPC   H4X20304   5.950   4.381   7.916  0.6455  0.8144  0.6527
  167DOPC   H4Y20305   5.785   4.355   7.981  0.6510  0.6283  0.2614
  167DOPC   C3520306   5.864   4.182   7.902 -0.4172  0.5833  0.1814
  167DOPC   H5X20307   5.805   4.108   7.961 -1.7486  0.9906 -0.6120
  167DOPC   H5Y20308   5.967   4.139   7.898 -0.0649  1.4728 -0.8346
  167DOPC   C3620309   5.830   4.207   7.756  0.1483  0.6292  0.3926
  167DOPC   H6X20310   5.719   4.218   7.756 -0.1007 -1.3827 -0.1787
  167DOPC   H6Y20311   5.874   4.299   7.712  0.0031  0.8281  0.6642
  167DOPC   C3720312   5.879   4.095   7.668  0.2187 -0.5882  0.7047
  167DOPC   H7X20313   5.988   4.088   7.690  0.2216  1.9089  1.8874
  167DOPC   H7Y20314   5.843   3.996   7.703  1.0439 -2.0215 -2.2129
  167DOPC   C3820315   5.843   4.114   7.517 -0.4668 -0.0916  0.2611
  167DOPC   H8X20316   5.735   4.141   7.524  0.0647  1.8519  2.2948
  167DOPC   H8Y20317   5.861   4.019   7.463  1.0581 -0.9214  2.1072
  167DOPC   C3920318   5.928   4.224   7.461 -0.0565 -0.5849  0.6469
  167DOPC   H9X20319   5.880   4.322   7.473  1.2921 -0.0939  2.3520
  167DOPC  C31020320   6.045   4.215   7.392  0.4502  0.1844  0.1312
  167DOPC  H10X20321   6.098   4.305   7.357  1.3638 -0.5791 -0.4594
  167DOPC  C31120322   6.118   4.091   7.364 -0.4470  0.0128  0.4364
  167DOPC  H11X20323   6.081   4.006   7.424  1.6208 -1.9553 -0.8995
  167DOPC  H11Y20324   6.224   4.106   7.397 -0.9519  2.3889  1.1542
  167DOPC  C31220325   6.118   4.036   7.216  0.9617 -0.1802 -0.1211
  167DOPC  H12X20326   6.172   3.939   7.224  1.3677 -0.0949 -1.6525
  167DOPC  H12Y20327   6.167   4.112   7.152  2.4979  0.9216  2.2086
  167DOPC  C31320328   5.981   4.001   7.154  0.0979 -0.0518  0.0659
  167DOPC  H13X20329   5.930   3.939   7.230  0.2738  0.6107  0.7442
  167DOPC  H13Y20330   5.925   4.097   7.147 -0.0218 -0.1545 -0.3529
  167DOPC  C31420331   5.985   3.926   7.020 -0.1204  0.1893  0.1341
  167DOPC  H14X20332   6.026   3.828   7.052 -0.7829 -0.1605 -0.0786
  167DOPC  H14Y20333   5.883   3.910   6.979 -0.4114  1.1092  0.4752
  167DOPC  C31520334   6.077   3.982   6.906 -0.2034  0.2697 -0.2856
  167DOPC  H15X20335   6.179   4.013   6.937  1.3290 -1.1302 -3.4161
  167DOPC  H15Y20336   6.035   4.076   6.865 -1.1353  0.5195  1.2107
  167DOPC  C31620337   6.105   3.865   6.816 -0.1309  0.0422  0.3805
  167DOPC  H16X20338   6.164   3.798   6.883 -0.5031  0.5137  1.1991
  167DOPC  H16Y20339   6.009   3.816   6.792 -1.3067  1.0100  2.7698
  167DOPC  C31720340   6.197   3.897   6.698 -0.6371 -0.8780  0.0246
  167DOPC  H17X20341   6.139   3.963   6.631  0.2697  0.3784  0.4470
  167DOPC  H17Y20342   6.289   3.954   6.721  0.6131 -1.7221 -2.4780
  167DOPC  C31820343   6.251   3.769   6.635 -0.3755  0.0184  0.2546
  167DOPC  H18X20344   6.303   3.782   6.537 -0.5567  3.1398  0.4588
  167DOPC  H18Y20345   6.319   3.712   6.702 -0.5928 -0.7928 -0.1977
  167DOPC  H18Z20346   6.167   3.697   6.623  1.0058 -1.9152  1.5868
  168DOPC     N20347   1.510   2.925   9.069 -0.6760 -0.0564  0.3922
  168DOPC   C1220348   1.497   2.819   8.960  0.6475  0.5576 -0.1409
  168DOPC  H12A20349   1.593   2.817   8.910  0.8962  3.1894  0.0374
  168DOPC  H12B20350   1.422   2.870   8.902 -0.9745 -1.0773  0.4466
  168DOPC   C1320351   1.584   3.040   9.001 -0.4822  0.7714  0.1453
  168DOPC  H13A20352   1.682   3.004   8.972 -1.4647 -1.5304 -0.5944
  168DOPC  H13B20353   1.531   3.074   8.913  0.1048 -1.1230 -1.0142
  168DOPC  H13C20354   1.599   3.121   9.070  5.1629 -1.1414  1.7254
  168DOPC   C1420355   1.584   2.864   9.189  0.6545 -0.0051 -0.3398
  168DOPC  H14A20356   1.602   2.941   9.262 -0.5836  0.6425 -0.6978
  168DOPC  H14B20357   1.518   2.799   9.244 -1.8555  3.1113  0.5747
  168DOPC  H14C20358   1.680   2.819   9.166  0.7623 -1.0515  1.9205
  168DOPC   C1520359   1.369   2.963   9.121 -0.0116 -0.1682  0.2844
  168DOPC  H15A20360   1.302   3.012   9.052 -2.7773  0.0976  2.9370
  168DOPC  H15B20361   1.376   3.041   9.195 -1.0625  0.2964 -0.0930
  168DOPC  H15C20362   1.321   2.888   9.183  1.1141 -1.0522  0.1123
  168DOPC   C1120363   1.448   2.679   8.986  0.0452  0.4484 -0.8333
  168DOPC  H11A20364   1.351   2.696   9.038  1.7812  0.5039  2.7218
  168DOPC  H11B20365   1.435   2.620   8.893  0.5294 -2.7056  0.9660
  168DOPC     P20366   1.641   2.505   9.047  0.0722  0.0157 -0.2099
  168DOPC   O1320367   1.611   2.378   9.115 -0.2880 -0.3198 -0.1928
  168DOPC   O1420368   1.771   2.564   9.086 -0.0100  0.5263 -0.0857
  168DOPC   O1220369   1.526   2.606   9.083  0.3863  0.4112  0.2404
  168DOPC   O1120370   1.633   2.487   8.898  0.0458  0.2718  0.0285
  168DOPC    C120371   1.572   2.378   8.833 -0.1276 -0.0399 -0.1827
  168DOPC    HA20372   1.463   2.369   8.854 -0.1107 -0.9455 -0.4211
  168DOPC    HB20373   1.617   2.279   8.856 -0.9395  0.1538  2.6212
  168DOPC    C220374   1.593   2.393   8.682 -0.3483 -0.2616  0.7030
  168DOPC    HS20375   1.531   2.320   8.626 -0.6224 -0.5534  1.3716
  168DOPC   O2120376   1.731   2.382   8.640 -0.0867 -0.4416  0.0208
  168DOPC   C2120377   1.776   2.257   8.635  0.8714 -0.3444 -0.2418
  168DOPC   O2220378   1.717   2.161   8.673  0.5242 -0.3572 -0.7120
  168DOPC   C2220379   1.919   2.260   8.588  0.3365 -0.6321 -0.1831
  168DOPC   H2R20380   1.973   2.200   8.665  0.3190 -0.9873 -0.4449
  168DOPC   H2S20381   1.970   2.358   8.599 -0.6671 -0.2792  1.7942
  168DOPC    C320382   1.533   2.535   8.628 -0.0830  0.4011 -0.0659
  168DOPC    HX20383   1.603   2.607   8.677  0.4943 -0.7332  0.8126
  168DOPC    HY20384   1.431   2.552   8.667 -0.0953 -1.3617  0.7307
  168DOPC   O3120385   1.533   2.542   8.483 -0.0933 -0.1073  0.0320
  168DOPC   C3120386   1.480   2.652   8.434  0.4744  0.0777  0.0777
  168DOPC   O3220387   1.433   2.745   8.500 -0.0085 -0.1352 -0.5352
  168DOPC   C3220388   1.487   2.653   8.280 -0.0852  0.4010  0.1023
  168DOPC   H2X20389   1.585   2.606   8.256  0.0020 -1.5513  3.6061
  168DOPC   H2Y20390   1.397   2.603   8.238 -0.4079  0.3451  0.8417
  168DOPC   C2320391   1.929   2.203   8.443 -0.1029  0.5879  0.0278
  168DOPC   H3R20392   2.040   2.203   8.438 -0.0797  0.2303  0.5351
  168DOPC   H3S20393   1.900   2.282   8.370  1.8495  2.2073  0.9103
  168DOPC   C2420394   1.883   2.061   8.413  0.0402 -0.4249 -0.3823
  168DOPC   H4R20395   1.772   2.062   8.405  0.1010  0.2486 -1.2155
  168DOPC   H4S20396   1.897   1.989   8.497  2.6529  0.2586 -0.1624
  168DOPC   C2520397   1.957   2.010   8.292  0.2967  0.0220  0.6558
  168DOPC   H5R20398   2.028   1.926   8.311 -0.8605 -2.2232 -3.6479
  168DOPC   H5S20399   2.020   2.095   8.261  0.0908  0.2464  0.8472
  168DOPC   C2620400   1.866   1.965   8.175 -0.6134 -0.2554  0.4298
  168DOPC   H6R20401   1.792   2.043   8.149  0.5992  1.3947  1.7308
  168DOPC   H6S20402   1.815   1.870   8.200 -2.8674  0.2734 -1.7639
  168DOPC   C2720403   1.952   1.937   8.047 -0.2706  0.0091  0.2764
  168DOPC   H7R20404   2.030   1.860   8.067 -1.6246 -0.9751  2.0153
  168DOPC   H7S20405   2.020   2.023   8.028 -1.7747  1.0001 -0.8184
  168DOPC   C2820406   1.880   1.905   7.915 -0.2439 -0.4835 -0.4586
  168DOPC   H8R20407   1.961   1.899   7.838  0.2823 -3.7001  0.1830
  168DOPC   H8S20408   1.814   1.988   7.884  2.2895  1.2142 -1.6538
  168DOPC   C2920409   1.811   1.776   7.928  0.2870 -0.6133  0.4275
  168DOPC   H9R20410   1.735   1.773   8.007  0.6209 -0.9445  0.7357
  168DOPC  C21020411   1.803   1.670   7.843 -0.0662 -0.1647  0.3851
  168DOPC  H10R20412   1.755   1.578   7.879 -0.6853 -0.0089 -0.0327
  168DOPC  C21120413   1.878   1.649   7.709 -0.0349 -0.1063 -0.3703
  168DOPC  H11R20414   1.916   1.545   7.705 -2.0865 -0.9777  0.9601
  168DOPC  H11S20415   1.957   1.724   7.687 -0.2799  0.4690  0.6729
  168DOPC  C21220416   1.772   1.674   7.604 -0.1467 -0.3259  0.4950
  168DOPC  H12R20417   1.755   1.784   7.602  0.5236 -0.2251 -0.6032
  168DOPC  H12S20418   1.675   1.621   7.618  0.0547 -0.4214  1.6088
  168DOPC  C21320419   1.841   1.651   7.468 -0.2799  0.1132  0.4487
  168DOPC  H13R20420   1.908   1.564   7.480  0.9246  0.8444 -0.7153
  168DOPC  H13S20421   1.908   1.739   7.455 -0.6787  0.2816 -0.5020
  168DOPC  C21420422   1.755   1.632   7.341  0.4102 -0.2282 -0.0173
  168DOPC  H14R20423   1.681   1.715   7.335 -0.7095 -1.2831 -2.0725
  168DOPC  H14S20424   1.691   1.542   7.352  0.4209 -0.1838  0.4097
  168DOPC  C21520425   1.834   1.630   7.203 -0.4997 -0.9319  0.3619
  168DOPC  H15R20426   1.905   1.545   7.209  1.1469  0.5177  3.5462
  168DOPC  H15S20427   1.890   1.726   7.192 -0.7810 -0.8154 -0.0676
  168DOPC  C21620428   1.750   1.634   7.080  0.0788 -0.0342  0.1201
  168DOPC  H16R20429   1.684   1.721   7.101  0.2551 -0.3108  1.9938
  168DOPC  H16S20430   1.690   1.540   7.081 -2.1082  1.2878  0.7600
  168DOPC  C21720431   1.819   1.641   6.942  0.0559  0.0506  0.1649
  168DOPC  H17R20432   1.879   1.734   6.938  0.3531 -0.1757 -1.5149
  168DOPC  H17S20433   1.744   1.654   6.861  0.6716  0.2702 -0.3805
  168DOPC  C21820434   1.919   1.526   6.918  0.0028  0.5781  1.0666
  168DOPC  H18R20435   2.009   1.530   6.983 -0.4054  2.3255  1.5859
  168DOPC  H18S20436   1.953   1.540   6.813 -0.8944  0.4882  0.7620
  168DOPC  H18T20437   1.869   1.429   6.935  0.4498  0.6309  2.9120
  168DOPC   C3320438   1.492   2.795   8.215 -0.3087  0.6923  0.1455
  168DOPC   H3X20439   1.558   2.859   8.277 -0.7617  1.4161 -0.1075
  168DOPC   H3Y20440   1.391   2.840   8.201 -0.2530  0.2132 -2.3340
  168DOPC   C3420441   1.561   2.791   8.071 -0.1170 -0.1349 -0.4337
  168DOPC   H4X20442   1.666   2.760   8.090  0.5651  2.6375  0.7943
  168DOPC   H4Y20443   1.571   2.891   8.023  0.4886 -0.3265 -0.7078
  168DOPC   C3520444   1.474   2.706   7.978  0.4127  0.9018 -0.0202
  168DOPC   H5X20445   1.375   2.755   7.972 -0.4457 -0.1970  3.1128
  168DOPC   H5Y20446   1.468   2.602   8.018  0.5380  0.4585 -1.1165
  168DOPC   C3620447   1.524   2.706   7.836  0.1659 -0.2466 -0.1228
  168DOPC   H6X20448   1.558   2.809   7.814 -2.7219  0.4155 -2.1449
  168DOPC   H6Y20449   1.612   2.639   7.833  1.1617  0.9865  0.7287
  168DOPC   C3720450   1.427   2.667   7.730 -0.2010  0.1193  0.4411
  168DOPC   H7X20451   1.360   2.756   7.726  0.4149  0.6374  1.1340
  168DOPC   H7Y20452   1.472   2.684   7.630 -0.5171  1.7070  0.5337
  168DOPC   C3820453   1.352   2.537   7.737 -0.1582  0.1441  0.3158
  168DOPC   H8X20454   1.276   2.533   7.655  0.6195 -1.9606 -0.3582
  168DOPC   H8Y20455   1.306   2.533   7.838  2.9708 -3.4535  1.8294
  168DOPC   C3920456   1.443   2.419   7.724  0.0405  0.2535 -0.4107
  168DOPC   H9X20457   1.490   2.380   7.816  2.4046 -3.1626 -2.8051
  168DOPC  C31020458   1.481   2.359   7.606  0.3763  0.8350 -0.0208
  168DOPC  H10X20459   1.560   2.282   7.609 -0.1533  0.3080  1.2397
  168DOPC  C31120460   1.437   2.419   7.471 -0.4391  0.4303 -0.3939
  168DOPC  H11X20461   1.362   2.499   7.487 -1.0921 -0.1053 -0.7257
  168DOPC  H11Y20462   1.387   2.337   7.416 -1.5382  0.1120  1.0340
  168DOPC  C31220463   1.560   2.474   7.398  0.2126  0.5658  0.3949
  168DOPC  H12X20464   1.638   2.397   7.419  1.0618  1.6793  1.4211
  168DOPC  H12Y20465   1.590   2.568   7.447 -2.1587  0.3809  2.3970
  168DOPC  C31320466   1.532   2.501   7.252  0.1441  0.0274 -0.2628
  168DOPC  H13X20467   1.433   2.550   7.239 -0.7204 -0.7959  2.5440
  168DOPC  H13Y20468   1.619   2.560   7.217  0.0175  0.4582  0.1394
  168DOPC  C31420469   1.527   2.375   7.161 -0.9876 -0.1220  0.6801
  168DOPC  H14X20470   1.627   2.327   7.164  0.3747  2.3339 -1.6261
  168DOPC  H14Y20471   1.462   2.303   7.215 -0.8652  0.2938  1.3959
  168DOPC  C31520472   1.490   2.395   7.016 -0.0071 -0.2019 -0.1554
  168DOPC  H15X20473   1.562   2.335   6.957 -1.1877  0.7784 -2.7242
  168DOPC  H15Y20474   1.498   2.494   6.966 -2.6925 -0.6742 -1.7036
  168DOPC  C31620475   1.344   2.360   6.990  0.1387  0.3276 -1.0118
  168DOPC  H16X20476   1.318   2.253   7.006  0.8010  0.1738 -0.9611
  168DOPC  H16Y20477   1.292   2.411   7.074 -0.0778 -0.0459 -0.9193
  168DOPC  C31720478   1.293   2.393   6.852  0.3587 -0.1107 -0.4741
  168DOPC  H17X20479   1.185   2.368   6.848 -0.0119  1.2634  0.2130
  168DOPC  H17Y20480   1.296   2.500   6.820 -1.9875  0.3324  0.5387
  168DOPC  C31820481   1.367   2.320   6.741  0.1761  0.1673 -0.4665
  168DOPC  H18X20482   1.353   2.210   6.751  0.9445  0.2062  1.4175
  168DOPC  H18Y20483   1.336   2.353   6.640 -0.6021 -0.9067 -0.5932
  168DOPC  H18Z20484   1.477   2.331   6.743  0.0874  1.0019  0.4929
  169DOPC     N20485   0.502   2.383   8.927 -0.4178  0.5604  0.0602
  169DOPC   C1220486   0.547   2.361   8.787  0.5198  0.3021  0.4741
  169DOPC  H12A20487   0.539   2.451   8.729  0.7765  0.5150  0.7662
  169DOPC  H12B20488   0.475   2.294   8.742 -0.9802  2.3976 -0.3924
  169DOPC   C1320489   0.367   2.433   8.935  0.1611  0.1957 -0.1823
  169DOPC  H13A20490   0.366   2.519   8.868  3.2229 -1.4007 -2.5403
  169DOPC  H13B20491   0.287   2.367   8.903  1.5957 -0.8249 -1.8430
  169DOPC  H13C20492   0.350   2.454   9.039  0.5768  0.9424 -0.2523
  169DOPC   C1420493   0.600   2.462   9.004  0.2426 -0.2128 -0.0918
  169DOPC  H14A20494   0.572   2.567   9.003 -3.2178 -1.0146 -1.6909
  169DOPC  H14B20495   0.599   2.432   9.108 -0.3817  0.2135  0.0340
  169DOPC  H14C20496   0.700   2.456   8.965  0.6952 -0.2670  1.0325
  169DOPC   C1520497   0.484   2.246   8.991 -0.1187  0.8489  0.1100
  169DOPC  H15A20498   0.434   2.251   9.086 -0.6176  0.9213 -0.1517
  169DOPC  H15B20499   0.582   2.206   9.009 -0.3710 -0.4036 -1.1089
  169DOPC  H15C20500   0.426   2.183   8.925  3.0015  0.4751 -2.5295
  169DOPC   C1120501   0.690   2.316   8.754  0.2485 -0.3725  0.5506
  169DOPC  H11A20502   0.700   2.211   8.789  0.1215 -1.1405 -1.6126
  169DOPC  H11B20503   0.699   2.305   8.644  0.0256  0.1963  0.4755
  169DOPC     P20504   0.833   2.537   8.727  0.0673 -0.1117  0.2781
  169DOPC   O1320505   0.961   2.527   8.651  0.2110  0.2267  0.5885
  169DOPC   O1420506   0.830   2.645   8.825  0.4242 -0.2559  0.2640
  169DOPC   O1220507   0.790   2.398   8.798 -0.1009  0.3449 -0.1185
  169DOPC   O1120508   0.708   2.561   8.634  0.1842  0.0295 -0.4910
  169DOPC    C120509   0.696   2.669   8.536 -0.5326 -1.1728 -0.7850
  169DOPC    HA20510   0.771   2.747   8.561 -1.0472 -1.0250  0.3704
  169DOPC    HB20511   0.595   2.713   8.550  0.8106  1.2393  2.8243
  169DOPC    C220512   0.693   2.618   8.392  0.3484 -0.0966  0.5421
  169DOPC    HS20513   0.599   2.559   8.387  0.3554  0.0027 -1.3012
  169DOPC   O2120514   0.811   2.541   8.360  0.0952 -0.3690 -0.5880
  169DOPC   C2120515   0.786   2.454   8.263 -0.0279 -0.6665 -0.6402
  169DOPC   O2220516   0.680   2.426   8.213  0.6492  0.2519 -0.1027
  169DOPC   C2220517   0.927   2.418   8.210 -0.1206  0.1563 -0.3867
  169DOPC   H2R20518   0.979   2.357   8.287 -2.7504  0.5514  1.8655
  169DOPC   H2S20519   0.988   2.510   8.203 -1.6121  1.1009 -1.6081
  169DOPC    C320520   0.678   2.745   8.296 -0.4387  0.4141  0.3526
  169DOPC    HX20521   0.758   2.820   8.315 -0.2344  0.5779 -1.0387
  169DOPC    HY20522   0.594   2.811   8.326 -0.2959  0.4261  0.7312
  169DOPC   O3120523   0.670   2.706   8.161  0.2340 -0.0933  0.1266
  169DOPC   C3120524   0.544   2.673   8.120  0.9463  0.6778  0.0754
  169DOPC   O3220525   0.446   2.663   8.186  0.4509 -0.3753  0.0826
  169DOPC   C3220526   0.557   2.627   7.976  0.9918 -0.0155  0.2289
  169DOPC   H2X20527   0.591   2.717   7.921 -0.1608  1.8997  2.4834
  169DOPC   H2Y20528   0.630   2.544   7.968  2.0997  0.9234  0.3010
  169DOPC   C2320529   0.913   2.350   8.073  0.2543  0.4870  0.2323
  169DOPC   H3R20530   0.861   2.415   7.999  0.6820  1.9824  1.1915
  169DOPC   H3S20531   0.855   2.256   8.086  0.0716  0.6955  0.9204
  169DOPC   C2420532   1.064   2.319   8.031  0.1885 -0.5340  0.4193
  169DOPC   H4R20533   1.122   2.271   8.112  0.2431 -0.3797  0.4743
  169DOPC   H4S20534   1.118   2.416   8.017 -1.7675  0.4510 -0.7494
  169DOPC   C2520535   1.073   2.238   7.898 -0.0594 -0.2870  0.0304
  169DOPC   H5R20536   1.029   2.137   7.912  0.3354 -0.5975 -0.8269
  169DOPC   H5S20537   1.183   2.223   7.892 -0.0815 -1.1655  1.3354
  169DOPC   C2620538   1.027   2.323   7.780  0.3210  0.1112 -0.5811
  169DOPC   H6R20539   1.071   2.425   7.772 -0.3374  0.5954  1.4831
  169DOPC   H6S20540   0.916   2.331   7.770  0.3337  0.5757 -0.3880
  169DOPC   C2720541   1.085   2.260   7.652  0.4263 -0.2726  0.2980
  169DOPC   H7R20542   1.107   2.151   7.663  0.5189 -0.3299 -0.4210
  169DOPC   H7S20543   1.189   2.298   7.639  0.2033 -0.2891 -1.6956
  169DOPC   C2820544   0.986   2.274   7.533 -0.5009  0.4575  0.2911
  169DOPC   H8R20545   0.942   2.376   7.525 -0.1163  0.5263 -1.1438
  169DOPC   H8S20546   0.900   2.207   7.555  0.7006 -0.9432  0.8968
  169DOPC   C2920547   1.057   2.232   7.400  0.1566 -1.1327 -0.1565
  169DOPC   H9R20548   1.088   2.127   7.404  3.0631 -0.3686  0.1328
  169DOPC  C21020549   1.107   2.315   7.305  0.0593  0.6132 -0.2489
  169DOPC  H10R20550   1.131   2.266   7.209 -0.6902  0.0757 -0.1674
  169DOPC  C21120551   1.109   2.460   7.311  0.3846 -1.1962  0.3065
  169DOPC  H11R20552   1.208   2.506   7.288  0.6820 -0.6374  2.4334
  169DOPC  H11S20553   1.111   2.490   7.419  3.0322 -2.4932  0.7139
  169DOPC  C21220554   0.997   2.529   7.221  0.2312  0.3600 -0.4312
  169DOPC  H12R20555   0.997   2.636   7.253  0.9666  1.2421 -3.0805
  169DOPC  H12S20556   0.895   2.487   7.228 -0.2823  1.5747 -0.3594
  169DOPC  C21320557   1.029   2.523   7.069 -0.5886 -0.1911  0.1053
  169DOPC  H13R20558   1.034   2.413   7.050  0.8307 -1.1540  4.7462
  169DOPC  H13S20559   1.133   2.559   7.054 -1.2045  0.7662 -2.2990
  169DOPC  C21420560   0.917   2.576   6.976  0.0490  0.2938 -0.6856
  169DOPC  H14R20561   0.947   2.561   6.870  2.7605  0.2092  0.0312
  169DOPC  H14S20562   0.912   2.686   6.990  2.2233  0.9686 -4.1943
  169DOPC  C21520563   0.772   2.514   6.986  0.0804 -0.0864  0.3682
  169DOPC  H15R20564   0.733   2.531   7.089  0.1169  2.1871  0.0382
  169DOPC  H15S20565   0.790   2.404   6.978 -0.3362 -0.0435 -1.8390
  169DOPC  C21620566   0.668   2.550   6.882 -0.4728  0.9401  0.0995
  169DOPC  H16R20567   0.680   2.661   6.881  1.3068  0.8421  2.3111
  169DOPC  H16S20568   0.571   2.510   6.916 -0.5845 -0.3301 -1.5796
  169DOPC  C21720569   0.685   2.482   6.750  0.7387 -0.7502 -0.2559
  169DOPC  H17R20570   0.671   2.373   6.762  0.4479 -0.8330 -1.2192
  169DOPC  H17S20571   0.792   2.490   6.722  1.3184  0.4178  2.0666
  169DOPC  C21820572   0.592   2.530   6.639  0.2180 -0.6923  0.6382
  169DOPC  H18R20573   0.594   2.641   6.631  3.0417 -0.7977 -3.3665
  169DOPC  H18S20574   0.489   2.501   6.666  0.2560 -1.8165 -0.3147
  169DOPC  H18T20575   0.604   2.490   6.536 -0.3048  0.5617  0.0702
  169DOPC   C3320576   0.423   2.582   7.911  0.8007 -0.0047 -0.0336
  169DOPC   H3X20577   0.358   2.671   7.920  1.2291  0.2510  0.6165
  169DOPC   H3Y20578   0.381   2.494   7.965 -0.5507  1.3038  1.1226
  169DOPC   C3420579   0.455   2.555   7.767  0.0337  0.6418  0.0379
  169DOPC   H4X20580   0.530   2.474   7.757  0.6025  1.2637 -0.9192
  169DOPC   H4Y20581   0.487   2.653   7.725  1.5953  0.2602  0.2788
  169DOPC   C3520582   0.341   2.507   7.675  0.1380 -0.3475 -0.4760
  169DOPC   H5X20583   0.251   2.561   7.713  1.0971  0.8308  0.1816
  169DOPC   H5Y20584   0.330   2.398   7.696  0.6065 -0.2063  0.5661
  169DOPC   C3620585   0.362   2.543   7.528 -0.1768 -0.3881  0.0231
  169DOPC   H6X20586   0.350   2.653   7.515  2.2384 -0.3589 -3.0050
  169DOPC   H6Y20587   0.465   2.520   7.494 -0.3288  0.5211 -1.1068
  169DOPC   C3720588   0.247   2.472   7.453  0.0672  1.0780 -0.0761
  169DOPC   H7X20589   0.272   2.364   7.460  1.6057  1.4953  2.3901
  169DOPC   H7Y20590   0.153   2.480   7.512 -0.6904 -1.2358 -0.8730
  169DOPC   C3820591   0.215   2.511   7.309 -0.8954 -0.6992  0.0923
  169DOPC   H8X20592   0.191   2.619   7.300  0.6588 -0.5038 -2.7870
  169DOPC   H8Y20593   0.122   2.462   7.271 -0.7496  0.1131 -1.3690
  169DOPC   C3920594   0.335   2.485   7.220 -0.3190  0.0518 -0.1320
  169DOPC   H9X20595   0.434   2.522   7.252 -1.1577  1.1470  1.3636
  169DOPC  C31020596   0.341   2.427   7.096  0.9628 -0.4455 -0.2425
  169DOPC  H10X20597   0.440   2.405   7.055  0.8425 -0.0949 -0.7279
  169DOPC  C31120598   0.231   2.353   7.022 -0.6752 -0.0990  0.7860
  169DOPC  H11X20599   0.141   2.323   7.080 -0.2741 -1.0510  0.9386
  169DOPC  H11Y20600   0.255   2.245   7.010  0.1965  0.3885 -2.8003
  169DOPC  C31220601   0.195   2.413   6.884 -0.4835 -0.1661 -0.1340
  169DOPC  H12X20602   0.283   2.431   6.818 -0.6554 -0.1413 -0.3583
  169DOPC  H12Y20603   0.155   2.516   6.894  0.8617  0.4655 -1.0327
  169DOPC  C31320604   0.100   2.328   6.801 -0.5401 -0.7980 -0.5989
  169DOPC  H13X20605   0.129   2.221   6.791 -0.0734 -0.5778 -1.8353
  169DOPC  H13Y20606   0.012   2.326   6.868  0.3591  0.3067  0.6590
  169DOPC  C31420607   0.076   2.398   6.670 -0.0571  0.1226  0.0395
  169DOPC  H14X20608  -0.034   2.388   6.660 -0.1314  1.4209 -0.6112
  169DOPC  H14Y20609   0.098   2.507   6.664 -0.8302  0.3305  0.8436
  169DOPC  C31520610   0.157   2.342   6.560 -0.5457  0.0808  0.1510
  169DOPC  H15X20611   0.111   2.245   6.531 -2.7934  0.9279  0.6916
  169DOPC  H15Y20612   0.261   2.316   6.589 -0.7387  0.1213  0.8820
  169DOPC  C31620613   0.149   2.441   6.442 -0.3261  0.9013  0.4122
  169DOPC  H16X20614   0.048   2.485   6.434 -1.2736 -0.7226  2.4736
  169DOPC  H16Y20615   0.223   2.522   6.459  2.7094 -1.2510 -1.5452
  169DOPC  C31720616   0.182   2.378   6.301 -0.6626 -0.5143 -0.4354
  169DOPC  H17X20617   0.090   2.320   6.278  0.2570 -1.9320 -0.6522
  169DOPC  H17Y20618   0.185   2.451   6.217  1.0801 -1.3271 -1.1359
  169DOPC  C31820619   0.313   2.296   6.291  0.0787 -0.2305 -0.3918
  169DOPC  H18X20620   0.327   2.274   6.183  4.9175 -2.5658  0.4280
  169DOPC  H18Y20621   0.404   2.348   6.327 -0.6963 -0.1492  1.5586
  169DOPC  H18Z20622   0.314   2.191   6.327  1.2980 -0.6195 -1.4998
  170DOPC     N20623   0.371   1.796   9.125 -0.3557 -0.2079 -0.3014
  170DOPC   C1220624   0.502   1.799   9.054  0.5157 -0.0615 -0.1143
  170DOPC  H12A20625   0.576   1.758   9.122  0.6300 -1.3570 -0.9713
  170DOPC  H12B20626   0.526   1.895   9.012  1.7715  0.4360  1.6641
  170DOPC   C1320627   0.316   1.658   9.152  0.3757 -0.1641 -0.2809
  170DOPC  H13A20628   0.317   1.598   9.063 -0.5605  1.0044 -1.1059
  170DOPC  H13B20629   0.375   1.601   9.223  1.9013 -0.6400 -1.8711
  170DOPC  H13C20630   0.209   1.655   9.173  0.1896 -0.4469 -1.2441
  170DOPC   C1420631   0.263   1.862   9.051  0.0571  0.0854  0.3724
  170DOPC  H14A20632   0.288   1.966   9.037  0.0687  0.0466  0.0959
  170DOPC  H14B20633   0.225   1.815   8.961  1.4054 -1.5238  0.5883
  170DOPC  H14C20634   0.178   1.869   9.118  0.2640  2.0395  0.4743
  170DOPC   C1520635   0.397   1.856   9.259  0.0524 -0.4340 -0.8496
  170DOPC  H15A20636   0.451   1.784   9.319 -0.9167 -0.9667 -0.5898
  170DOPC  H15B20637   0.307   1.870   9.317  0.1095 -1.5093 -0.4778
  170DOPC  H15C20638   0.452   1.948   9.249 -0.0185  0.0055  1.9196
  170DOPC   C1120639   0.524   1.710   8.926 -0.4505 -1.1326 -0.1292
  170DOPC  H11A20640   0.449   1.743   8.851 -0.1783  0.1277  0.1208
  170DOPC  H11B20641   0.620   1.733   8.874 -0.1573  0.0130  0.8715
  170DOPC     P20642   0.639   1.486   9.011 -0.3129 -0.1475  0.4856
  170DOPC   O1320643   0.593   1.350   9.052  0.3901  0.3657 -0.0198
  170DOPC   O1420644   0.702   1.563   9.115  0.7251  0.2131  0.1444
  170DOPC   O1220645   0.516   1.567   8.947 -0.3220 -1.1754 -0.0991
  170DOPC   O1120646   0.739   1.472   8.892  0.2767 -0.1909 -0.1414
  170DOPC    C120647   0.697   1.398   8.771  0.0851  0.3831 -0.1128
  170DOPC    HA20648   0.587   1.389   8.762 -0.3037  3.3440  0.5611
  170DOPC    HB20649   0.741   1.297   8.772 -0.7775 -0.0297 -1.2636
  170DOPC    C220650   0.758   1.463   8.642  0.0252  0.4025  0.1379
  170DOPC    HS20651   0.707   1.558   8.615  0.9419  1.0169  0.4874
  170DOPC   O2120652   0.748   1.366   8.531  0.2441 -0.2653  0.0919
  170DOPC   C2120653   0.634   1.372   8.462  0.0389  0.5549 -0.2011
  170DOPC   O2220654   0.536   1.425   8.505  0.2188  0.2744  0.0599
  170DOPC   C2220655   0.645   1.312   8.320  0.0019 -0.7988  0.5500
  170DOPC   H2R20656   0.563   1.242   8.294 -1.8489  1.1532  0.7425
  170DOPC   H2S20657   0.745   1.265   8.314  1.8992  2.7897  0.8767
  170DOPC    C320658   0.913   1.490   8.659  0.2779 -0.0578  0.2286
  170DOPC    HX20659   0.968   1.403   8.702  0.6245  0.1143  0.1400
  170DOPC    HY20660   0.925   1.568   8.737 -2.0770 -0.2740  0.8916
  170DOPC   O3120661   0.971   1.540   8.530  0.1920 -0.2520 -0.0377
  170DOPC   C3120662   1.012   1.447   8.448 -0.3072  0.8141 -1.1937
  170DOPC   O3220663   1.030   1.327   8.472 -0.5307 -0.4512  0.1216
  170DOPC   C3220664   1.032   1.513   8.316 -0.0642  0.4000  0.3059
  170DOPC   H2X20665   0.946   1.581   8.296  0.1679  1.2241  1.9299
  170DOPC   H2Y20666   1.124   1.574   8.332  1.3237 -0.4555 -3.4118
  170DOPC   C2320667   0.619   1.434   8.219  0.4769 -0.3609 -0.4273
  170DOPC   H3R20668   0.676   1.526   8.242 -1.8065  1.5621 -1.9372
  170DOPC   H3S20669   0.510   1.455   8.228  0.5690  0.7611 -1.6404
  170DOPC   C2420670   0.635   1.396   8.070  0.1699  0.2824  0.4696
  170DOPC   H4R20671   0.600   1.293   8.049  0.9557 -0.3515  2.0961
  170DOPC   H4S20672   0.745   1.389   8.055  0.2092 -1.1653  1.2424
  170DOPC   C2520673   0.570   1.499   7.972 -0.4371 -0.1316  0.3035
  170DOPC   H5R20674   0.595   1.594   8.023 -0.0778  0.5639 -1.1363
  170DOPC   H5S20675   0.459   1.499   7.986 -0.4803  2.0954  0.2686
  170DOPC   C2620676   0.611   1.498   7.820 -0.2918 -0.1522 -0.1416
  170DOPC   H6R20677   0.587   1.399   7.777 -1.2393  0.5906 -1.3850
  170DOPC   H6S20678   0.721   1.515   7.820 -0.5677  2.0946  1.5572
  170DOPC   C2720679   0.531   1.598   7.737 -0.2281  0.0450  0.0499
  170DOPC   H7R20680   0.534   1.697   7.786 -0.8037  0.0413  0.0949
  170DOPC   H7S20681   0.424   1.568   7.740  0.0332 -0.9430  2.9340
  170DOPC   C2820682   0.595   1.612   7.594  0.2448 -0.5056 -0.0005
  170DOPC   H8R20683   0.565   1.517   7.546 -2.9064  0.0806  0.5817
  170DOPC   H8S20684   0.704   1.615   7.611  0.3384  1.6788 -0.6048
  170DOPC   C2920685   0.561   1.741   7.532  0.2099 -0.4013  0.0110
  170DOPC   H9R20686   0.599   1.830   7.582 -0.3153 -0.5482  0.6912
  170DOPC  C21020687   0.491   1.748   7.419 -0.4808 -0.2722 -0.0726
  170DOPC  H10R20688   0.471   1.844   7.369  0.7164 -0.4245 -0.8903
  170DOPC  C21120689   0.456   1.632   7.336  0.8389 -0.3805  0.4916
  170DOPC  H11R20690   0.366   1.577   7.373  1.2580 -0.1185  1.9925
  170DOPC  H11S20691   0.533   1.552   7.341  0.8917 -0.4963 -1.6302
  170DOPC  C21220692   0.446   1.659   7.183 -0.7783 -0.5249 -1.7768
  170DOPC  H12R20693   0.546   1.703   7.164 -0.1976 -1.8247 -1.8527
  170DOPC  H12S20694   0.361   1.724   7.152 -1.9706 -1.2786 -0.2376
  170DOPC  C21320695   0.426   1.535   7.102 -0.0227 -0.4274  0.2139
  170DOPC  H13R20696   0.347   1.477   7.154 -0.2970 -0.7091 -0.4961
  170DOPC  H13S20697   0.514   1.469   7.117  0.3449  0.5073  2.5704
  170DOPC  C21420698   0.405   1.559   6.945 -0.5073  0.2224 -0.7011
  170DOPC  H14R20699   0.503   1.593   6.905 -0.7790  1.7037 -0.1483
  170DOPC  H14S20700   0.324   1.633   6.926  1.8265  2.9609 -0.5374
  170DOPC  C21520701   0.355   1.425   6.874 -0.3857 -0.1883  0.3510
  170DOPC  H15R20702   0.282   1.393   6.952  0.4876 -2.3564  0.3641
  170DOPC  H15S20703   0.436   1.348   6.879  0.5447  0.8604  2.9611
  170DOPC  C21620704   0.278   1.448   6.746 -0.1219  0.6195 -0.2479
  170DOPC  H16R20705   0.193   1.514   6.772 -1.5845 -0.5789 -1.7823
  170DOPC  H16S20706   0.236   1.351   6.711 -0.2763  0.5895  0.0105
  170DOPC  C21720707   0.367   1.520   6.637  0.1268  0.3132  0.5663
  170DOPC  H17R20708   0.452   1.456   6.607  0.1123  0.4449  0.2420
  170DOPC  H17S20709   0.417   1.603   6.691  0.3079 -0.3729  1.4801
  170DOPC  C21820710   0.277   1.561   6.519 -1.2435  0.7611 -0.1584
  170DOPC  H18R20711   0.319   1.634   6.447  0.1319 -0.9060 -1.1264
  170DOPC  H18S20712   0.185   1.604   6.564 -1.2771  0.7861 -0.2506
  170DOPC  H18T20713   0.261   1.472   6.454 -3.3169  1.6039 -0.8921
  170DOPC   C3320714   1.051   1.407   8.211 -0.5189 -0.2669  0.1302
  170DOPC   H3X20715   0.958   1.347   8.215 -0.8322  0.1978 -0.0250
  170DOPC   H3Y20716   1.142   1.345   8.226 -0.1989 -0.1263 -1.0774
  170DOPC   C3420717   1.073   1.452   8.066 -0.0492  0.0694 -0.4724
  170DOPC   H4X20718   1.178   1.485   8.057 -0.1301 -0.1004 -2.3618
  170DOPC   H4Y20719   1.020   1.542   8.030 -2.8291 -0.8994  0.8396
  170DOPC   C3520720   1.059   1.331   7.972  0.3931  0.3171 -0.3864
  170DOPC   H5X20721   0.968   1.274   8.001  1.3403  0.1832  2.6460
  170DOPC   H5Y20722   1.145   1.262   7.979  2.2153  2.5878  1.5828
  170DOPC   C3620723   1.022   1.378   7.829  0.5302  0.1662 -0.3818
  170DOPC   H6X20724   0.957   1.468   7.835  1.1439  0.5091  2.5252
  170DOPC   H6Y20725   1.119   1.410   7.785  0.8824  1.6275  1.3143
  170DOPC   C3720726   0.953   1.269   7.743 -0.3813 -0.5311 -1.2111
  170DOPC   H7X20727   1.010   1.175   7.757  0.0135 -0.4546 -2.2506
  170DOPC   H7Y20728   0.856   1.257   7.795 -0.3834 -0.1042 -1.1129
  170DOPC   C3820729   0.945   1.298   7.596  0.0472 -0.2964 -0.4621
  170DOPC   H8X20730   1.050   1.310   7.559  0.3924 -0.3391  0.4856
  170DOPC   H8Y20731   0.894   1.392   7.568 -1.0079 -1.0743 -1.2097
  170DOPC   C3920732   0.888   1.195   7.509 -0.0902 -0.0710 -0.2102
  170DOPC   H9X20733   0.926   1.096   7.538  0.7597  0.3790  0.2730
  170DOPC  C31020734   0.804   1.210   7.407  0.6475  0.1241  0.0621
  170DOPC  H10X20735   0.780   1.127   7.340  4.7503 -0.6434 -0.7118
  170DOPC  C31120736   0.737   1.338   7.363 -0.0870 -0.1990 -0.1115
  170DOPC  H11X20737   0.743   1.417   7.440 -1.2248  1.2453 -1.4579
  170DOPC  H11Y20738   0.627   1.323   7.357 -0.0176 -0.6434 -0.3372
  170DOPC  C31220739   0.785   1.393   7.226 -0.2356 -0.4255 -0.3731
  170DOPC  H12X20740   0.896   1.403   7.236 -0.3083 -1.0346  1.2517
  170DOPC  H12Y20741   0.747   1.495   7.200  0.2071 -0.0790  0.3092
  170DOPC  C31320742   0.746   1.308   7.108 -0.3588 -0.2027 -0.0986
  170DOPC  H13X20743   0.792   1.207   7.116  0.7154  0.3647  1.4034
  170DOPC  H13Y20744   0.638   1.288   7.123 -0.5780 -0.3104 -1.6383
  170DOPC  C31420745   0.763   1.378   6.970  0.6274  0.2402  0.4643
  170DOPC  H14X20746   0.700   1.333   6.890  0.9606 -0.4252  0.5750
  170DOPC  H14Y20747   0.722   1.481   6.981  0.3076  0.0415  1.1979
  170DOPC  C31520748   0.908   1.387   6.915  0.0548 -1.1600  0.1640
  170DOPC  H15X20749   0.949   1.284   6.920 -0.7984 -1.7271 -2.6666
  170DOPC  H15Y20750   0.966   1.447   6.989 -1.1646  0.8434 -0.4137
  170DOPC  C31620751   0.924   1.459   6.785 -0.6560 -0.1773 -0.1231
  170DOPC  H16X20752   1.032   1.479   6.767 -0.3487 -0.1723  1.6033
  170DOPC  H16Y20753   0.879   1.402   6.701 -1.4757 -0.6347  0.6077
  170DOPC  C31720754   0.849   1.593   6.786 -0.2973  0.2137 -0.4559
  170DOPC  H17X20755   0.738   1.583   6.781 -0.1678 -2.4758  0.2578
  170DOPC  H17Y20756   0.871   1.648   6.880 -1.8552 -0.4385  0.3288
  170DOPC  C31820757   0.893   1.686   6.672 -0.1216  0.4062  0.5772
  170DOPC  H18X20758   0.860   1.639   6.576  0.4081 -1.5314  1.2984
  170DOPC  H18Y20759   0.844   1.785   6.677  2.3790  1.6478  2.9563
  170DOPC  H18Z20760   1.004   1.695   6.675  0.0029 -0.0615 -1.3119
  171DOPC     N20761   4.921   3.731   3.277  0.3084 -0.1444 -0.9004
  171DOPC   C1220762   4.789   3.815   3.273  0.2482 -0.1613  0.0258
  171DOPC  H12A20763   4.706   3.758   3.314  1.4392 -1.6216  0.5143
  171DOPC  H12B20764   4.782   3.841   3.169  2.2363  0.4654  0.0090
  171DOPC   C1320765   4.892   3.599   3.209 -0.3526  0.1489 -0.0808
  171DOPC  H13A20766   4.809   3.557   3.265  0.4200 -0.8165  0.3601
  171DOPC  H13B20767   4.861   3.615   3.107  0.9023  1.3803 -0.2904
  171DOPC  H13C20768   4.975   3.531   3.220 -0.0876  0.6664  1.3353
  171DOPC   C1420769   4.963   3.706   3.416 -0.1532 -0.0507 -0.2392
  171DOPC  H14A20770   4.892   3.643   3.466 -1.6638  0.7461 -1.2977
  171DOPC  H14B20771   5.059   3.658   3.429 -0.4621 -0.5297  0.2997
  171DOPC  H14C20772   4.966   3.797   3.474 -3.1535  0.0441 -0.0992
  171DOPC   C1520773   5.025   3.806   3.206 -0.5366 -0.6132  0.5130
  171DOPC  H15A20774   5.024   3.908   3.240  1.7267 -0.5083  0.4258
  171DOPC  H15B20775   5.011   3.809   3.099 -2.1570 -0.4180  0.7112
  171DOPC  H15C20776   5.119   3.760   3.235 -1.2986 -1.1304  2.2699
  171DOPC   C1120777   4.795   3.946   3.360  0.6991  0.6697 -0.1551
  171DOPC  H11A20778   4.698   3.999   3.352  0.7211  0.9366  1.0741
  171DOPC  H11B20779   4.798   3.917   3.467  2.0664  1.5972  0.0882
  171DOPC     P20780   5.012   4.083   3.421  0.0822  0.5198 -0.0196
  171DOPC   O1320781   4.973   4.216   3.476 -0.6448  0.2435  0.3163
  171DOPC   O1420782   5.134   4.073   3.347 -0.1849  0.1325 -0.0138
  171DOPC   O1220783   4.900   4.039   3.320 -0.0698  0.1198 -0.0086
  171DOPC   O1120784   5.007   3.975   3.536 -0.4977  0.5366 -1.0350
  171DOPC    C120785   5.068   3.991   3.662 -0.9410 -0.3264  0.1371
  171DOPC    HA20786   5.167   4.039   3.651 -0.8258 -0.7510 -0.7314
  171DOPC    HB20787   5.093   3.887   3.692 -1.9678 -0.9597 -1.0818
  171DOPC    C220788   4.980   4.050   3.768  0.0691 -0.3512 -1.2626
  171DOPC    HS20789   4.978   4.161   3.772  0.9161 -0.3728  0.1482
  171DOPC   O2120790   5.029   4.002   3.894  0.1248  0.2705 -0.3480
  171DOPC   C2120791   5.117   4.077   3.960  0.0074 -0.9748 -0.5286
  171DOPC   O2220792   5.170   4.181   3.928  0.0456 -0.6754  0.5211
  171DOPC   C2220793   5.165   4.002   4.089  0.1589  0.0135 -0.0404
  171DOPC   H2R20794   5.195   3.897   4.067 -0.0220 -0.2508  0.9188
  171DOPC   H2S20795   5.077   3.993   4.157 -1.3383 -2.5112 -2.1263
  171DOPC    C320796   4.833   3.997   3.755  0.3615  0.3732  0.2993
  171DOPC    HX20797   4.842   3.886   3.754 -0.0490  0.3398  0.1877
  171DOPC    HY20798   4.799   4.035   3.656 -1.8039 -1.3563  0.2806
  171DOPC   O3120799   4.748   4.046   3.863  0.3900  0.2132  0.1632
  171DOPC   C3120800   4.723   3.954   3.953  0.2675 -0.2418 -0.8229
  171DOPC   O3220801   4.754   3.837   3.947  0.1214  0.4840 -0.2115
  171DOPC   C3220802   4.643   4.015   4.067  0.5239 -0.0182 -0.8897
  171DOPC   H2X20803   4.683   4.114   4.099 -1.4651  0.1776  1.3407
  171DOPC   H2Y20804   4.542   4.037   4.026 -0.9412 -1.4652  1.6255
  171DOPC   C2320805   5.283   4.083   4.150 -0.6509  1.4917  0.4891
  171DOPC   H3R20806   5.247   4.183   4.183 -1.4249  0.9544  1.3024
  171DOPC   H3S20807   5.358   4.113   4.074  1.3771  0.8593  2.1402
  171DOPC   C2420808   5.359   4.016   4.265 -0.4552  0.4565  0.0701
  171DOPC   H4R20809   5.423   4.096   4.308  1.5726 -0.9889 -0.0895
  171DOPC   H4S20810   5.424   3.935   4.226 -2.4644 -1.6887  0.9286
  171DOPC   C2520811   5.264   3.956   4.365  0.5786  0.0407  0.3558
  171DOPC   H5R20812   5.224   3.860   4.325 -0.3306  0.2078  0.8610
  171DOPC   H5S20813   5.175   4.022   4.372  0.5001  0.8320 -4.4953
  171DOPC   C2620814   5.330   3.910   4.502  1.0290 -0.0805 -0.1772
  171DOPC   H6R20815   5.386   4.000   4.534 -0.0766  0.7460 -0.5036
  171DOPC   H6S20816   5.406   3.830   4.485  1.5359  0.2139  0.6399
  171DOPC   C2720817   5.229   3.860   4.606 -0.0644  0.6356 -0.8374
  171DOPC   H7R20818   5.200   3.758   4.574  0.8563  0.3966 -0.9330
  171DOPC   H7S20819   5.142   3.928   4.598 -1.3257 -0.9970 -1.6316
  171DOPC   C2820820   5.291   3.855   4.754 -0.4057 -0.6498 -0.1597
  171DOPC   H8R20821   5.324   3.960   4.771  1.3157 -0.9131 -1.5400
  171DOPC   H8S20822   5.386   3.797   4.755 -0.2898 -0.4636  0.6671
  171DOPC   C2920823   5.192   3.812   4.858  0.3254 -0.3359 -0.2718
  171DOPC   H9R20824   5.133   3.722   4.834 -1.5606  0.2362  1.8194
  171DOPC  C21020825   5.182   3.848   4.985  0.2090 -0.2491 -0.4940
  171DOPC  H10R20826   5.096   3.814   5.045 -0.5279  1.1282 -0.7232
  171DOPC  C21120827   5.278   3.941   5.057  0.8343  0.6238  0.2728
  171DOPC  H11R20828   5.223   4.022   5.110  0.7124  1.0739 -0.5269
  171DOPC  H11S20829   5.342   3.986   4.978  0.2390 -0.9975 -1.2075
  171DOPC  C21220830   5.360   3.864   5.164 -0.1774  0.0295  0.2973
  171DOPC  H12R20831   5.408   3.941   5.227  0.8947 -0.7000  0.4071
  171DOPC  H12S20832   5.438   3.801   5.115 -1.4770 -0.3212 -1.4314
  171DOPC  C21320833   5.287   3.757   5.249  0.2584 -0.2175 -0.0399
  171DOPC  H13R20834   5.253   3.679   5.177  2.0399 -0.7575 -0.3313
  171DOPC  H13S20835   5.198   3.797   5.303  0.0920  0.2773 -0.6733
  171DOPC  C21420836   5.382   3.699   5.359 -0.6631 -1.4393  0.1773
  171DOPC  H14R20837   5.480   3.694   5.308 -0.2991 -0.3879  0.7307
  171DOPC  H14S20838   5.344   3.596   5.372  0.7788 -2.4471 -2.8770
  171DOPC  C21520839   5.390   3.786   5.490  1.0627 -0.2114  0.2920
  171DOPC  H15R20840   5.289   3.779   5.537  0.0053  0.9875 -1.6830
  171DOPC  H15S20841   5.409   3.893   5.467  2.0218 -0.4310  0.0294
  171DOPC  C21620842   5.496   3.725   5.585  0.3260  0.0129  0.2274
  171DOPC  H16R20843   5.530   3.807   5.652 -1.2780  0.3235  0.6876
  171DOPC  H16S20844   5.588   3.684   5.537 -0.9490 -0.7577 -1.6545
  171DOPC  C21720845   5.445   3.605   5.666  0.5968 -0.2803 -0.2141
  171DOPC  H17R20846   5.434   3.520   5.596  1.2473  0.5994 -1.4206
  171DOPC  H17S20847   5.342   3.630   5.698  0.4499 -1.0062 -0.0898
  171DOPC  C21820848   5.533   3.556   5.775 -0.1007 -0.7279  0.1545
  171DOPC  H18R20849   5.627   3.509   5.739  0.2252 -0.1713  0.2662
  171DOPC  H18S20850   5.484   3.483   5.844  0.7106 -0.1524  1.3772
  171DOPC  H18T20851   5.564   3.635   5.847 -0.9674 -2.0402  2.0685
  171DOPC   C3320852   4.618   3.917   4.181 -0.3635 -0.0717 -0.3907
  171DOPC   H3X20853   4.619   3.812   4.144 -0.1183 -1.2314  2.6062
  171DOPC   H3Y20854   4.521   3.927   4.234  0.4104 -0.8655  1.2548
  171DOPC   C3420855   4.723   3.936   4.291  1.0345 -0.2214  0.3430
  171DOPC   H4X20856   4.723   4.044   4.318 -0.9082  0.0679 -0.6248
  171DOPC   H4Y20857   4.820   3.911   4.244  0.2224  2.1528 -2.9913
  171DOPC   C3520858   4.696   3.850   4.413 -0.0574 -0.1175  0.5048
  171DOPC   H5X20859   4.694   3.741   4.390 -1.3193  0.0165 -0.1086
  171DOPC   H5Y20860   4.594   3.884   4.441 -0.4287  0.4468 -1.3797
  171DOPC   C3620861   4.786   3.895   4.530  0.2391 -0.1360  0.0513
  171DOPC   H6X20862   4.886   3.847   4.527  0.0644 -0.5931  1.1788
  171DOPC   H6Y20863   4.801   4.004   4.520 -0.5297  0.0383  0.6990
  171DOPC   C3720864   4.725   3.865   4.665  0.3866 -0.4879  0.4994
  171DOPC   H7X20865   4.652   3.947   4.681  0.4725  0.2943 -2.4254
  171DOPC   H7Y20866   4.674   3.767   4.649 -2.0478  0.9087 -0.8338
  171DOPC   C3820867   4.822   3.861   4.782  0.0383  0.2275  0.4690
  171DOPC   H8X20868   4.826   3.965   4.819  2.9641 -0.2136  1.6389
  171DOPC   H8Y20869   4.920   3.835   4.738 -1.5481 -1.8131 -2.2097
  171DOPC   C3920870   4.782   3.771   4.897 -0.0006 -0.5184  0.2123
  171DOPC   H9X20871   4.773   3.666   4.866 -1.1893 -0.8889  1.6588
  171DOPC  C31020872   4.769   3.811   5.029  0.1151  0.2156  0.3358
  171DOPC  H10X20873   4.771   3.723   5.094 -0.7675  1.3592  1.9967
  171DOPC  C31120874   4.780   3.949   5.101  0.3159  0.1723 -0.3058
  171DOPC  H11X20875   4.679   3.995   5.101 -0.6208 -1.7880  0.6175
  171DOPC  H11Y20876   4.847   4.016   5.042 -1.2139  2.7845  0.7731
  171DOPC  C31220877   4.844   3.930   5.237 -0.4802  0.5632  0.8503
  171DOPC  H12X20878   4.865   4.031   5.279 -1.7631  0.2392  2.3493
  171DOPC  H12Y20879   4.942   3.878   5.229  1.1587  3.5972 -0.8708
  171DOPC  C31320880   4.758   3.862   5.348 -0.5417  0.6698  0.2374
  171DOPC  H13X20881   4.658   3.912   5.351 -0.5752  0.5758  0.6982
  171DOPC  H13Y20882   4.734   3.760   5.312  4.0673 -0.1785 -1.1483
  171DOPC  C31420883   4.824   3.854   5.490  0.1765  0.6439  0.1894
  171DOPC  H14X20884   4.777   3.776   5.554  0.9433 -1.2919 -1.4761
  171DOPC  H14Y20885   4.930   3.821   5.484 -1.0428 -4.0630  0.3033
  171DOPC  C31520886   4.821   3.987   5.569 -0.1510 -0.1248  0.8330
  171DOPC  H15X20887   4.713   3.990   5.595  0.0891 -0.5386  1.9669
  171DOPC  H15Y20888   4.853   4.076   5.512  0.9968 -0.6354  0.6437
  171DOPC  C31620889   4.895   3.982   5.705  0.1939 -0.3153 -0.0554
  171DOPC  H16X20890   4.856   3.911   5.781  0.6657  0.5726  1.0400
  171DOPC  H16Y20891   5.000   3.949   5.686 -0.7118 -2.3380 -1.9136
  171DOPC  C31720892   4.902   4.120   5.772 -0.1631  0.2370 -0.2180
  171DOPC  H17X20893   4.985   4.139   5.842  0.1929 -0.4375 -0.4434
  171DOPC  H17Y20894   4.928   4.197   5.696  0.8661  0.5272  0.4171
  171DOPC  C31820895   4.773   4.168   5.840  0.1018 -0.8190 -0.1218
  171DOPC  H18X20896   4.692   4.173   5.764  1.5916  0.8218 -1.6981
  171DOPC  H18Y20897   4.732   4.112   5.927 -1.4117 -1.0703 -0.9601
  171DOPC  H18Z20898   4.785   4.270   5.882 -0.0518 -0.6442 -0.4984
  172DOPC     N20899   2.370   5.639   4.350 -0.5657  0.2130 -0.0951
  172DOPC   C1220900   2.333   5.625   4.497  0.3604 -0.3058 -0.2104
  172DOPC  H12A20901   2.420   5.594   4.553  0.0883 -1.9434 -0.6365
  172DOPC  H12B20902   2.260   5.547   4.513  1.1704 -0.7398  1.6735
  172DOPC   C1320903   2.429   5.510   4.307 -0.3234  0.0929  0.9111
  172DOPC  H13A20904   2.523   5.479   4.349 -0.1135 -0.7685 -0.1543
  172DOPC  H13B20905   2.367   5.424   4.326 -0.7801  0.5992  1.8112
  172DOPC  H13C20906   2.452   5.505   4.202  3.3824 -1.6050  1.6462
  172DOPC   C1420907   2.474   5.753   4.324  0.3532 -0.2969 -0.9350
  172DOPC  H14A20908   2.561   5.740   4.388 -0.3816  1.2017  0.4528
  172DOPC  H14B20909   2.517   5.754   4.225  2.5618  1.0878 -0.0563
  172DOPC  H14C20910   2.425   5.848   4.339  1.6803  0.1561  1.0368
  172DOPC   C1520911   2.252   5.660   4.256  0.1272  0.3695  0.5375
  172DOPC  H15A20912   2.272   5.639   4.152  0.0522  0.8324  0.4275
  172DOPC  H15B20913   2.229   5.765   4.255 -0.6916  0.2001 -0.7185
  172DOPC  H15C20914   2.155   5.626   4.289 -0.5118  0.3702 -1.2249
  172DOPC   C1120915   2.273   5.747   4.573 -0.1353  0.1374 -0.3396
  172DOPC  H11A20916   2.278   5.724   4.682 -0.7271  0.9120 -0.1357
  172DOPC  H11B20917   2.345   5.831   4.558  0.8706 -0.7970 -0.8257
  172DOPC     P20918   2.016   5.706   4.579 -0.1820 -0.1868 -0.0529
  172DOPC   O1320919   2.017   5.576   4.511 -0.3919 -0.3028 -0.3881
  172DOPC   O1420920   1.889   5.783   4.556 -0.1159 -0.2048 -0.1461
  172DOPC   O1220921   2.139   5.794   4.529  0.2612 -0.0823 -0.6467
  172DOPC   O1120922   2.039   5.683   4.730 -0.1240  0.2166 -0.0287
  172DOPC    C120923   2.025   5.788   4.820 -0.2715 -0.1555 -0.7255
  172DOPC    HA20924   2.001   5.883   4.768  0.4173 -0.0123 -0.7951
  172DOPC    HB20925   2.122   5.808   4.870  0.1199 -0.7725 -1.2188
  172DOPC    C220926   1.923   5.763   4.932  0.0348  0.1669  0.9310
  172DOPC    HS20927   1.956   5.837   5.008  1.2926 -0.6443  1.1855
  172DOPC   O2120928   1.913   5.630   4.977 -0.6077  0.2678  0.4065
  172DOPC   C2120929   2.017   5.601   5.056  0.5321  0.5771  0.0632
  172DOPC   O2220930   2.109   5.676   5.071 -0.2198 -0.0366 -0.5044
  172DOPC   C2220931   2.006   5.456   5.120 -0.0085  0.7140  0.6849
  172DOPC   H2R20932   2.101   5.406   5.094 -0.8410  0.7900 -3.0640
  172DOPC   H2S20933   1.918   5.408   5.072 -0.0944  1.8059 -0.3119
  172DOPC    C320934   1.789   5.818   4.879 -0.3425  1.1861 -0.5211
  172DOPC    HX20935   1.739   5.761   4.798 -0.1184 -0.7816  0.6659
  172DOPC    HY20936   1.813   5.920   4.844  2.6800  0.4348 -0.9223
  172DOPC   O3120937   1.699   5.820   4.993  0.4711  0.5650  0.2225
  172DOPC   C3120938   1.681   5.933   5.061 -0.0479  0.4315 -0.0411
  172DOPC   O3220939   1.736   6.041   5.029  1.0431  0.6469 -0.1694
  172DOPC   C3220940   1.600   5.909   5.189 -0.6122 -0.2455  0.0452
  172DOPC   H2X20941   1.602   6.006   5.241  4.4355  0.6104 -1.1867
  172DOPC   H2Y20942   1.495   5.884   5.164 -0.1808 -0.9934 -1.1215
  172DOPC   C2320943   1.981   5.455   5.272  0.0343 -0.5373  0.6519
  172DOPC   H3R20944   2.038   5.529   5.332 -0.4170  0.7184 -0.4191
  172DOPC   H3S20945   1.997   5.350   5.305  1.0599 -0.7776 -0.4935
  172DOPC   C2420946   1.828   5.474   5.308 -0.2032 -0.1066 -0.3263
  172DOPC   H4R20947   1.761   5.406   5.251  0.4244 -1.8802  0.9547
  172DOPC   H4S20948   1.806   5.577   5.275  0.3521  0.9560  2.4152
  172DOPC   C2520949   1.801   5.464   5.455  0.3082 -0.4826 -0.7052
  172DOPC   H5R20950   1.836   5.364   5.488  1.5069  0.3624  0.7472
  172DOPC   H5S20951   1.695   5.481   5.481  0.5137 -0.2331  0.0105
  172DOPC   C2620952   1.875   5.574   5.537 -0.1180 -0.4678 -0.3364
  172DOPC   H6R20953   1.852   5.673   5.492  0.5265  0.0921  0.5148
  172DOPC   H6S20954   1.983   5.554   5.525 -0.2061 -0.6133 -0.9186
  172DOPC   C2720955   1.828   5.578   5.685 -0.3677 -0.0739  0.1360
  172DOPC   H7R20956   1.725   5.616   5.698 -0.3099  0.0287  0.3056
  172DOPC   H7S20957   1.889   5.655   5.738 -0.6092  0.8209 -0.8602
  172DOPC   C2820958   1.835   5.453   5.761  0.2013  0.5682  0.0674
  172DOPC   H8R20959   1.946   5.446   5.759  0.2015  0.5284  0.2082
  172DOPC   H8S20960   1.787   5.368   5.707  0.9500 -0.6285  1.2189
  172DOPC   C2920961   1.803   5.469   5.910 -0.5500 -0.3423 -0.2043
  172DOPC   H9R20962   1.834   5.565   5.953 -1.1117 -0.3857  0.3232
  172DOPC  C21020963   1.741   5.387   5.997  0.4560 -0.3559 -0.7186
  172DOPC  H10R20964   1.739   5.416   6.103 -1.9542 -2.1067 -0.2003
  172DOPC  C21120965   1.682   5.249   5.967  0.4353 -0.3598  0.3643
  172DOPC  H11R20966   1.748   5.172   6.013  0.0280 -0.0725  1.4417
  172DOPC  H11S20967   1.684   5.231   5.857 -0.1301 -0.6879  0.4037
  172DOPC  C21220968   1.531   5.227   6.010 -0.3388 -0.5710  0.6283
  172DOPC  H12R20969   1.459   5.273   5.939  0.7654 -1.5479 -1.1918
  172DOPC  H12S20970   1.524   5.266   6.114 -0.5349 -1.6493  1.0328
  172DOPC  C21320971   1.504   5.075   6.015  0.8004  0.4587 -0.2492
  172DOPC  H13R20972   1.571   5.033   6.093 -1.7384  1.1468  2.5143
  172DOPC  H13S20973   1.529   5.023   5.920 -1.2272 -0.9218 -0.0832
  172DOPC  C21420974   1.354   5.043   6.054  0.2713 -0.3121  0.2485
  172DOPC  H14R20975   1.291   5.012   5.968 -0.4988 -0.2717  0.7809
  172DOPC  H14S20976   1.314   5.135   6.103 -1.2231 -0.7920 -0.0155
  172DOPC  C21520977   1.344   4.933   6.154 -0.2840  0.2774 -1.2312
  172DOPC  H15R20978   1.394   4.949   6.252 -0.3715 -2.6149 -0.6236
  172DOPC  H15S20979   1.391   4.839   6.118 -0.1274  0.5621 -1.7932
  172DOPC  C21620980   1.202   4.892   6.170  0.0462 -0.2862 -0.4039
  172DOPC  H16R20981   1.164   4.861   6.070  2.7729  0.6539 -1.8383
  172DOPC  H16S20982   1.135   4.971   6.209  0.5995  0.7329 -1.4560
  172DOPC  C21720983   1.206   4.761   6.258  0.3751 -0.0724  0.3600
  172DOPC  H17R20984   1.251   4.787   6.356  2.6806 -4.2434  0.6331
  172DOPC  H17S20985   1.275   4.689   6.208 -0.9065 -0.0719 -1.5475
  172DOPC  C21820986   1.070   4.687   6.272 -0.0695  0.0882  0.1538
  172DOPC  H18R20987   1.087   4.596   6.334  1.3719 -0.1750 -0.5898
  172DOPC  H18S20988   1.026   4.647   6.178 -0.6785 -2.6784  1.5005
  172DOPC  H18T20989   0.997   4.755   6.321 -0.6656 -1.5305  1.6022
  172DOPC   C3320990   1.661   5.801   5.280 -0.1918  0.7331  1.0853
  172DOPC   H3X20991   1.764   5.826   5.316 -0.0665 -0.2429  1.4278
  172DOPC   H3Y20992   1.671   5.714   5.212  2.1722  0.9274  1.0883
  172DOPC   C3420993   1.562   5.768   5.394  0.2282  0.2753  0.5410
  172DOPC   H4X20994   1.578   5.662   5.421  0.9337 -0.4085 -2.2733
  172DOPC   H4Y20995   1.458   5.774   5.356  0.7769  1.9456 -0.8497
  172DOPC   C3520996   1.575   5.873   5.505 -0.1339 -0.5030 -0.3276
  172DOPC   H5X20997   1.570   5.972   5.456 -0.7244 -1.0786 -1.4952
  172DOPC   H5Y20998   1.663   5.864   5.572  0.5721 -0.8538 -1.2806
  172DOPC   C3620999   1.448   5.867   5.591 -0.3558 -0.8229 -0.1649
  172DOPC   H6X21000   1.446   5.966   5.641  0.8229 -1.4897  1.3079
  172DOPC   H6Y21001   1.359   5.865   5.525  0.0036  2.0498 -0.8739
  172DOPC   C3721002   1.439   5.752   5.696 -0.2405 -0.3452  0.5954
  172DOPC   H7X21003   1.331   5.729   5.712 -0.7868  0.9938 -0.9126
  172DOPC   H7Y21004   1.496   5.664   5.656  1.2263  1.0070 -0.4149
  172DOPC   C3821005   1.500   5.797   5.834 -0.1817  0.3890 -1.0094
  172DOPC   H8X21006   1.604   5.833   5.823 -0.3437  1.4675  0.5682
  172DOPC   H8Y21007   1.519   5.704   5.892 -1.1710  0.8627  0.1244
  172DOPC   C3921008   1.438   5.909   5.910 -0.6921 -0.1744  0.3773
  172DOPC   H9X21009   1.453   6.003   5.855  0.2633 -0.8794 -0.6110
  172DOPC  C31021010   1.379   5.910   6.033  0.0800  0.4370  1.1463
  172DOPC  H10X21011   1.334   6.004   6.065 -1.8474  1.8490 -4.4498
  172DOPC  C31121012   1.355   5.777   6.100  0.3883 -0.0957 -0.6052
  172DOPC  H11X21013   1.362   5.687   6.035 -0.3894 -0.5065 -0.1415
  172DOPC  H11Y21014   1.256   5.782   6.151  0.9415  0.6100  0.4404
  172DOPC  C31221015   1.449   5.750   6.221  0.0636 -0.7644  0.1544
  172DOPC  H12X21016   1.428   5.815   6.309 -0.8555 -1.2509  0.3135
  172DOPC  H12Y21017   1.552   5.783   6.199 -0.1084  0.2755  0.8322
  172DOPC  C31321018   1.430   5.607   6.267 -0.3948 -0.3151  0.0048
  172DOPC  H13X21019   1.325   5.583   6.295 -1.1700 -0.6275 -2.8593
  172DOPC  H13Y21020   1.466   5.530   6.195  1.3219  0.0878  0.3807
  172DOPC  C31421021   1.516   5.578   6.391  0.1569  0.2578 -0.0454
  172DOPC  H14X21022   1.534   5.469   6.393  2.5372  0.3309 -4.7857
  172DOPC  H14Y21023   1.615   5.626   6.376 -1.4317  3.1866 -2.3468
  172DOPC  C31521024   1.454   5.609   6.526 -0.6183  0.2761 -0.2193
  172DOPC  H15X21025   1.351   5.566   6.528 -0.7610  0.6251  0.3827
  172DOPC  H15Y21026   1.427   5.716   6.542 -0.4620  0.6582 -2.2725
  172DOPC  C31621027   1.546   5.564   6.643 -0.2148 -0.5403 -0.5996
  172DOPC  H16X21028   1.479   5.584   6.729  1.0369 -0.3562  0.3532
  172DOPC  H16Y21029   1.564   5.455   6.630  1.7682 -0.3201  0.0128
  172DOPC  C31721030   1.677   5.641   6.651  0.0006 -0.3611 -0.2305
  172DOPC  H17X21031   1.745   5.592   6.724  0.1355 -0.6364 -0.5418
  172DOPC  H17Y21032   1.724   5.645   6.550  0.6168  3.0870  0.0534
  172DOPC  C31821033   1.653   5.788   6.698  0.1942 -0.3080 -0.0565
  172DOPC  H18X21034   1.608   5.784   6.799 -0.1258 -2.6181 -0.2304
  172DOPC  H18Y21035   1.750   5.843   6.698  0.0227  0.0022 -0.5044
  172DOPC  H18Z21036   1.582   5.847   6.637  0.0857  0.0224  0.3897
  173DOPC     N21037   2.644   2.832   3.924 -0.4310  0.0134 -0.2384
  173DOPC   C1221038   2.575   2.782   4.052 -0.6316  0.8355 -0.0912
  173DOPC  H12A21039   2.589   2.676   4.061  0.4077  1.1131  2.4494
  173DOPC  H12B21040   2.469   2.795   4.037 -0.4331  0.4250 -2.0389
  173DOPC   C1321041   2.637   2.973   3.921  0.8726 -0.8546  0.1182
  173DOPC  H13A21042   2.675   2.999   4.018  0.1076 -3.8888  1.3470
  173DOPC  H13B21043   2.694   3.009   3.836  1.7312  1.8441  1.7336
  173DOPC  H13C21044   2.539   3.010   3.896  1.2256 -1.7367 -2.9696
  173DOPC   C1421045   2.584   2.766   3.803 -0.0907  0.0962 -0.0341
  173DOPC  H14A21046   2.602   2.824   3.713 -0.0753  0.6839  0.3494
  173DOPC  H14B21047   2.620   2.664   3.798 -0.8808 -0.2632  1.2873
  173DOPC  H14C21048   2.476   2.766   3.802 -0.1556  3.0681 -0.4382
  173DOPC   C1521049   2.794   2.801   3.935  0.2735 -0.0605 -0.0279
  173DOPC  H15A21050   2.826   2.863   4.017  0.2485  0.7597 -0.6201
  173DOPC  H15B21051   2.854   2.843   3.855  0.1561 -0.1210 -0.1476
  173DOPC  H15C21052   2.807   2.695   3.950 -1.8292 -0.8029 -2.6426
  173DOPC   C1121053   2.610   2.846   4.184  0.5269  0.3703  0.0833
  173DOPC  H11A21054   2.584   2.791   4.277  0.0250  0.7295  0.1604
  173DOPC  H11B21055   2.719   2.868   4.196  0.5758  3.1144 -3.5202
  173DOPC     P21056   2.396   2.990   4.207  0.4509 -0.1697  0.1909
  173DOPC   O1321057   2.323   2.900   4.110 -0.6779 -0.1397 -0.1872
  173DOPC   O1421058   2.369   3.132   4.200  0.3842 -0.1794 -0.7235
  173DOPC   O1221059   2.551   2.977   4.186 -0.2548 -0.1860  0.2101
  173DOPC   O1121060   2.373   2.938   4.352 -0.0545  0.8447  0.1681
  173DOPC    C121061   2.422   3.013   4.467 -0.5696  1.0300  0.6957
  173DOPC    HA21062   2.497   3.089   4.435 -0.8378  0.5363 -1.1959
  173DOPC    HB21063   2.489   2.949   4.528  1.1001  2.5609  0.5679
  173DOPC    C221064   2.313   3.072   4.549  0.0961 -0.0124 -1.0550
  173DOPC    HS21065   2.235   2.995   4.566  0.1580  0.0397 -0.5082
  173DOPC   O2121066   2.256   3.188   4.484  0.3768  0.0070  0.2883
  173DOPC   C2121067   2.133   3.165   4.434 -0.1967  0.3185 -0.4327
  173DOPC   O2221068   2.071   3.062   4.424  0.4760 -0.5559  0.5889
  173DOPC   C2221069   2.085   3.299   4.392 -0.3522 -0.5962  0.1723
  173DOPC   H2R21070   2.038   3.275   4.295  1.1006 -1.6142 -0.3169
  173DOPC   H2S21071   2.170   3.369   4.384 -1.3769  0.9551  1.8766
  173DOPC    C321072   2.356   3.125   4.686 -0.3725  0.1141  0.0083
  173DOPC    HX21073   2.264   3.157   4.739  0.1875 -1.0299  1.7463
  173DOPC    HY21074   2.420   3.215   4.673  2.5682 -1.8464 -0.2427
  173DOPC   O3121075   2.426   3.027   4.768  0.1842  0.0640 -0.2001
  173DOPC   C3121076   2.532   3.063   4.838 -0.9144 -0.0032 -0.1140
  173DOPC   O3221077   2.580   3.175   4.843  0.2709  0.1827 -0.2815
  173DOPC   C3221078   2.583   2.941   4.915  0.3954  0.6504  0.5698
  173DOPC   H2X21079   2.589   2.858   4.841 -0.0340  0.3759  0.8380
  173DOPC   H2Y21080   2.684   2.968   4.952  0.5575 -0.0843  0.6724
  173DOPC   C2321081   1.989   3.365   4.496 -0.9451 -0.7290  0.0788
  173DOPC   H3R21082   2.051   3.378   4.587  2.0085 -1.9325 -1.6108
  173DOPC   H3S21083   1.905   3.296   4.522 -0.5955 -1.1388  0.1261
  173DOPC   C2421084   1.926   3.492   4.450 -0.1908 -0.2995  0.0670
  173DOPC   H4R21085   1.866   3.484   4.357 -0.6240  0.2467  0.3003
  173DOPC   H4S21086   2.002   3.570   4.427  0.1890 -1.1945 -2.0664
  173DOPC   C2521087   1.834   3.552   4.558 -0.2984 -0.1423 -0.3517
  173DOPC   H5R21088   1.743   3.488   4.566  0.5335 -1.3765 -0.5922
  173DOPC   H5S21089   1.787   3.640   4.510 -0.5749  0.5662  1.1468
  173DOPC   C2621090   1.904   3.582   4.686 -0.8656  0.2085 -0.8916
  173DOPC   H6R21091   2.007   3.619   4.668 -0.2501 -1.1415 -0.2482
  173DOPC   H6S21092   1.916   3.488   4.742  3.0551 -0.4764 -2.5509
  173DOPC   C2721093   1.821   3.676   4.781 -0.0809 -0.3358 -0.8074
  173DOPC   H7R21094   1.713   3.652   4.769 -0.4818  1.8653 -2.2664
  173DOPC   H7S21095   1.838   3.782   4.754 -0.2722  0.9482  3.4164
  173DOPC   C2821096   1.843   3.656   4.938  0.0638 -0.2811 -0.3319
  173DOPC   H8R21097   1.831   3.548   4.964 -0.0976 -0.2579 -0.3101
  173DOPC   H8S21098   1.764   3.713   4.991  0.3616  0.4426 -0.6631
  173DOPC   C2921099   1.976   3.710   4.987 -0.4012  0.0482  0.3202
  173DOPC   H9R21100   2.053   3.729   4.911  0.6669 -0.5463  1.2311
  173DOPC  C21021101   2.001   3.748   5.111  0.1679  0.1958 -0.4374
  173DOPC  H10R21102   2.098   3.797   5.129  1.5094 -2.3750 -0.2575
  173DOPC  C21121103   1.900   3.751   5.231 -0.4218 -0.3413 -0.6167
  173DOPC  H11R21104   1.862   3.651   5.260 -1.4406  0.2889  0.2641
  173DOPC  H11S21105   1.806   3.805   5.207 -0.6256  0.0648  1.0145
  173DOPC  C21221106   1.978   3.835   5.336  0.3340  0.0283 -0.0367
  173DOPC  H12R21107   1.993   3.941   5.307  0.6792 -0.4004 -1.5155
  173DOPC  H12S21108   2.076   3.792   5.368 -0.1756 -0.3687  1.0369
  173DOPC  C21321109   1.890   3.836   5.464  0.0167 -0.2748 -0.5342
  173DOPC  H13R21110   1.860   3.735   5.497 -1.8889  0.0456 -1.1549
  173DOPC  H13S21111   1.800   3.896   5.439 -0.2463 -0.4060  0.0714
  173DOPC  C21421112   1.974   3.903   5.577  0.9942  0.9531  0.3838
  173DOPC  H14R21113   1.973   4.012   5.555 -1.5356  0.4058 -2.9483
  173DOPC  H14S21114   2.075   3.858   5.576  0.3539 -0.5638  0.8907
  173DOPC  C21521115   1.897   3.879   5.707 -0.6688  0.5522 -0.0796
  173DOPC  H15R21116   1.911   3.771   5.726 -0.1156  0.4384 -1.0540
  173DOPC  H15S21117   1.788   3.898   5.699 -0.4351  2.0858  0.0486
  173DOPC  C21621118   1.965   3.952   5.836  0.2483 -0.2720 -0.1291
  173DOPC  H16R21119   1.996   4.058   5.822 -1.4378  0.1871 -0.6650
  173DOPC  H16S21120   2.054   3.889   5.855  0.3234  0.2460  1.3741
  173DOPC  C21721121   1.882   3.935   5.969 -0.0286  0.1156 -0.2346
  173DOPC  H17R21122   1.867   3.831   6.005 -0.9294  0.8555  1.6442
  173DOPC  H17S21123   1.783   3.970   5.934  0.2318  0.2399 -0.8672
  173DOPC  C21821124   1.942   4.020   6.081  0.3509 -0.5419  0.4775
  173DOPC  H18R21125   2.047   3.992   6.102  0.2647 -0.3717  1.1375
  173DOPC  H18S21126   1.884   3.994   6.172  0.0949 -1.8204 -0.0362
  173DOPC  H18T21127   1.935   4.129   6.057 -0.3181 -0.6869  0.0021
  173DOPC   C3321128   2.497   2.908   5.036 -0.1619  1.0964 -0.0659
  173DOPC   H3X21129   2.528   2.807   5.071  1.2184  1.3045 -0.6157
  173DOPC   H3Y21130   2.389   2.906   5.008 -0.7984 -0.8493  2.2003
  173DOPC   C3421131   2.511   3.001   5.152 -0.0186 -1.1013  0.9406
  173DOPC   H4X21132   2.486   3.105   5.123 -1.2860 -1.3274  1.1446
  173DOPC   H4Y21133   2.617   3.002   5.185  0.9391 -0.2498 -1.8603
  173DOPC   C3521134   2.422   2.969   5.274 -0.2973 -0.3794 -0.0534
  173DOPC   H5X21135   2.318   2.959   5.236  1.0559 -0.6466 -4.0892
  173DOPC   H5Y21136   2.420   3.052   5.347 -1.4078 -1.2004  0.9081
  173DOPC   C3621137   2.462   2.840   5.348  0.5816 -0.5700 -0.3655
  173DOPC   H6X21138   2.454   2.766   5.265 -1.2098  0.4813 -1.1882
  173DOPC   H6Y21139   2.571   2.847   5.366  0.2651 -0.3114  1.6080
  173DOPC   C3721140   2.362   2.810   5.454  0.4705  0.1154  0.2731
  173DOPC   H7X21141   2.363   2.884   5.537  0.2437  0.6567 -0.1982
  173DOPC   H7Y21142   2.257   2.793   5.421  0.3705 -0.7141  0.9729
  173DOPC   C3821143   2.385   2.673   5.520  0.5034 -0.5533 -0.0823
  173DOPC   H8X21144   2.485   2.674   5.569 -0.0392 -1.5770  1.0991
  173DOPC   H8Y21145   2.373   2.592   5.445 -1.1595  0.1103 -0.5805
  173DOPC   C3921146   2.279   2.641   5.625 -0.2270 -1.1589  0.0357
  173DOPC   H9X21147   2.182   2.625   5.577  1.1573 -0.2596 -3.3339
  173DOPC  C31021148   2.298   2.611   5.755  0.3566 -0.7095  0.0293
  173DOPC  H10X21149   2.213   2.593   5.822  1.7608  0.5465  2.2518
  173DOPC  C31121150   2.424   2.599   5.840  0.7366 -0.4175 -0.2018
  173DOPC  H11X21151   2.520   2.609   5.785  0.3632  1.6641 -0.5622
  173DOPC  H11Y21152   2.429   2.498   5.885  0.5062 -0.0888  0.5902
  173DOPC  C31221153   2.440   2.702   5.960 -0.5880  0.0758 -0.0509
  173DOPC  H12X21154   2.397   2.802   5.938  0.2675  0.7696  1.2639
  173DOPC  H12Y21155   2.549   2.718   5.978 -0.1272 -3.2863  0.7454
  173DOPC  C31321156   2.377   2.654   6.085  0.3333 -0.3298 -0.9712
  173DOPC  H13X21157   2.282   2.599   6.069  0.1657 -0.5199  0.5136
  173DOPC  H13Y21158   2.439   2.584   6.145  0.2532  0.3000 -0.1300
  173DOPC  C31421159   2.338   2.772   6.183 -0.5783 -0.9616 -0.7478
  173DOPC  H14X21160   2.430   2.813   6.230 -0.3582 -0.8878 -1.2336
  173DOPC  H14Y21161   2.292   2.847   6.116  0.7414 -0.1447 -0.7848
  173DOPC  C31521162   2.238   2.726   6.298 -0.3227  0.4389  0.5495
  173DOPC  H15X21163   2.309   2.687   6.375  0.8416  1.8440  0.2416
  173DOPC  H15Y21164   2.169   2.643   6.275 -0.8590  0.9658  0.2364
  173DOPC  C31621165   2.165   2.845   6.367 -0.4329 -0.7549  0.6620
  173DOPC  H16X21166   2.244   2.906   6.415  0.1487 -1.9739  1.2976
  173DOPC  H16Y21167   2.118   2.906   6.287 -1.5241 -1.2333  0.9171
  173DOPC  C31721168   2.066   2.788   6.476 -0.4657 -0.4812  0.0747
  173DOPC  H17X21169   1.979   2.729   6.441 -1.1786  0.6392 -0.1209
  173DOPC  H17Y21170   2.127   2.721   6.539  0.6071  0.9293  0.5958
  173DOPC  C31821171   2.017   2.894   6.567  0.1202 -0.2811 -0.6630
  173DOPC  H18X21172   2.099   2.962   6.600 -0.2945 -0.2696  0.3991
  173DOPC  H18Y21173   1.951   2.974   6.528  0.8239  1.6200  1.7421
  173DOPC  H18Z21174   1.971   2.852   6.659  2.4541  0.5383  0.9688
  174DOPC     N21175   4.929   2.533   3.320  0.8960 -0.5681  0.1672
  174DOPC   C1221176   5.019   2.563   3.434 -0.6210 -0.0956 -0.0008
  174DOPC  H12A21177   5.121   2.557   3.398 -0.0707 -2.3150  1.6953
  174DOPC  H12B21178   5.014   2.478   3.500  0.5683 -0.6607 -0.6080
  174DOPC   C1321179   4.794   2.503   3.370 -0.9015 -1.0933  0.4615
  174DOPC  H13A21180   4.751   2.577   3.436  0.6448 -0.5468  0.8806
  174DOPC  H13B21181   4.725   2.496   3.288  0.8502 -0.9385 -1.0822
  174DOPC  H13C21182   4.794   2.413   3.430  0.3736  0.3139  2.7117
  174DOPC   C1421183   4.977   2.410   3.251  0.1685 -0.0883 -0.0448
  174DOPC  H14A21184   4.901   2.367   3.188  0.6245 -1.7336  0.4802
  174DOPC  H14B21185   5.073   2.427   3.205  0.6556  0.8412  1.2582
  174DOPC  H14C21186   4.990   2.324   3.316  0.3481 -0.1664 -0.1820
  174DOPC   C1521187   4.921   2.650   3.226  0.0280 -0.0844  0.2500
  174DOPC  H15A21188   4.855   2.628   3.144  0.2714  1.2963 -0.3458
  174DOPC  H15B21189   5.017   2.678   3.184 -0.6079  2.7988  0.4925
  174DOPC  H15C21190   4.878   2.735   3.277  0.0036 -0.9047  1.6523
  174DOPC   C1121191   4.992   2.694   3.519  0.1228  0.4255  0.1416
  174DOPC  H11A21192   5.055   2.690   3.611  0.0825  0.9529  0.1956
  174DOPC  H11B21193   5.024   2.788   3.469  0.8773  0.3758  0.5114
  174DOPC     P21194   4.761   2.823   3.514  0.1130 -0.1281 -0.4437
  174DOPC   O1321195   4.618   2.773   3.502 -0.4898 -0.3648 -0.6484
  174DOPC   O1421196   4.823   2.895   3.397  0.2230  0.0793  0.3598
  174DOPC   O1221197   4.855   2.710   3.567 -0.4149 -0.0893  0.2079
  174DOPC   O1121198   4.768   2.937   3.628 -0.6095  0.0178  0.9793
  174DOPC    C121199   4.760   2.885   3.760 -0.3932 -0.4324  0.5551
  174DOPC    HA21200   4.851   2.823   3.777 -1.9687 -2.3969  2.4565
  174DOPC    HB21201   4.666   2.829   3.778 -0.5422 -0.1932  0.5249
  174DOPC    C221202   4.761   3.004   3.868 -0.0948  0.8555  0.0026
  174DOPC    HS21203   4.848   3.070   3.846  0.1145  0.3282 -0.8085
  174DOPC   O2121204   4.771   2.957   4.001 -0.3408  0.1826  0.0828
  174DOPC   C2121205   4.840   3.029   4.083 -0.0151  0.1428  0.3937
  174DOPC   O2221206   4.894   3.133   4.057  0.0286 -1.0201 -0.1291
  174DOPC   C2221207   4.839   2.971   4.219  0.1214  0.1867 -0.2017
  174DOPC   H2R21208   4.839   2.861   4.210  0.8615  0.0435  1.2700
  174DOPC   H2S21209   4.750   3.013   4.271 -0.4986 -1.1007 -0.1907
  174DOPC    C321210   4.633   3.095   3.866  0.0050  0.1388  0.6208
  174DOPC    HX21211   4.554   3.028   3.908 -0.8257  0.9311  0.3655
  174DOPC    HY21212   4.609   3.114   3.759  0.0454 -3.6810 -0.2096
  174DOPC   O3121213   4.647   3.216   3.939  0.0352  0.9749 -0.5479
  174DOPC   C3121214   4.581   3.228   4.058  0.0346 -0.3084 -0.3376
  174DOPC   O3221215   4.493   3.152   4.099 -0.0260 -0.0065  0.7565
  174DOPC   C3221216   4.612   3.366   4.115  1.2395 -0.2897 -0.5480
  174DOPC   H2X21217   4.721   3.389   4.113  1.0263  0.9232  0.5260
  174DOPC   H2Y21218   4.571   3.447   4.051 -0.5065  0.0796  0.9508
  174DOPC   C2321219   4.978   2.995   4.303  0.3912 -0.3756  0.2988
  174DOPC   H3R21220   5.016   3.099   4.299 -1.9738  0.6781  2.6022
  174DOPC   H3S21221   5.049   2.931   4.246  0.3233 -1.9173  1.8669
  174DOPC   C2421222   4.976   2.934   4.446  0.1215  0.1957  0.7989
  174DOPC   H4R21223   5.082   2.917   4.474  0.4046  0.7981  0.1339
  174DOPC   H4S21224   4.932   2.832   4.450 -0.0456  0.1817 -0.7351
  174DOPC   C2521225   4.903   3.016   4.555  0.0859  0.1771  0.4459
  174DOPC   H5R21226   4.806   3.061   4.523  0.0945 -1.2363 -1.8344
  174DOPC   H5S21227   4.974   3.098   4.578  1.9633 -1.1530 -0.3449
  174DOPC   C2621228   4.881   2.934   4.686 -0.6112  0.4485  0.0546
  174DOPC   H6R21229   4.844   2.831   4.664  0.9840 -0.3676  1.0340
  174DOPC   H6S21230   4.804   3.000   4.732  1.0316  2.6574 -0.2044
  174DOPC   C2721231   4.998   2.922   4.781 -0.2656  0.5468 -0.2644
  174DOPC   H7R21232   5.049   3.019   4.796  1.1756 -0.2801  0.3869
  174DOPC   H7S21233   5.072   2.856   4.730 -0.2513  0.2484  0.1313
  174DOPC   C2821234   4.953   2.863   4.925  0.1600 -0.2436  0.6070
  174DOPC   H8R21235   4.883   2.781   4.898 -0.2153  0.4870 -0.6981
  174DOPC   H8S21236   4.890   2.941   4.973 -0.1013 -0.4412  0.5872
  174DOPC   C2921237   5.057   2.822   5.022  0.3022  0.7907  0.0920
  174DOPC   H9R21238   5.152   2.787   4.978 -0.5502 -0.7425 -0.6022
  174DOPC  C21021239   5.040   2.809   5.154 -0.4428 -0.4443 -0.6484
  174DOPC  H10R21240   5.130   2.785   5.212 -1.1689 -0.7059  0.4218
  174DOPC  C21121241   4.903   2.827   5.215  0.0921  0.1602 -0.5841
  174DOPC  H11R21242   4.898   2.737   5.281  2.2265 -1.7818 -2.8959
  174DOPC  H11S21243   4.815   2.823   5.147 -0.4550  3.3423 -0.1944
  174DOPC  C21221244   4.881   2.942   5.306  0.1449  0.1561 -0.9239
  174DOPC  H12R21245   4.777   2.947   5.346  0.7993 -0.0125  0.9062
  174DOPC  H12S21246   4.900   3.034   5.246 -0.9153 -0.1255 -1.7314
  174DOPC  C21321247   4.955   2.929   5.440  0.2907 -0.0136  0.7484
  174DOPC  H13R21248   5.065   2.941   5.435  0.0635  2.1005  0.1222
  174DOPC  H13S21249   4.931   2.827   5.479 -2.8262  0.3376 -0.0390
  174DOPC  C21421250   4.909   3.037   5.535  0.4561  0.3255 -0.5720
  174DOPC  H14R21251   4.798   3.035   5.538  0.3454  0.8611 -2.6449
  174DOPC  H14S21252   4.931   3.134   5.486  1.7068 -0.0538 -0.8036
  174DOPC  C21521253   4.977   3.036   5.678  0.1452  0.0729 -0.5479
  174DOPC  H15R21254   5.086   3.022   5.664  0.0708 -0.4022 -0.6821
  174DOPC  H15S21255   4.933   2.943   5.719  0.0317 -0.1655 -1.1992
  174DOPC  C21621256   4.945   3.169   5.757  0.0970  0.4352 -0.1590
  174DOPC  H16R21257   4.834   3.169   5.754  0.0973 -0.8111 -0.6682
  174DOPC  H16S21258   4.991   3.257   5.707  0.8889 -0.2717 -0.6999
  174DOPC  C21721259   4.999   3.181   5.897  0.3411  0.0699 -0.1399
  174DOPC  H17R21260   4.957   3.094   5.951  2.2345 -0.3838  0.6772
  174DOPC  H17S21261   4.961   3.269   5.953  1.6803 -0.3937  1.5805
  174DOPC  C21821262   5.148   3.194   5.900 -0.7845  0.5055  0.3731
  174DOPC  H18R21263   5.176   3.272   5.825 -3.2106  2.2028  1.1238
  174DOPC  H18S21264   5.208   3.105   5.870  0.5117  1.0036  1.4141
  174DOPC  H18T21265   5.181   3.213   6.004 -0.6264 -2.3483  0.9211
  174DOPC   C3321266   4.534   3.385   4.255  0.1428 -0.1169  0.3551
  174DOPC   H3X21267   4.428   3.366   4.227 -0.8034  2.7899  1.5321
  174DOPC   H3Y21268   4.543   3.491   4.286  1.3275 -0.0999  0.0059
  174DOPC   C3421269   4.587   3.282   4.362  0.3722  0.4098 -0.2403
  174DOPC   H4X21270   4.698   3.283   4.361  0.3806  1.2874  0.2684
  174DOPC   H4Y21271   4.550   3.178   4.355  0.9906  0.2662 -1.9253
  174DOPC   C3521272   4.552   3.346   4.503  0.3166  0.5775  0.2155
  174DOPC   H5X21273   4.446   3.321   4.520 -0.0008  1.5841 -0.1996
  174DOPC   H5Y21274   4.554   3.457   4.505 -0.5819  0.5950  0.3312
  174DOPC   C3621275   4.643   3.299   4.612 -0.2113  0.0472  0.8271
  174DOPC   H6X21276   4.629   3.189   4.624  0.3132  0.0260  1.3091
  174DOPC   H6Y21277   4.750   3.321   4.593 -0.0247 -0.1905  1.5478
  174DOPC   C3721278   4.612   3.380   4.742 -0.3282 -0.3866  0.3309
  174DOPC   H7X21279   4.605   3.487   4.713 -2.3580 -1.0832 -2.0689
  174DOPC   H7Y21280   4.508   3.360   4.777 -0.5792  0.4160  0.0572
  174DOPC   C3821281   4.710   3.361   4.859 -0.2283 -0.1553 -0.5538
  174DOPC   H8X21282   4.691   3.436   4.939  0.9804 -0.4407  0.0261
  174DOPC   H8Y21283   4.813   3.391   4.828 -0.5000 -0.4271 -1.7728
  174DOPC   C3921284   4.721   3.221   4.918  0.6731 -0.3596  0.5532
  174DOPC   H9X21285   4.758   3.152   4.842  0.0654  0.5641 -0.6176
  174DOPC  C31021286   4.687   3.176   5.038 -0.3648  0.3785 -0.2032
  174DOPC  H10X21287   4.685   3.067   5.055 -1.0385  0.3112 -0.6547
  174DOPC  C31121288   4.624   3.265   5.145  0.0835 -0.1582  0.5553
  174DOPC  H11X21289   4.519   3.232   5.162  0.1315 -1.2572 -1.0368
  174DOPC  H11Y21290   4.608   3.371   5.117 -0.5512 -0.2646  0.5038
  174DOPC  C31221291   4.698   3.277   5.277  0.9154 -0.2896 -0.1736
  174DOPC  H12X21292   4.790   3.336   5.257  1.4329 -1.2852 -0.8290
  174DOPC  H12Y21293   4.741   3.182   5.316  0.7966 -0.1967  0.1876
  174DOPC  C31321294   4.621   3.358   5.388 -0.2198  0.5436 -0.9586
  174DOPC  H13X21295   4.565   3.439   5.338  0.9147  0.9381 -1.6313
  174DOPC  H13Y21296   4.564   3.282   5.446  1.3803  1.1490  1.6131
  174DOPC  C31421297   4.722   3.421   5.481 -0.3061 -0.1038  0.3340
  174DOPC  H14X21298   4.784   3.343   5.530  1.4572 -0.0400 -1.6517
  174DOPC  H14Y21299   4.792   3.472   5.413  0.0083 -1.1738 -0.1739
  174DOPC  C31521300   4.663   3.513   5.590 -0.3348 -0.3046 -0.1134
  174DOPC  H15X21301   4.562   3.476   5.618  0.1895 -0.8936  1.0696
  174DOPC  H15Y21302   4.650   3.615   5.551  3.1406  0.3699  0.1022
  174DOPC  C31621303   4.760   3.526   5.716  0.5224  0.0532  0.2134
  174DOPC  H16X21304   4.802   3.429   5.750 -0.5415  0.0878  1.7198
  174DOPC  H16Y21305   4.840   3.595   5.683  0.4304  0.5979  1.0988
  174DOPC  C31721306   4.691   3.572   5.849 -0.3137  0.1245 -0.1928
  174DOPC  H17X21307   4.770   3.580   5.927  3.3531 -1.0182 -3.4742
  174DOPC  H17Y21308   4.666   3.678   5.827 -0.6150 -0.1880 -1.4242
  174DOPC  C31821309   4.574   3.490   5.892 -0.3525 -0.2089  0.1943
  174DOPC  H18X21310   4.605   3.383   5.883  1.8389  0.3843  0.0719
  174DOPC  H18Y21311   4.553   3.522   5.996  0.2030 -0.7304  0.4773
  174DOPC  H18Z21312   4.492   3.510   5.820 -0.8851 -2.4438  0.0795
  175DOPC     N21313   3.336   5.657   4.109 -0.3189 -0.2969 -0.2339
  175DOPC   C1221314   3.411   5.769   4.035  0.2538  0.6040  0.0283
  175DOPC  H12A21315   3.391   5.764   3.929  0.1913  2.4173 -0.0745
  175DOPC  H12B21316   3.518   5.754   4.038 -0.0727 -2.9776 -0.7509
  175DOPC   C1321317   3.363   5.649   4.254  0.2762 -0.1585 -0.2736
  175DOPC  H13A21318   3.464   5.630   4.285  0.3119  0.7930  0.2600
  175DOPC  H13B21319   3.332   5.737   4.310  0.8849  0.1757 -0.4552
  175DOPC  H13C21320   3.315   5.562   4.295  1.9864 -1.1565 -0.3523
  175DOPC   C1421321   3.374   5.523   4.043  0.4364 -0.6507 -0.0324
  175DOPC  H14A21322   3.322   5.440   4.087  1.7203 -1.6339 -0.2916
  175DOPC  H14B21323   3.345   5.526   3.939 -3.1452 -0.5793  0.8392
  175DOPC  H14C21324   3.482   5.512   4.048  0.6729  0.9406 -0.8798
  175DOPC   C1521325   3.193   5.682   4.091  0.1170  0.1104  0.1389
  175DOPC  H15A21326   3.166   5.676   3.986  1.8357  0.0554 -0.3257
  175DOPC  H15B21327   3.162   5.771   4.143 -0.9962 -1.2340  1.9295
  175DOPC  H15C21328   3.142   5.606   4.148  1.3403 -1.2113 -0.4624
  175DOPC   C1121329   3.372   5.908   4.087  0.5647 -0.2228  0.2966
  175DOPC  H11A21330   3.427   5.979   4.022  1.1228 -1.6768 -0.8602
  175DOPC  H11B21331   3.266   5.932   4.062  0.9500 -0.3390 -1.5614
  175DOPC     P21332   3.365   6.046   4.305 -0.0248 -0.0997  0.0435
  175DOPC   O1321333   3.239   6.003   4.374 -0.1625  0.0886  0.2233
  175DOPC   O1421334   3.367   6.166   4.212 -0.5038  0.0428 -0.0971
  175DOPC   O1221335   3.413   5.925   4.224  0.4948 -0.5696 -0.0879
  175DOPC   O1121336   3.482   6.049   4.409  0.1535 -0.3414  0.2455
  175DOPC    C121337   3.518   5.960   4.513  0.1826  0.1583 -0.0616
  175DOPC    HA21338   3.627   5.963   4.534  0.3583 -0.0884 -0.8913
  175DOPC    HB21339   3.495   5.854   4.489  0.1703  0.8541 -3.7956
  175DOPC    C221340   3.458   6.000   4.646  0.5012  0.2769 -0.9275
  175DOPC    HS21341   3.349   6.016   4.628  0.2446 -0.9948 -0.5409
  175DOPC   O2121342   3.519   6.125   4.686  0.5022 -0.2659 -0.2811
  175DOPC   C2121343   3.442   6.225   4.726 -0.2858  0.2467 -0.1235
  175DOPC   O2221344   3.319   6.215   4.731 -0.1340 -0.5408  0.2986
  175DOPC   C2221345   3.532   6.348   4.744  0.2058  0.4648 -0.0968
  175DOPC   H2R21346   3.530   6.407   4.650  2.3774 -0.5576 -0.8608
  175DOPC   H2S21347   3.636   6.312   4.757  0.5877  2.2703  2.9273
  175DOPC    C321348   3.479   5.896   4.758  0.4692 -0.0679 -0.4004
  175DOPC    HX21349   3.586   5.896   4.787 -0.0032 -1.2012  1.4892
  175DOPC    HY21350   3.447   5.802   4.708 -4.1892 -1.1071  3.7306
  175DOPC   O3121351   3.397   5.932   4.874 -0.2749 -0.0412  0.4723
  175DOPC   C3121352   3.333   5.831   4.928  0.1429  0.4236  0.1331
  175DOPC   O3221353   3.350   5.713   4.896 -0.8390  0.5407 -0.2461
  175DOPC   C3221354   3.253   5.871   5.049 -0.3303 -0.3334 -0.0277
  175DOPC   H2X21355   3.192   5.962   5.030  0.5525  0.8064  2.2405
  175DOPC   H2Y21356   3.184   5.785   5.056  1.8786 -2.5397 -2.8244
  175DOPC   C2321357   3.494   6.422   4.871  0.1838  0.1540 -0.1184
  175DOPC   H3R21358   3.385   6.443   4.869 -0.1554 -1.4654 -1.2553
  175DOPC   H3S21359   3.546   6.519   4.861 -0.8130  0.8678  1.2390
  175DOPC   C2421360   3.549   6.353   4.996  0.0444  0.2284 -0.3221
  175DOPC   H4R21361   3.657   6.376   4.988 -0.4152  1.8757 -3.0445
  175DOPC   H4S21362   3.522   6.245   4.987 -2.3838  0.8081 -0.8012
  175DOPC   C2521363   3.501   6.414   5.129 -0.2676  0.3157 -0.2926
  175DOPC   H5R21364   3.390   6.407   5.122 -0.1739 -2.8109 -0.0128
  175DOPC   H5S21365   3.527   6.522   5.134 -0.0445  0.3261 -1.5116
  175DOPC   C2621366   3.555   6.328   5.239  0.0048 -0.5606  0.1464
  175DOPC   H6R21367   3.657   6.296   5.208  0.0480  0.2932 -0.6410
  175DOPC   H6S21368   3.489   6.238   5.245 -0.2450 -0.2756  2.3864
  175DOPC   C2721369   3.562   6.398   5.379 -0.5338  0.1520  0.3359
  175DOPC   H7R21370   3.464   6.440   5.411 -0.5691 -0.7841  1.5534
  175DOPC   H7S21371   3.630   6.485   5.370  1.6315 -1.4314  0.4853
  175DOPC   C2821372   3.618   6.298   5.487  0.2048  0.5475 -0.6963
  175DOPC   H8R21373   3.729   6.298   5.477  0.3436 -1.6047  0.2124
  175DOPC   H8S21374   3.574   6.198   5.470  1.9884 -0.7893  1.7888
  175DOPC   C2921375   3.582   6.346   5.626  0.7698  0.2137  0.7623
  175DOPC   H9R21376   3.594   6.454   5.644 -0.4811  0.4949  0.0080
  175DOPC  C21021377   3.541   6.268   5.726 -0.8292  0.1585 -0.0985
  175DOPC  H10R21378   3.539   6.321   5.822 -2.0665 -3.1476  1.8580
  175DOPC  C21121379   3.529   6.123   5.730  0.7183  0.5374  0.1288
  175DOPC  H11R21380   3.624   6.067   5.723 -0.0933 -1.0255  1.2058
  175DOPC  H11S21381   3.459   6.107   5.645 -0.5283  0.5583  1.1146
  175DOPC  C21221382   3.471   6.065   5.863 -0.3295  0.2506  1.1061
  175DOPC  H12R21383   3.471   5.954   5.861  1.4519  0.1653  2.8528
  175DOPC  H12S21384   3.366   6.101   5.867  0.3304  2.2718  1.7375
  175DOPC  C21321385   3.536   6.111   5.995  0.5668  0.7971  0.8218
  175DOPC  H13R21386   3.533   6.222   6.002 -1.3919  0.7760  0.9348
  175DOPC  H13S21387   3.643   6.082   5.999  0.2514 -0.9405 -1.2644
  175DOPC  C21421388   3.468   6.063   6.125 -0.3784  0.7285 -0.2347
  175DOPC  H14R21389   3.453   5.953   6.130 -2.3028  1.0111  1.0814
  175DOPC  H14S21390   3.372   6.118   6.122 -1.1458 -0.5746 -2.3049
  175DOPC  C21521391   3.537   6.103   6.259 -0.1701  0.1671 -0.4758
  175DOPC  H15R21392   3.569   6.208   6.240  0.4308 -0.1425 -1.2218
  175DOPC  H15S21393   3.629   6.045   6.278 -0.7650 -0.7767 -0.4238
  175DOPC  C21621394   3.447   6.098   6.381  0.3802  0.3458 -0.3546
  175DOPC  H16R21395   3.372   6.180   6.370 -1.6653 -0.7581  3.4246
  175DOPC  H16S21396   3.508   6.119   6.471 -0.2851 -0.4334  0.2976
  175DOPC  C21721397   3.369   5.967   6.396 -0.2979 -0.3915 -0.1466
  175DOPC  H17R21398   3.451   5.895   6.419  1.6016  1.8481  0.4150
  175DOPC  H17S21399   3.318   5.945   6.299 -2.8186 -0.6173  1.1598
  175DOPC  C21821400   3.268   5.969   6.515  0.6323 -0.2672  0.6329
  175DOPC  H18R21401   3.232   5.865   6.528 -0.9051  0.4461  2.7007
  175DOPC  H18S21402   3.181   6.032   6.487 -0.5445 -2.0991 -0.0294
  175DOPC  H18T21403   3.315   5.994   6.613 -0.0029 -1.5121  1.2785
  175DOPC   C3321404   3.343   5.900   5.174  0.0319 -0.0770 -0.0266
  175DOPC   H3X21405   3.359   6.009   5.187  0.8116 -0.2566  0.5592
  175DOPC   H3Y21406   3.445   5.859   5.162  1.5267  3.1622  0.6154
  175DOPC   C3421407   3.283   5.842   5.302  0.1911 -0.2706 -0.2230
  175DOPC   H4X21408   3.298   5.732   5.306  2.3567  0.0288  2.8041
  175DOPC   H4Y21409   3.174   5.860   5.304  0.0658 -0.8160 -1.1156
  175DOPC   C3521410   3.367   5.899   5.418  0.3866 -0.0573  0.4710
  175DOPC   H5X21411   3.359   6.010   5.421 -2.6803 -0.1367 -1.0718
  175DOPC   H5Y21412   3.471   5.869   5.394 -0.1972 -0.6492 -1.5427
  175DOPC   C3621413   3.332   5.854   5.554  0.2417 -0.1790  0.1418
  175DOPC   H6X21414   3.410   5.885   5.628 -0.4172 -0.2843  0.8981
  175DOPC   H6Y21415   3.233   5.897   5.582  0.5093 -0.1530  1.1174
  175DOPC   C3721416   3.318   5.704   5.564  0.3660  0.5287  0.0465
  175DOPC   H7X21417   3.271   5.661   5.473 -1.5836  0.3230  1.0958
  175DOPC   H7Y21418   3.423   5.668   5.561  0.4843  0.9101 -0.4890
  175DOPC   C3821419   3.248   5.662   5.696  0.7555  0.7113  0.0301
  175DOPC   H8X21420   3.248   5.552   5.710  1.8532  0.9149  1.9261
  175DOPC   H8Y21421   3.139   5.680   5.694  0.3361 -1.6057 -1.0822
  175DOPC   C3921422   3.310   5.722   5.827  0.8236  0.3017 -0.3455
  175DOPC   H9X21423   3.419   5.707   5.830  0.8848  0.8029  0.0364
  175DOPC  C31021424   3.243   5.786   5.928 -0.0189  0.1870  0.0810
  175DOPC  H10X21425   3.301   5.834   6.008  0.8680 -0.2133 -0.3060
  175DOPC  C31121426   3.089   5.816   5.928  0.2488  0.8067 -0.4212
  175DOPC  H11X21427   3.050   5.775   6.023  1.9828 -0.8627 -0.3699
  175DOPC  H11Y21428   3.050   5.752   5.846  2.2547 -0.3180 -0.5638
  175DOPC  C31221429   3.033   5.956   5.903  0.0223 -0.9542 -0.2295
  175DOPC  H12X21430   2.924   5.946   5.885 -0.6271  0.4549  2.3745
  175DOPC  H12Y21431   3.075   5.987   5.805  0.9883 -0.2059  0.4020
  175DOPC  C31321432   3.045   6.058   6.022  0.3865  0.4761  0.1806
  175DOPC  H13X21433   3.152   6.065   6.049  0.0347  1.6167  1.4170
  175DOPC  H13Y21434   3.008   6.159   5.993 -1.1039  0.1424  0.7922
  175DOPC  C31421435   2.970   6.011   6.145  0.2521  0.1137  0.9971
  175DOPC  H14X21436   2.862   5.991   6.125 -0.1337  2.2442  0.7214
  175DOPC  H14Y21437   3.011   5.914   6.181  0.1661  0.5152  2.2423
  175DOPC  C31521438   2.986   6.117   6.263  0.3736 -0.2977  0.1109
  175DOPC  H15X21439   2.964   6.220   6.228 -2.6801 -0.8034  0.2534
  175DOPC  H15Y21440   3.092   6.113   6.297 -0.1052  0.2362  1.7998
  175DOPC  C31621441   2.901   6.089   6.386 -0.5982  0.0983 -0.5216
  175DOPC  H16X21442   2.935   6.157   6.467 -1.2547  1.0815 -1.0530
  175DOPC  H16Y21443   2.791   6.099   6.380 -0.5615  0.1689 -1.2077
  175DOPC  C31721444   2.923   5.942   6.427  0.4581  0.5059  0.3078
  175DOPC  H17X21445   2.886   5.871   6.350 -0.0503 -1.8802  2.6128
  175DOPC  H17Y21446   3.034   5.931   6.434  0.7636  1.9085 -1.4491
  175DOPC  C31821447   2.861   5.917   6.567 -0.6002  0.2224  0.2118
  175DOPC  H18X21448   2.896   5.981   6.651  1.3139 -1.5685  0.8682
  175DOPC  H18Y21449   2.751   5.926   6.560 -0.7239 -0.9626  0.5040
  175DOPC  H18Z21450   2.890   5.814   6.595 -1.4247  0.6270  2.8279
  176DOPC     N21451   3.302   3.245   3.510  0.4090  0.2908  0.4996
  176DOPC   C1221452   3.164   3.253   3.567 -0.5046 -0.0243 -0.1106
  176DOPC  H12A21453   3.106   3.164   3.550  0.0396 -0.9916  2.6289
  176DOPC  H12B21454   3.108   3.336   3.526  1.7725  2.7204  1.9172
  176DOPC   C1321455   3.384   3.132   3.563 -0.1321 -0.3267 -0.3129
  176DOPC  H13A21456   3.476   3.118   3.507  0.3787 -1.0082  0.6518
  176DOPC  H13B21457   3.403   3.152   3.668  1.8248  1.5605 -0.9554
  176DOPC  H13C21458   3.338   3.034   3.565 -1.8290  0.4396 -0.3494
  176DOPC   C1421459   3.371   3.381   3.514 -0.3439  0.1418 -0.8635
  176DOPC  H14A21460   3.364   3.420   3.614  2.2148 -0.4627 -0.3723
  176DOPC  H14B21461   3.478   3.383   3.496 -0.3047  2.1328 -0.5779
  176DOPC  H14C21462   3.327   3.447   3.441 -2.6773  0.5292  0.7887
  176DOPC   C1521463   3.295   3.207   3.362  0.7237 -0.3258  0.2173
  176DOPC  H15A21464   3.234   3.262   3.293  1.4992 -0.3770 -0.5243
  176DOPC  H15B21465   3.273   3.102   3.368  1.0283 -0.3393  1.4196
  176DOPC  H15C21466   3.393   3.209   3.316  0.9604  0.3705  0.7190
  176DOPC   C1121467   3.161   3.266   3.727  0.3356 -0.5859 -0.5244
  176DOPC  H11A21468   3.224   3.357   3.742 -0.9807  0.5410 -1.5207
  176DOPC  H11B21469   3.057   3.291   3.758  0.0671 -0.8000 -1.2246
  176DOPC     P21470   3.116   3.027   3.826  0.1752 -0.0563  0.2884
  176DOPC   O1321471   3.175   2.898   3.780 -0.0037 -0.0794 -0.1199
  176DOPC   O1421472   2.977   3.061   3.780 -0.0904  0.2665 -0.4457
  176DOPC   O1221473   3.215   3.145   3.794  1.1426 -0.0657  0.1735
  176DOPC   O1121474   3.122   3.026   3.981  0.1468 -0.1858  0.1064
  176DOPC    C121475   3.214   2.959   4.063  0.7061  0.6475 -0.1416
  176DOPC    HA21476   3.213   3.001   4.165 -1.9005 -1.4478  0.8392
  176DOPC    HB21477   3.314   2.964   4.015  0.4179  1.6668 -0.6583
  176DOPC    C221478   3.169   2.813   4.106 -0.3536 -0.1660  0.6284
  176DOPC    HS21479   3.131   2.761   4.016 -0.4638  1.7747 -0.5017
  176DOPC   O2121480   3.076   2.815   4.210  0.0103 -0.4398 -0.2606
  176DOPC   C2121481   3.039   2.696   4.264 -0.3136  0.1365 -0.1050
  176DOPC   O2221482   3.027   2.591   4.197 -0.2712  0.1050 -0.3656
  176DOPC   C2221483   3.022   2.720   4.412  0.1261  0.4484  0.0814
  176DOPC   H2R21484   3.067   2.818   4.438  3.2383 -0.8707  0.1021
  176DOPC   H2S21485   3.071   2.637   4.466  1.0706 -0.3248 -1.8486
  176DOPC    C321486   3.307   2.745   4.144 -0.4279 -0.5248  0.1536
  176DOPC    HX21487   3.372   2.746   4.054 -1.1456 -2.0548 -0.4022
  176DOPC    HY21488   3.295   2.640   4.179  2.7053 -0.3196  2.3218
  176DOPC   O3121489   3.375   2.819   4.249  0.0234  0.2987 -0.2257
  176DOPC   C3121490   3.375   2.771   4.371 -0.5020 -0.3131  0.3309
  176DOPC   O3221491   3.309   2.678   4.415  0.3752 -0.6248 -0.2680
  176DOPC   C3221492   3.447   2.872   4.467 -0.1695  0.1556  0.4765
  176DOPC   H2X21493   3.553   2.871   4.433  0.4572 -0.1674  2.3494
  176DOPC   H2Y21494   3.408   2.975   4.452  2.3963  1.4378  1.9185
  176DOPC   C2321495   2.872   2.724   4.452 -0.0056  0.0833  0.1606
  176DOPC   H3R21496   2.825   2.626   4.428  3.8278 -2.2113  1.1315
  176DOPC   H3S21497   2.809   2.797   4.398 -0.7014 -0.1901  0.5815
  176DOPC   C2421498   2.853   2.759   4.599 -0.4780 -0.3679 -0.2934
  176DOPC   H4R21499   2.747   2.781   4.623 -1.0763 -2.3790 -0.9336
  176DOPC   H4S21500   2.900   2.857   4.621  1.5172 -1.2686 -0.3113
  176DOPC   C2521501   2.917   2.660   4.690  0.4958 -0.2941 -0.1468
  176DOPC   H5R21502   3.028   2.668   4.684  0.5171  0.2679  0.8199
  176DOPC   H5S21503   2.891   2.556   4.662 -1.1947 -0.0145  0.2915
  176DOPC   C2621504   2.894   2.672   4.843 -0.5858 -0.5630 -0.2338
  176DOPC   H6R21505   2.937   2.582   4.891  1.3270 -0.5634 -1.8111
  176DOPC   H6S21506   2.784   2.672   4.857 -0.3625 -0.9755  1.8026
  176DOPC   C2721507   2.936   2.801   4.914 -0.0888  0.1866 -0.1890
  176DOPC   H7R21508   2.894   2.888   4.858 -1.9577 -0.7396 -0.3082
  176DOPC   H7S21509   3.046   2.811   4.929  0.0164  0.3936 -1.0203
  176DOPC   C2821510   2.871   2.798   5.057  0.7158 -0.5197 -0.2637
  176DOPC   H8R21511   2.896   2.698   5.099 -0.1846 -0.5123  0.3367
  176DOPC   H8S21512   2.760   2.803   5.050  0.6118  1.0017  1.6816
  176DOPC   C2921513   2.914   2.907   5.150  0.4209 -0.1676  0.0641
  176DOPC   H9R21514   2.883   3.001   5.102 -1.4478 -0.7014  0.1463
  176DOPC  C21021515   2.984   2.896   5.262  0.2438 -0.2295 -0.8603
  176DOPC  H10R21516   2.989   2.988   5.322  1.9824 -1.0192  0.2974
  176DOPC  C21121517   3.022   2.769   5.328  0.6947  0.0125 -0.1027
  176DOPC  H11R21518   3.109   2.772   5.397  0.2325  0.0017  0.4920
  176DOPC  H11S21519   3.055   2.698   5.249  0.2405 -0.2631 -0.0509
  176DOPC  C21221520   2.902   2.714   5.400  0.7122 -0.2395  0.1437
  176DOPC  H12R21521   2.940   2.615   5.434 -0.0543 -0.3872  0.5905
  176DOPC  H12S21522   2.819   2.692   5.330  1.1903  1.3824 -1.0034
  176DOPC  C21321523   2.865   2.794   5.525 -0.2542 -0.3967  0.0441
  176DOPC  H13R21524   2.800   2.883   5.505  0.3770  0.3333  1.1352
  176DOPC  H13S21525   2.954   2.816   5.587  0.0859 -0.0093 -0.5717
  176DOPC  C21421526   2.775   2.715   5.631  0.6750 -0.7260  0.4590
  176DOPC  H14R21527   2.834   2.626   5.661  0.1744 -0.5990  1.9260
  176DOPC  H14S21528   2.678   2.680   5.590  0.0955  1.3842 -0.1079
  176DOPC  C21521529   2.750   2.800   5.756 -0.5072 -0.7924 -0.2376
  176DOPC  H15R21530   2.844   2.850   5.787 -1.5798  0.0162  1.9323
  176DOPC  H15S21531   2.730   2.733   5.843 -2.3647  1.2038  0.9603
  176DOPC  C21621532   2.644   2.910   5.736  0.2132  0.4259 -0.0937
  176DOPC  H16R21533   2.544   2.862   5.725  1.1836 -0.9882 -4.7736
  176DOPC  H16S21534   2.661   2.964   5.641 -1.3394 -0.7096 -1.0775
  176DOPC  C21721535   2.628   3.011   5.843  0.5751 -0.3178  0.1934
  176DOPC  H17R21536   2.625   2.959   5.941 -0.5261  1.3983  1.1032
  176DOPC  H17S21537   2.532   3.060   5.820  0.0567 -1.8801 -1.1999
  176DOPC  C21821538   2.741   3.111   5.826  0.2145  0.1732 -0.5187
  176DOPC  H18R21539   2.842   3.066   5.814 -0.3551 -1.7152  1.1545
  176DOPC  H18S21540   2.735   3.185   5.908  3.8092 -0.0495  0.0752
  176DOPC  H18T21541   2.720   3.172   5.735 -0.9277  0.0094 -0.3822
  176DOPC   C3321542   3.446   2.833   4.620 -0.7695  0.1761  0.8557
  176DOPC   H3X21543   3.487   2.730   4.624  0.1883  0.5055  0.0567
  176DOPC   H3Y21544   3.342   2.845   4.657 -0.9681 -0.1697  0.4227
  176DOPC   C3421545   3.542   2.919   4.700  0.3864  0.2975  0.0757
  176DOPC   H4X21546   3.488   3.015   4.712 -0.5320 -0.3094  0.9497
  176DOPC   H4Y21547   3.631   2.928   4.634  1.4415  0.1426  1.4400
  176DOPC   C3521548   3.588   2.852   4.831  0.6548  0.0841 -0.2648
  176DOPC   H5X21549   3.670   2.906   4.882  1.0575 -2.1857  1.7085
  176DOPC   H5Y21550   3.638   2.754   4.812  0.5938 -0.9358  3.8806
  176DOPC   C3621551   3.472   2.833   4.933  0.3161  0.0347  1.0843
  176DOPC   H6X21552   3.432   2.933   4.962 -1.7042 -0.2476 -0.5089
  176DOPC   H6Y21553   3.382   2.778   4.899  1.5009  0.2531 -2.9211
  176DOPC   C3721554   3.519   2.768   5.063  0.1543 -0.4459 -0.7500
  176DOPC   H7X21555   3.545   2.664   5.035 -0.1327 -0.9040  0.5918
  176DOPC   H7Y21556   3.605   2.816   5.116  0.8632 -1.0885 -1.3041
  176DOPC   C3821557   3.416   2.757   5.179 -0.2995  0.6123 -0.9410
  176DOPC   H8X21558   3.441   2.678   5.253 -0.6721  1.5626  0.2349
  176DOPC   H8Y21559   3.319   2.720   5.138 -1.2383  1.2183  0.6712
  176DOPC   C3921560   3.387   2.883   5.257  0.1172  0.6927 -0.1601
  176DOPC   H9X21561   3.309   2.948   5.214  0.7004  1.3347 -0.2646
  176DOPC  C31021562   3.454   2.924   5.360  0.2756  0.2742  0.3918
  176DOPC  H10X21563   3.402   3.007   5.410 -1.8978 -0.5646 -0.3749
  176DOPC  C31121564   3.557   2.854   5.446 -0.2138  0.6316 -0.0008
  176DOPC  H11X21565   3.640   2.923   5.474 -0.1679  0.5790 -0.0081
  176DOPC  H11Y21566   3.601   2.773   5.384  1.0106  0.7267  0.7138
  176DOPC  C31221567   3.503   2.800   5.572  0.4500 -0.5755 -0.4343
  176DOPC  H12X21568   3.572   2.732   5.626  0.2035 -0.3781  0.1360
  176DOPC  H12Y21569   3.412   2.740   5.550 -1.4985  1.6678  0.9618
  176DOPC  C31321570   3.445   2.912   5.669  0.3212  0.6135 -0.1448
  176DOPC  H13X21571   3.527   2.985   5.686  1.3164 -0.6026  0.4462
  176DOPC  H13Y21572   3.361   2.958   5.612  1.1507  0.7862 -1.2840
  176DOPC  C31421573   3.391   2.865   5.803 -0.1044 -0.1976 -0.0274
  176DOPC  H14X21574   3.459   2.799   5.861  0.1694 -0.5760 -0.7740
  176DOPC  H14Y21575   3.368   2.959   5.858  0.1371 -0.8261  1.1797
  176DOPC  C31521576   3.252   2.801   5.783 -0.0500 -0.4652 -0.3430
  176DOPC  H15X21577   3.260   2.713   5.716  0.1498 -1.8092  1.4100
  176DOPC  H15Y21578   3.186   2.873   5.728 -0.2180 -0.4945 -0.1792
  176DOPC  C31621579   3.171   2.781   5.911 -0.4914  0.3095 -0.0858
  176DOPC  H16X21580   3.235   2.771   6.002  0.6621 -0.9629 -0.9905
  176DOPC  H16Y21581   3.103   2.866   5.933 -0.5164  0.5465 -1.0405
  176DOPC  C31721582   3.077   2.660   5.897 -0.0692  0.5742 -0.8895
  176DOPC  H17X21583   3.007   2.693   5.817  0.7766  1.9248 -1.1161
  176DOPC  H17Y21584   3.133   2.569   5.868 -2.7791 -1.9392  1.1289
  176DOPC  C31821585   3.004   2.620   6.029 -0.9752 -0.5285  0.1007
  176DOPC  H18X21586   2.953   2.711   6.068 -0.3623  0.8142 -2.1007
  176DOPC  H18Y21587   2.931   2.538   6.011 -0.0768 -0.9571 -1.7904
  176DOPC  H18Z21588   3.079   2.595   6.107  2.6688  0.7754 -2.6917
  177DOPC     N21589   4.297   5.667   3.880  1.2668 -0.0683  0.1546
  177DOPC   C1221590   4.218   5.546   3.945 -0.0201 -0.3844  0.5855
  177DOPC  H12A21591   4.287   5.478   3.993  2.7241  0.5611 -1.7534
  177DOPC  H12B21592   4.170   5.492   3.865  1.3798 -0.9207  0.0811
  177DOPC   C1321593   4.392   5.622   3.775 -0.0257  0.2251  0.1620
  177DOPC  H13A21594   4.442   5.706   3.729 -1.0790 -0.0094 -1.4968
  177DOPC  H13B21595   4.466   5.553   3.812 -1.3570  0.2142  3.0647
  177DOPC  H13C21596   4.335   5.578   3.695  0.2994 -1.0320  0.6063
  177DOPC   C1421597   4.355   5.752   3.988 -0.2847  0.3061  1.0343
  177DOPC  H14A21598   4.274   5.794   4.045 -1.8498 -0.9417 -0.1743
  177DOPC  H14B21599   4.426   5.694   4.045 -0.0293 -0.2158  0.2030
  177DOPC  H14C21600   4.405   5.840   3.950 -3.1945  1.0401 -1.5093
  177DOPC   C1521601   4.198   5.757   3.805 -0.8751  0.6027 -0.0743
  177DOPC  H15A21602   4.246   5.837   3.751 -2.7370  1.6672 -0.2485
  177DOPC  H15B21603   4.141   5.800   3.886  0.7444  0.0502  1.4149
  177DOPC  H15C21604   4.144   5.690   3.740  0.2708 -2.1473  1.6297
  177DOPC   C1121605   4.111   5.579   4.039  0.6397  0.1975 -0.4517
  177DOPC  H11A21606   4.036   5.645   3.991 -1.2242  0.5956  2.6891
  177DOPC  H11B21607   4.042   5.497   4.069 -0.2438  1.3710  0.8709
  177DOPC     P21608   4.199   5.540   4.279 -0.2627 -0.1568 -0.2503
  177DOPC   O1321609   4.266   5.616   4.387  0.4083  0.1830  0.4647
  177DOPC   O1421610   4.271   5.427   4.221 -0.2114  0.5818 -0.4205
  177DOPC   O1221611   4.154   5.639   4.161 -0.5280 -0.0620  0.0750
  177DOPC   O1121612   4.051   5.489   4.316 -0.0429 -0.3919 -0.8519
  177DOPC    C121613   4.008   5.353   4.343  0.0901 -0.3539  0.0405
  177DOPC    HA21614   4.093   5.282   4.331 -0.6070 -1.0542 -0.9707
  177DOPC    HB21615   3.925   5.316   4.278  0.7012 -0.3729 -0.7457
  177DOPC    C221616   3.952   5.337   4.493  0.2541 -0.4755  0.1497
  177DOPC    HS21617   3.850   5.380   4.480  0.1276 -0.6650  0.4967
  177DOPC   O2121618   4.037   5.411   4.587  0.1274  0.0582 -0.5872
  177DOPC   C2121619   3.996   5.531   4.616  0.4288 -0.6066 -0.0914
  177DOPC   O2221620   3.893   5.581   4.560  0.1692  0.0024  0.2846
  177DOPC   C2221621   4.090   5.594   4.716 -0.4909 -0.3160 -0.5996
  177DOPC   H2R21622   4.101   5.701   4.688  0.5146 -0.2070  0.1441
  177DOPC   H2S21623   4.185   5.537   4.708  0.7494  1.5983 -0.2080
  177DOPC    C321624   3.932   5.194   4.538  0.6552  0.3100 -0.2194
  177DOPC    HX21625   4.022   5.132   4.518  1.1807  1.5701 -2.0026
  177DOPC    HY21626   3.845   5.156   4.482 -0.6175  3.7362 -0.8339
  177DOPC   O3121627   3.886   5.189   4.677  0.9457  0.1725  0.0249
  177DOPC   C3121628   3.972   5.174   4.776 -0.2464  0.5130  0.6910
  177DOPC   O3221629   4.088   5.149   4.764  0.1050 -0.2240  0.3549
  177DOPC   C3221630   3.894   5.192   4.908 -0.3781 -0.4835  0.3504
  177DOPC   H2X21631   3.880   5.302   4.906  2.7724  0.0085 -1.0865
  177DOPC   H2Y21632   3.797   5.140   4.891  0.1998 -1.8479  1.0916
  177DOPC   C2321633   4.042   5.583   4.866 -0.1254  0.3326  0.3244
  177DOPC   H3R21634   3.976   5.495   4.878  1.7652 -1.4484 -1.4303
  177DOPC   H3S21635   3.977   5.672   4.878 -0.3549  0.8399 -3.4065
  177DOPC   C2421636   4.153   5.583   4.975  0.0013  0.0671 -0.6620
  177DOPC   H4R21637   4.205   5.681   4.967  2.2515 -1.0370 -0.4982
  177DOPC   H4S21638   4.228   5.506   4.946 -0.1349  0.0572 -0.9942
  177DOPC   C2521639   4.094   5.550   5.113  0.0254  1.0317 -0.1505
  177DOPC   H5R21640   4.048   5.449   5.107 -1.5744  1.7649 -1.1884
  177DOPC   H5S21641   4.003   5.610   5.137 -1.6189 -1.1022 -0.8062
  177DOPC   C2621642   4.185   5.561   5.235 -0.2390  0.5128  0.0541
  177DOPC   H6R21643   4.244   5.655   5.229 -0.9717  0.8788 -2.6763
  177DOPC   H6S21644   4.252   5.474   5.223 -1.3373 -0.2025 -1.0869
  177DOPC   C2721645   4.110   5.563   5.370 -0.5140  0.0848 -0.3332
  177DOPC   H7R21646   4.033   5.483   5.368 -0.4296  0.0094 -0.6635
  177DOPC   H7S21647   4.052   5.657   5.370 -1.6620 -0.4426  3.5473
  177DOPC   C2821648   4.201   5.545   5.489 -0.3741  0.9092 -0.3810
  177DOPC   H8R21649   4.247   5.645   5.506 -0.4968  0.9134 -0.0599
  177DOPC   H8S21650   4.287   5.479   5.462 -1.9623 -2.2565  1.7252
  177DOPC   C2921651   4.118   5.477   5.597 -0.2169  0.3543 -0.7779
  177DOPC   H9R21652   4.030   5.419   5.567 -0.6442 -0.4785  1.8411
  177DOPC  C21021653   4.142   5.492   5.728 -0.2828  0.5831  0.3340
  177DOPC  H10R21654   4.079   5.437   5.799  0.0771 -1.0515 -0.5722
  177DOPC  C21121655   4.256   5.569   5.791 -0.0901  0.1304  0.2641
  177DOPC  H11R21656   4.320   5.609   5.710  2.9740 -0.8494  2.0724
  177DOPC  H11S21657   4.319   5.492   5.840  0.6114  0.7488  0.3373
  177DOPC  C21221658   4.219   5.685   5.891 -0.2393  0.0260  0.9080
  177DOPC  H12R21659   4.153   5.760   5.842  3.1962  2.4964 -0.3880
  177DOPC  H12S21660   4.315   5.738   5.911 -0.1826  1.3889 -2.3813
  177DOPC  C21321661   4.143   5.629   6.009  0.3744  0.1350  0.0154
  177DOPC  H13R21662   4.060   5.561   5.979 -1.9211  2.6155  0.3495
  177DOPC  H13S21663   4.081   5.705   6.061 -2.5952 -1.6423 -0.6555
  177DOPC  C21421664   4.228   5.558   6.115  0.2229  0.6297 -0.0989
  177DOPC  H14R21665   4.322   5.606   6.151 -0.2500 -0.5484  3.0093
  177DOPC  H14S21666   4.256   5.453   6.092  2.2504 -0.0640  4.5411
  177DOPC  C21521667   4.158   5.534   6.254 -0.0006  0.2499 -1.1608
  177DOPC  H15R21668   4.105   5.629   6.276 -2.4230 -0.9758 -1.4246
  177DOPC  H15S21669   4.230   5.503   6.333 -0.8694  1.4744  0.1576
  177DOPC  C21621670   4.040   5.445   6.245 -0.2239  0.2065  0.1212
  177DOPC  H16R21671   4.079   5.342   6.230  1.4937  1.0601 -1.7844
  177DOPC  H16S21672   3.969   5.480   6.167 -0.9317  3.2337  1.9821
  177DOPC  C21721673   3.960   5.442   6.375 -0.1248  0.5998 -0.1882
  177DOPC  H17R21674   3.867   5.383   6.364 -0.5705  1.2990 -0.2580
  177DOPC  H17S21675   3.927   5.547   6.389 -0.5364  0.3513  0.7195
  177DOPC  C21821676   4.025   5.390   6.501  0.3752 -0.1285  0.1721
  177DOPC  H18R21677   4.024   5.280   6.488  0.5233 -0.0569 -0.4780
  177DOPC  H18S21678   3.958   5.410   6.588  0.2461  1.7088 -0.3170
  177DOPC  H18T21679   4.127   5.424   6.529  1.1334 -1.7933 -0.4375
  177DOPC   C3321680   3.967   5.146   5.040 -0.0403  0.5783  0.3759
  177DOPC   H3X21681   4.069   5.188   5.055 -0.1236  0.9450 -0.0759
  177DOPC   H3Y21682   3.975   5.035   5.036  1.6994  0.7150 -2.0003
  177DOPC   C3421683   3.887   5.183   5.170 -0.0210  0.4880  0.5638
  177DOPC   H4X21684   3.778   5.170   5.153  0.4689 -3.8438 -0.4294
  177DOPC   H4Y21685   3.902   5.291   5.191  1.1646  0.7794 -1.5171
  177DOPC   C3521686   3.927   5.095   5.295  0.2425  0.5032  0.9522
  177DOPC   H5X21687   4.014   5.029   5.273  0.1138  0.2176  1.2980
  177DOPC   H5Y21688   3.837   5.040   5.330 -1.4771  2.4731 -0.0979
  177DOPC   C3621689   3.973   5.197   5.400  0.1194  0.2097 -0.1387
  177DOPC   H6X21690   4.059   5.256   5.362  0.0158  0.2949 -0.2406
  177DOPC   H6Y21691   3.890   5.268   5.424 -0.6693 -0.2256 -1.4625
  177DOPC   C3721692   4.019   5.127   5.526  0.2043  0.3519 -0.1189
  177DOPC   H7X21693   4.079   5.037   5.500  1.9038  0.2358  3.6264
  177DOPC   H7Y21694   4.081   5.201   5.579 -0.7314  0.1254  1.3536
  177DOPC   C3821695   3.907   5.073   5.625  0.1178 -0.4111  0.3113
  177DOPC   H8X21696   3.956   5.015   5.706  1.5795  0.5101  0.1261
  177DOPC   H8Y21697   3.838   5.010   5.565  0.5909  1.4601 -2.3680
  177DOPC   C3921698   3.830   5.189   5.690 -0.3387 -0.4939  0.3524
  177DOPC   H9X21699   3.745   5.231   5.635 -0.7462 -1.5918  0.1239
  177DOPC  C31021700   3.850   5.246   5.817 -0.3045 -0.2957 -0.3437
  177DOPC  H10X21701   3.777   5.317   5.860  0.6139 -1.4364  3.5657
  177DOPC  C31121702   3.966   5.210   5.912 -0.1117  0.4401 -0.4125
  177DOPC  H11X21703   4.007   5.297   5.969 -1.9039  1.3594 -0.4635
  177DOPC  H11Y21704   4.051   5.172   5.850  0.2926 -0.5724  0.7234
  177DOPC  C31221705   3.926   5.101   6.015 -0.1156  0.2445 -0.5782
  177DOPC  H12X21706   4.023   5.075   6.062 -0.4307 -0.3242 -0.2304
  177DOPC  H12Y21707   3.900   5.010   5.957  0.8527 -0.8413  0.6270
  177DOPC  C31321708   3.831   5.150   6.126  0.6120  0.2193  0.0428
  177DOPC  H13X21709   3.851   5.251   6.168  3.1901 -0.0201 -0.4101
  177DOPC  H13Y21710   3.732   5.158   6.078  0.4332  0.9409  0.5177
  177DOPC  C31421711   3.838   5.042   6.236 -0.0013 -0.3461 -0.5568
  177DOPC  H14X21712   3.811   4.945   6.189 -1.5254  0.9300 -2.4886
  177DOPC  H14Y21713   3.938   5.037   6.284 -0.8704 -0.4334  1.3136
  177DOPC  C31521714   3.741   5.073   6.356 -0.7142 -0.5233 -0.5571
  177DOPC  H15X21715   3.639   5.094   6.318 -1.3203  0.0048  1.2548
  177DOPC  H15Y21716   3.776   5.165   6.407  0.2957 -0.9104 -0.5365
  177DOPC  C31621717   3.727   4.963   6.455 -0.0391 -0.1196 -0.4783
  177DOPC  H16X21718   3.657   4.883   6.424 -0.6437  0.5558 -0.8856
  177DOPC  H16Y21719   3.826   4.921   6.484  0.6379  2.3898  1.2343
  177DOPC  C31721720   3.664   5.007   6.588 -0.8254  0.3736 -0.7027
  177DOPC  H17X21721   3.655   4.922   6.659 -1.1853  1.8767  1.1216
  177DOPC  H17Y21722   3.729   5.082   6.637 -0.0060  0.7536 -2.3052
  177DOPC  C31821723   3.525   5.058   6.570  0.1432 -0.2561  1.0166
  177DOPC  H18X21724   3.484   5.086   6.669  0.6598  1.0492  0.8884
  177DOPC  H18Y21725   3.529   5.142   6.497 -0.8382 -1.4365 -0.4579
  177DOPC  H18Z21726   3.464   4.978   6.523  1.0698 -1.0822  1.1941
  178DOPC     N21727   2.931   5.419   4.617  0.1152  0.2491 -0.6049
  178DOPC   C1221728   2.981   5.482   4.750 -0.1097 -0.0550  0.0762
  178DOPC  H12A21729   3.082   5.518   4.737 -0.1006 -0.2917 -0.5740
  178DOPC  H12B21730   2.984   5.410   4.830 -2.2849  0.5176  0.7405
  178DOPC   C1321731   2.944   5.514   4.503 -0.1279 -0.4105 -0.5667
  178DOPC  H13A21732   2.926   5.465   4.409  1.9410 -1.1037 -0.6519
  178DOPC  H13B21733   2.873   5.595   4.515  0.8765  0.9213 -3.0145
  178DOPC  H13C21734   3.048   5.544   4.498 -0.4237  1.0768  1.1249
  178DOPC   C1421735   2.795   5.370   4.631 -0.5091  0.4373 -0.3286
  178DOPC  H14A21736   2.784   5.295   4.708 -1.3772  0.3965 -0.4699
  178DOPC  H14B21737   2.710   5.435   4.648 -1.5851 -0.2902 -2.4707
  178DOPC  H14C21738   2.766   5.313   4.543 -1.9911 -1.1179  1.0795
  178DOPC   C1521739   3.029   5.310   4.592 -0.6851  0.1277 -0.0595
  178DOPC  H15A21740   3.030   5.246   4.679  0.7496  1.0639  0.6419
  178DOPC  H15B21741   3.132   5.332   4.571 -0.2498 -1.5346  0.1472
  178DOPC  H15C21742   2.999   5.255   4.504  0.3693 -0.3718 -0.1164
  178DOPC   C1121743   2.894   5.591   4.811  0.3115  0.5414 -0.1755
  178DOPC  H11A21744   2.798   5.541   4.834  1.3559 -1.3583  0.3370
  178DOPC  H11B21745   2.938   5.610   4.912 -0.0705 -2.8497  0.7602
  178DOPC     P21746   2.964   5.825   4.740  0.1421  0.2800  0.1807
  178DOPC   O1321747   2.894   5.933   4.666 -0.8650 -0.1324 -1.1160
  178DOPC   O1421748   3.103   5.797   4.696  0.0431 -0.0680  0.0122
  178DOPC   O1221749   2.878   5.700   4.726  0.1265 -0.1407  0.1237
  178DOPC   O1121750   2.962   5.867   4.891 -0.4717  0.8905  0.8057
  178DOPC    C121751   2.850   5.853   4.978  0.0022 -0.0748 -0.1388
  178DOPC    HA21752   2.862   5.773   5.055 -3.1572 -0.4823  0.0512
  178DOPC    HB21753   2.754   5.824   4.931 -0.2226  1.3438 -0.5963
  178DOPC    C221754   2.823   5.985   5.054 -0.5696 -0.1073  0.2889
  178DOPC    HS21755   2.826   6.056   4.969  1.9586 -0.9531 -0.4331
  178DOPC   O2121756   2.932   5.998   5.151 -0.9661 -0.0985  0.9608
  178DOPC   C2121757   2.961   6.128   5.182  0.0106 -0.1740 -0.5566
  178DOPC   O2221758   2.893   6.220   5.145  0.1970 -0.2673 -0.1441
  178DOPC   C2221759   3.080   6.150   5.273 -0.0769  0.6573  0.2848
  178DOPC   H2R21760   3.171   6.170   5.212  0.2084 -1.5976 -0.1096
  178DOPC   H2S21761   3.092   6.054   5.327 -4.9979  1.1786  2.8073
  178DOPC    C321762   2.684   6.000   5.113 -0.0633  0.3536 -0.1202
  178DOPC    HX21763   2.612   5.989   5.029 -0.9931  2.0151  0.4067
  178DOPC    HY21764   2.662   6.100   5.155 -1.8288 -0.3166  0.6145
  178DOPC   O3121765   2.657   5.898   5.216 -0.1462 -0.4550 -0.2479
  178DOPC   C3121766   2.672   5.942   5.338 -0.1593  0.1271 -0.2066
  178DOPC   O3221767   2.674   6.048   5.383 -0.4364 -0.2702 -0.9289
  178DOPC   C3221768   2.701   5.826   5.428 -0.4426 -0.0810  0.9751
  178DOPC   H2X21769   2.610   5.763   5.442 -0.1669 -0.7806 -0.2968
  178DOPC   H2Y21770   2.778   5.766   5.375 -0.4461 -0.2173  1.1218
  178DOPC   C2321771   3.046   6.262   5.380  0.5921 -0.4130 -0.3789
  178DOPC   H3R21772   2.940   6.262   5.415  0.7185 -2.1483  0.1169
  178DOPC   H3S21773   3.060   6.359   5.329 -0.5015 -0.0073  0.0494
  178DOPC   C2421774   3.145   6.271   5.498 -0.3271 -0.2543 -0.2340
  178DOPC   H4R21775   3.249   6.254   5.463 -1.2452 -1.1000 -2.8077
  178DOPC   H4S21776   3.129   6.198   5.581 -3.4865 -1.9896 -2.1514
  178DOPC   C2521777   3.132   6.408   5.569  0.1245 -0.3744 -0.0498
  178DOPC   H5R21778   3.029   6.427   5.604 -0.0288  1.1819 -1.2504
  178DOPC   H5S21779   3.160   6.481   5.490  0.4652  0.2944  0.6770
  178DOPC   C2621780   3.225   6.423   5.691  1.1827  0.0592 -0.6564
  178DOPC   H6R21781   3.327   6.449   5.657  1.5392 -1.1511 -0.5514
  178DOPC   H6S21782   3.221   6.325   5.744  3.7019  0.1243 -0.2446
  178DOPC   C2721783   3.175   6.524   5.796 -0.2860 -0.2203 -0.5260
  178DOPC   H7R21784   3.069   6.497   5.814 -0.0892 -2.3551 -2.1442
  178DOPC   H7S21785   3.172   6.628   5.758  0.6775  0.4710  1.2001
  178DOPC   C2821786   3.264   6.541   5.925 -0.6122 -0.8009  0.3825
  178DOPC   H8R21787   3.219   6.626   5.980  0.1767  2.0121 -2.9998
  178DOPC   H8S21788   3.367   6.570   5.899 -1.4538  0.9033 -1.2450
  178DOPC   C2921789   3.274   6.426   6.016  0.1263  0.9834 -0.5075
  178DOPC   H9R21790   3.338   6.345   5.977  0.0783  1.6707 -2.1049
  178DOPC  C21021791   3.227   6.421   6.141  0.3356 -0.0635  0.0349
  178DOPC  H10R21792   3.222   6.321   6.186 -0.6683  0.8920  2.2002
  178DOPC  C21121793   3.181   6.533   6.238 -0.7097 -0.2249 -0.0590
  178DOPC  H11R21794   3.136   6.622   6.190 -1.6205  0.0464  1.2675
  178DOPC  H11S21795   3.272   6.565   6.293 -1.2550 -1.9903  2.0401
  178DOPC  C21221796   3.070   6.486   6.340  0.0067 -0.8752 -0.5334
  178DOPC  H12R21797   3.091   6.380   6.368 -2.0080 -1.2196 -0.1892
  178DOPC  H12S21798   2.977   6.488   6.280 -0.8408  1.5894  0.7342
  178DOPC  C21321799   3.056   6.588   6.456  0.1301 -0.0364 -0.6003
  178DOPC  H13R21800   3.024   6.690   6.428  0.1423  0.4026  0.8986
  178DOPC  H13S21801   3.162   6.593   6.490  0.0994 -1.1772 -0.3086
  178DOPC  C21421802   2.969   6.520   6.561  0.2404 -0.0529  0.0328
  178DOPC  H14R21803   2.943   6.601   6.632  2.7855  2.4635 -1.7082
  178DOPC  H14S21804   3.036   6.444   6.606  0.5923 -0.1868 -0.6972
  178DOPC  C21521805   2.841   6.448   6.516 -0.0311 -0.4823  0.4795
  178DOPC  H15R21806   2.868   6.359   6.455 -0.3720 -0.5220  0.3827
  178DOPC  H15S21807   2.787   6.506   6.438  0.5318  1.6153  1.5720
  178DOPC  C21621808   2.745   6.406   6.631  0.2277 -0.4143 -0.5004
  178DOPC  H16R21809   2.647   6.398   6.579  0.3654  1.3642 -1.0963
  178DOPC  H16S21810   2.733   6.490   6.703 -0.7408 -1.0461  0.1008
  178DOPC  C21721811   2.786   6.272   6.688 -0.5795  0.1398  0.1873
  178DOPC  H17R21812   2.896   6.257   6.680 -0.4897 -0.4467  2.0596
  178DOPC  H17S21813   2.742   6.190   6.628  2.2540 -1.4400  0.1277
  178DOPC  C21821814   2.740   6.243   6.830 -0.7070  0.2211 -0.3081
  178DOPC  H18R21815   2.794   6.310   6.901 -0.1130 -1.7868  1.2437
  178DOPC  H18S21816   2.776   6.146   6.871 -0.5164 -0.3674 -1.8018
  178DOPC  H18T21817   2.634   6.266   6.851 -0.3391  1.9885 -0.2366
  178DOPC   C3321818   2.757   5.863   5.565  0.2421  0.3281 -0.1775
  178DOPC   H3X21819   2.692   5.945   5.603  0.8078  0.9027 -0.4365
  178DOPC   H3Y21820   2.864   5.892   5.567  0.1527  0.6493  0.4099
  178DOPC   C3421821   2.744   5.746   5.669 -0.3709  0.1552 -0.5888
  178DOPC   H4X21822   2.802   5.782   5.757 -0.7781 -0.7891  0.0839
  178DOPC   H4Y21823   2.801   5.658   5.632  0.5573  0.4129  0.2036
  178DOPC   C3521824   2.602   5.710   5.722 -0.5347  0.3852 -0.6779
  178DOPC   H5X21825   2.596   5.624   5.792 -0.3223  1.1599  0.3081
  178DOPC   H5Y21826   2.546   5.668   5.635  0.6970  0.8654 -1.7516
  178DOPC   C3621827   2.526   5.824   5.798  0.2634  0.0476 -0.4112
  178DOPC   H6X21828   2.491   5.897   5.721  1.2645 -1.0242 -1.9374
  178DOPC   H6Y21829   2.429   5.792   5.843 -0.3826  0.8181 -1.2114
  178DOPC   C3721830   2.611   5.882   5.911 -0.4930 -0.1489  0.1822
  178DOPC   H7X21831   2.699   5.935   5.870 -0.1891  0.4048  1.5172
  178DOPC   H7Y21832   2.552   5.955   5.969  1.9892  3.7629 -1.8023
  178DOPC   C3821833   2.663   5.770   6.012 -0.2949 -0.0713  0.3522
  178DOPC   H8X21834   2.747   5.818   6.067  0.1875  0.8244 -1.1118
  178DOPC   H8Y21835   2.703   5.692   5.943 -1.9433  1.9865 -3.2195
  178DOPC   C3921836   2.550   5.708   6.089 -0.1807  0.2485 -0.1825
  178DOPC   H9X21837   2.496   5.625   6.042 -3.4458  1.6428  0.8688
  178DOPC  C31021838   2.517   5.753   6.211  0.0054 -0.2439 -0.3905
  178DOPC  H10X21839   2.432   5.707   6.264  0.9997 -2.5422 -0.6497
  178DOPC  C31121840   2.575   5.867   6.302 -0.5182 -0.2987  0.4083
  178DOPC  H11X21841   2.640   5.928   6.235 -0.9748 -0.7954 -0.5056
  178DOPC  H11Y21842   2.636   5.819   6.381  1.4426  1.7974  0.2839
  178DOPC  C31221843   2.454   5.962   6.328  0.0211  0.3368 -0.7593
  178DOPC  H12X21844   2.363   5.910   6.365  0.1941 -1.5361 -2.7695
  178DOPC  H12Y21845   2.422   6.013   6.235 -3.3890 -0.0095  0.0841
  178DOPC  C31321846   2.480   6.085   6.429  0.1737  0.0941  0.0057
  178DOPC  H13X21847   2.501   6.055   6.534  0.6242 -0.4901 -0.2457
  178DOPC  H13Y21848   2.562   6.149   6.391 -0.3233  1.6541  1.4274
  178DOPC  C31421849   2.355   6.179   6.448 -0.0605  0.3570  0.7888
  178DOPC  H14X21850   2.397   6.273   6.407  2.6113 -0.9824  0.1993
  178DOPC  H14Y21851   2.284   6.150   6.368  1.8907 -0.7347 -0.6418
  178DOPC  C31521852   2.295   6.199   6.581 -0.3777  0.0974 -0.1101
  178DOPC  H15X21853   2.226   6.285   6.569  0.1171  0.2945 -1.7923
  178DOPC  H15Y21854   2.359   6.227   6.668 -1.1647  2.9058 -0.3213
  178DOPC  C31621855   2.219   6.073   6.637  0.2639 -0.1833  0.1631
  178DOPC  H16X21856   2.296   5.996   6.661  1.6081  0.5321 -1.5497
  178DOPC  H16Y21857   2.165   6.103   6.728 -2.8264 -1.5597 -1.0851
  178DOPC  C31721858   2.111   6.025   6.533 -1.1577  0.4763 -0.0190
  178DOPC  H17X21859   2.040   6.109   6.526  1.1867  2.6357  0.7611
  178DOPC  H17Y21860   2.164   6.009   6.437 -0.5592 -2.1155  0.6471
  178DOPC  C31821861   2.037   5.908   6.592  0.0649 -0.3648 -0.1859
  178DOPC  H18X21862   2.019   5.946   6.695  1.9157 -0.6794  0.2952
  178DOPC  H18Y21863   1.935   5.895   6.549 -1.0494 -1.2899  2.4984
  178DOPC  H18Z21864   2.104   5.819   6.591  0.4428 -0.0783 -0.9818
  179DOPC     N21865   5.095   6.274   3.186 -0.5822 -0.2380  0.1672
  179DOPC   C1221866   5.083   6.206   3.323  0.0567  0.9926 -1.0124
  179DOPC  H12A21867   5.004   6.134   3.308  1.5946 -0.9521 -0.2100
  179DOPC  H12B21868   5.052   6.272   3.402 -1.9716  0.8989 -1.6697
  179DOPC   C1321869   5.149   6.175   3.084 -0.2217  0.0872  0.3611
  179DOPC  H13A21870   5.175   6.217   2.988  0.6739  0.4645  0.7644
  179DOPC  H13B21871   5.246   6.136   3.110  0.5108  0.8647 -1.0693
  179DOPC  H13C21872   5.089   6.086   3.075  0.6830 -0.3957 -1.1684
  179DOPC   C1421873   5.196   6.384   3.202 -0.0894  0.1571 -0.2879
  179DOPC  H14A21874   5.292   6.345   3.232 -1.1410 -0.5304  2.5394
  179DOPC  H14B21875   5.199   6.449   3.116 -0.4822  0.9378  0.2704
  179DOPC  H14C21876   5.162   6.446   3.284  0.3881 -0.8106  0.6640
  179DOPC   C1521877   4.961   6.324   3.145 -0.2343  0.1531 -0.3609
  179DOPC  H15A21878   4.968   6.384   3.055 -0.7168  0.4708 -0.1874
  179DOPC  H15B21879   4.906   6.372   3.224 -1.7251 -1.3442 -0.4643
  179DOPC  H15C21880   4.910   6.233   3.120  0.2189 -0.0893 -0.4115
  179DOPC   C1121881   5.210   6.130   3.384  0.1856  0.4501 -0.1200
  179DOPC  H11A21882   5.170   6.076   3.472 -1.1271  3.0599  0.9774
  179DOPC  H11B21883   5.251   6.056   3.311 -1.8965 -0.6730 -0.2275
  179DOPC     P21884   5.349   6.255   3.576 -0.1740  0.5459 -0.0306
  179DOPC   O1321885   5.428   6.379   3.564 -0.6240  0.2384 -0.6545
  179DOPC   O1421886   5.412   6.140   3.646 -0.0200  0.2899  0.1525
  179DOPC   O1221887   5.310   6.217   3.431  0.5232  0.4088  0.1993
  179DOPC   O1121888   5.211   6.278   3.649 -0.5907  0.3667  0.3263
  179DOPC    C121889   5.168   6.406   3.696 -0.2227 -0.5612 -0.7534
  179DOPC    HA21890   5.061   6.417   3.721  0.6492  1.6868  2.7726
  179DOPC    HB21891   5.197   6.484   3.622 -0.5358  0.6994  0.4168
  179DOPC    C221892   5.246   6.456   3.828  0.1395  0.4333  0.6237
  179DOPC    HS21893   5.354   6.454   3.801 -0.7429  0.2510 -3.5538
  179DOPC   O2121894   5.215   6.360   3.931  0.5030  0.2740  0.2084
  179DOPC   C2121895   5.308   6.294   3.992 -0.3004  0.3479 -0.7209
  179DOPC   O2221896   5.420   6.265   3.953  0.1797 -0.2647 -0.5119
  179DOPC   C2221897   5.234   6.237   4.111 -0.1783  0.0964  0.3908
  179DOPC   H2R21898   5.166   6.160   4.069  0.6620 -1.4343  1.7626
  179DOPC   H2S21899   5.163   6.305   4.163 -2.2568  0.3898 -2.5562
  179DOPC    C321900   5.203   6.600   3.861  0.2994  0.3428 -0.3995
  179DOPC    HX21901   5.092   6.605   3.872  0.1399 -0.9002 -1.2931
  179DOPC    HY21902   5.238   6.662   3.776  0.5029 -0.1200 -0.6518
  179DOPC   O3121903   5.268   6.640   3.978  0.1972 -0.1782  0.4422
  179DOPC   C3121904   5.231   6.762   4.024 -0.3061 -0.2173  0.5089
  179DOPC   O3221905   5.137   6.823   3.973 -0.2827 -0.6129 -0.0444
  179DOPC   C3221906   5.311   6.791   4.147  0.0064 -0.0127 -0.4746
  179DOPC   H2X21907   5.342   6.692   4.188  1.7733  0.8735  0.4673
  179DOPC   H2Y21908   5.400   6.850   4.115 -0.4404  1.5940  1.1156
  179DOPC   C2321909   5.327   6.163   4.203 -0.1887 -0.0367 -0.4683
  179DOPC   H3R21910   5.411   6.105   4.159  0.6652  1.3915 -0.7609
  179DOPC   H3S21911   5.274   6.080   4.255 -1.0375  2.3790  2.8171
  179DOPC   C2421912   5.381   6.246   4.321 -0.8423  0.4010  0.8692
  179DOPC   H4R21913   5.452   6.325   4.290  1.3182 -1.7423  0.1047
  179DOPC   H4S21914   5.437   6.173   4.383  0.7086  0.0008 -0.9216
  179DOPC   C2521915   5.276   6.319   4.411  0.6874  0.4979  0.2553
  179DOPC   H5R21916   5.192   6.251   4.438  0.7609  0.3292  0.0601
  179DOPC   H5S21917   5.225   6.406   4.365  0.5344  0.0347 -0.4662
  179DOPC   C2621918   5.349   6.364   4.536  1.1644 -0.4253  0.4873
  179DOPC   H6R21919   5.424   6.435   4.496  0.2374  0.9253  1.0743
  179DOPC   H6S21920   5.401   6.278   4.583 -0.7019 -2.8310 -1.5595
  179DOPC   C2721921   5.259   6.448   4.634  0.4436 -0.9327  0.3256
  179DOPC   H7R21922   5.184   6.382   4.681  1.4717  1.3254  5.9906
  179DOPC   H7S21923   5.206   6.534   4.587  1.4079  1.1182  2.7569
  179DOPC   C2821924   5.329   6.508   4.753 -0.1678 -1.0631  0.6009
  179DOPC   H8R21925   5.405   6.573   4.704  2.2562 -3.5098  0.8356
  179DOPC   H8S21926   5.380   6.427   4.810 -1.2423 -2.3538 -0.2041
  179DOPC   C2921927   5.243   6.584   4.849 -0.1324 -0.0287 -0.1424
  179DOPC   H9R21928   5.135   6.561   4.855 -0.4844  1.7612  1.2224
  179DOPC  C21021929   5.281   6.668   4.943  0.2938  0.0987 -0.1238
  179DOPC  H10R21930   5.207   6.721   5.004 -0.1102 -2.6666  2.0200
  179DOPC  C21121931   5.422   6.713   4.964 -0.3310  0.0206  0.0224
  179DOPC  H11R21932   5.496   6.656   4.904  0.5407 -0.7062  1.6901
  179DOPC  H11S21933   5.439   6.684   5.071  1.3253 -0.8748 -0.4459
  179DOPC  C21221934   5.427   6.868   4.942 -0.2008  0.0501  0.4193
  179DOPC  H12R21935   5.505   6.900   5.015 -0.6672  2.0093  0.1165
  179DOPC  H12S21936   5.333   6.917   4.978 -0.0908  0.1288  0.6000
  179DOPC  C21321937   5.450   6.905   4.799 -0.3506  0.0296 -0.4674
  179DOPC  H13R21938   5.422   7.011   4.777 -1.0508 -0.4142 -1.8790
  179DOPC  H13S21939   5.393   6.835   4.734 -0.6421 -0.1807  0.0115
  179DOPC  C21421940   5.601   6.910   4.761 -1.0122  0.2793  0.0517
  179DOPC  H14R21941   5.642   6.825   4.820 -0.6494  0.4196  0.0085
  179DOPC  H14S21942   5.648   6.995   4.816 -1.6072 -1.4906  3.6187
  179DOPC  C21521943   5.644   6.909   4.613 -0.1475 -0.2774 -0.0548
  179DOPC  H15R21944   5.739   6.965   4.603 -1.5253  2.1177 -0.7033
  179DOPC  H15S21945   5.584   6.977   4.548 -0.1672 -1.1027 -0.9231
  179DOPC  C21621946   5.642   6.773   4.549  0.0524  0.3625 -0.3287
  179DOPC  H16R21947   5.570   6.707   4.601 -0.6606  1.1846 -0.2467
  179DOPC  H16S21948   5.737   6.722   4.574 -0.6642 -0.7761  0.1725
  179DOPC  C21721949   5.612   6.779   4.399 -0.6598  0.3245  0.0932
  179DOPC  H17R21950   5.648   6.871   4.347  4.8465 -1.5829 -0.0783
  179DOPC  H17S21951   5.501   6.779   4.389 -0.5832  1.4679 -1.0904
  179DOPC  C21821952   5.659   6.654   4.322  0.3528 -0.1046  0.1278
  179DOPC  H18R21953   5.611   6.568   4.373  0.0365 -0.4384 -0.7173
  179DOPC  H18S21954   5.765   6.627   4.341 -0.3959 -3.0518  0.6267
  179DOPC  H18T21955   5.633   6.657   4.214  2.5338 -2.0644 -0.5347
  179DOPC   C3321956   5.217   6.857   4.252  0.1785  0.6624 -0.6611
  179DOPC   H3X21957   5.146   6.930   4.208 -1.2348  1.3238  2.4711
  179DOPC   H3Y21958   5.287   6.909   4.321 -0.1958  1.0835 -0.5959
  179DOPC   C3421959   5.120   6.759   4.320  0.4806 -0.0181  0.4628
  179DOPC   H4X21960   5.148   6.652   4.329  0.6668  0.0384  0.5614
  179DOPC   H4Y21961   5.029   6.743   4.260 -0.3117  3.1227  0.6209
  179DOPC   C3521962   5.082   6.805   4.468  0.7825  0.4050  0.0431
  179DOPC   H5X21963   5.035   6.906   4.469 -0.2481 -0.0435  1.8254
  179DOPC   H5Y21964   5.174   6.804   4.531  0.5857 -0.0140  0.3250
  179DOPC   C3621965   4.980   6.702   4.527  0.1908  0.1158  0.3012
  179DOPC   H6X21966   4.879   6.711   4.482 -0.2658 -0.6665  1.1244
  179DOPC   H6Y21967   5.011   6.600   4.497  2.6028  0.8042  0.2945
  179DOPC   C3721968   4.959   6.714   4.677 -0.1230  0.0708 -0.3140
  179DOPC   H7X21969   4.952   6.611   4.718  0.6351  0.0411 -0.2476
  179DOPC   H7Y21970   5.046   6.761   4.728  0.5466 -0.7573 -0.6867
  179DOPC   C3821971   4.830   6.799   4.720 -0.4093 -0.3499  0.2232
  179DOPC   H8X21972   4.800   6.787   4.826 -1.2684 -0.8631 -0.0666
  179DOPC   H8Y21973   4.750   6.756   4.656  0.6144  0.0482 -1.3755
  179DOPC   C3921974   4.853   6.946   4.693  0.4011 -0.5771  0.4170
  179DOPC   H9X21975   4.812   6.988   4.600  1.3843  0.2259  0.3388
  179DOPC  C31021976   4.913   7.033   4.780  0.2545  0.1756  0.1214
  179DOPC  H10X21977   4.930   7.134   4.740 -0.0324  0.0944 -0.2137
  179DOPC  C31121978   4.963   6.998   4.923  0.1948 -0.0861 -0.2348
  179DOPC  H11X21979   5.070   7.026   4.936 -0.4174  1.6134  1.5605
  179DOPC  H11Y21980   4.937   6.893   4.948 -0.2793  0.4657  1.8360
  179DOPC  C31221981   4.885   7.084   5.033 -1.3662 -0.1735 -0.3224
  179DOPC  H12X21982   4.780   7.048   5.041 -1.1903 -2.1264 -4.2145
  179DOPC  H12Y21983   4.886   7.183   4.983  0.6846 -0.1353 -0.2733
  179DOPC  C31321984   4.953   7.091   5.170 -0.5719 -0.1216  0.1831
  179DOPC  H13X21985   5.055   7.133   5.163 -0.8407  0.6886  0.9330
  179DOPC  H13Y21986   4.900   7.153   5.245 -0.6103 -1.7369  1.5577
  179DOPC  C31421987   4.967   6.956   5.245  0.2883  0.3421  0.0993
  179DOPC  H14X21988   4.869   6.904   5.241 -0.3767  1.2874  2.4572
  179DOPC  H14Y21989   5.037   6.899   5.179  0.4294  2.5956 -1.7997
  179DOPC  C31521990   5.009   6.956   5.399  0.9188 -0.2329 -0.6655
  179DOPC  H15X21991   5.018   6.854   5.445 -0.6300  0.8227  2.2452
  179DOPC  H15Y21992   4.939   7.008   5.467  0.3135 -2.6539  0.7124
  179DOPC  C31621993   5.149   7.021   5.412 -0.2903  0.0769 -0.3675
  179DOPC  H16X21994   5.142   7.132   5.408 -1.0678  0.0814  0.8640
  179DOPC  H16Y21995   5.175   6.995   5.517  1.4344 -0.2559 -0.8395
  179DOPC  C31721996   5.265   6.978   5.320 -0.3633  0.0672  0.6206
  179DOPC  H17X21997   5.246   7.007   5.215  0.0751 -3.8424 -0.6843
  179DOPC  H17Y21998   5.355   7.033   5.356 -0.7809  1.5704 -0.5644
  179DOPC  C31821999   5.307   6.831   5.320 -0.1992  0.4084 -0.0473
  179DOPC  H18X22000   5.405   6.820   5.269 -0.3276  2.7717 -0.9209
  179DOPC  H18Y22001   5.317   6.797   5.426  0.2118  1.0152  0.1128
  179DOPC  H18Z22002   5.234   6.762   5.273 -0.7469  1.1988 -0.3653
  180DOPC     N22003   5.961   4.521   3.615 -0.0197  0.3129 -0.3323
  180DOPC   C1222004   5.958   4.399   3.707 -0.8229  0.0852 -0.0850
  180DOPC  H12A22005   6.002   4.435   3.799 -0.4911 -4.9068  2.0431
  180DOPC  H12B22006   6.038   4.331   3.681 -0.6341  0.1265  0.3689
  180DOPC   C1322007   6.101   4.572   3.583 -1.0244  0.1170 -0.9195
  180DOPC  H13A22008   6.155   4.495   3.530 -0.5883  2.0384 -3.4587
  180DOPC  H13B22009   6.094   4.649   3.507 -2.3271  1.8121  0.8081
  180DOPC  H13C22010   6.155   4.607   3.669 -1.4629  1.4697 -1.1619
  180DOPC   C1422011   5.890   4.635   3.679 -0.9516  0.7955  0.0073
  180DOPC  H14A22012   5.790   4.607   3.710  0.6210 -2.5164  2.8437
  180DOPC  H14B22013   5.953   4.667   3.761  2.5893 -1.1520 -1.6968
  180DOPC  H14C22014   5.877   4.714   3.606  2.8286  2.2264  0.6672
  180DOPC   C1522015   5.897   4.489   3.485  0.3477  0.0119 -0.2593
  180DOPC  H15A22016   5.934   4.398   3.442 -1.4190  0.4093 -2.8212
  180DOPC  H15B22017   5.915   4.567   3.413 -0.5188  1.4317  0.9930
  180DOPC  H15C22018   5.792   4.473   3.506  0.0984  0.6602 -0.9662
  180DOPC   C1122019   5.826   4.319   3.734  0.3695 -0.3673  0.1130
  180DOPC  H11A22020   5.844   4.256   3.823  1.6255 -0.1806  0.0090
  180DOPC  H11B22021   5.751   4.393   3.769 -0.1462 -1.1932  0.7844
  180DOPC     P22022   5.861   4.124   3.572 -0.1848 -0.0310  0.3781
  180DOPC   O1322023   6.008   4.131   3.600 -0.4489 -0.2138 -0.3538
  180DOPC   O1422024   5.829   4.111   3.434  0.0498 -0.0926  0.4308
  180DOPC   O1222025   5.782   4.249   3.617  0.0676 -0.3310 -0.2599
  180DOPC   O1122026   5.803   4.009   3.653 -0.3335  0.0913 -0.8112
  180DOPC    C122027   5.667   3.986   3.672 -0.3204  0.1078 -0.0592
  180DOPC    HA22028   5.626   3.937   3.582  1.2930 -0.4475 -0.5240
  180DOPC    HB22029   5.610   4.082   3.677 -0.2365  0.5035 -3.8549
  180DOPC    C222030   5.626   3.894   3.794  0.6872 -1.6347 -0.0160
  180DOPC    HS22031   5.515   3.890   3.797  0.5499  0.7552  1.6499
  180DOPC   O2122032   5.669   3.960   3.910  0.2847 -0.1663  0.5670
  180DOPC   C2122033   5.604   4.072   3.945 -0.2071  0.2500  0.0155
  180DOPC   O2222034   5.506   4.121   3.893 -0.1356 -0.6844 -0.1594
  180DOPC   C2222035   5.675   4.133   4.069 -0.0604  0.1289  0.1993
  180DOPC   H2R22036   5.785   4.134   4.053 -0.0421 -1.0018  0.1920
  180DOPC   H2S22037   5.653   4.069   4.157 -0.3751  0.1915  0.1685
  180DOPC    C322038   5.690   3.757   3.793 -0.2091  0.3455  0.3992
  180DOPC    HX22039   5.799   3.770   3.809 -0.7327  3.0626  2.5761
  180DOPC    HY22040   5.664   3.706   3.698 -2.2852 -0.5556  1.3798
  180DOPC   O3122041   5.650   3.673   3.902  0.2700 -0.0333 -0.4469
  180DOPC   C3122042   5.529   3.625   3.899  0.1487  0.0310  0.1952
  180DOPC   O3222043   5.446   3.642   3.811  0.9767 -0.2862  0.1829
  180DOPC   C3222044   5.488   3.551   4.031  0.2341 -0.3281 -0.4121
  180DOPC   H2X22045   5.440   3.454   4.009  0.7378 -1.3063  2.3946
  180DOPC   H2Y22046   5.585   3.533   4.082  0.8519  1.1150 -1.0358
  180DOPC   C2322047   5.639   4.284   4.094 -0.3737  0.9074  0.1281
  180DOPC   H3R22048   5.534   4.281   4.129  0.2295  1.3814  2.1125
  180DOPC   H3S22049   5.643   4.349   4.004  2.5995 -0.9021 -1.1875
  180DOPC   C2422050   5.735   4.364   4.192 -0.0681  0.1727 -0.9280
  180DOPC   H4R22051   5.699   4.468   4.207 -2.2986 -0.8810  1.7415
  180DOPC   H4S22052   5.837   4.365   4.148 -0.3352 -2.7873 -1.8120
  180DOPC   C2522053   5.733   4.304   4.329  0.7299 -0.2912 -0.4750
  180DOPC   H5R22054   5.808   4.351   4.396 -1.8370  0.4723  2.0160
  180DOPC   H5S22055   5.747   4.194   4.327  0.6868 -0.3000 -0.3043
  180DOPC   C2622056   5.609   4.331   4.414 -0.3607  0.0187  0.8200
  180DOPC   H6R22057   5.517   4.317   4.354 -0.3722 -0.4563  0.9468
  180DOPC   H6S22058   5.619   4.439   4.439 -0.4055  0.3788 -0.6176
  180DOPC   C2722059   5.615   4.253   4.542  0.5782 -0.2733 -0.2630
  180DOPC   H7R22060   5.712   4.242   4.595  0.1639 -0.9413  0.3843
  180DOPC   H7S22061   5.577   4.153   4.510 -0.5060 -1.3394  3.7004
  180DOPC   C2822062   5.517   4.328   4.637  0.5153 -0.6125  0.3158
  180DOPC   H8R22063   5.427   4.351   4.576  1.6890  0.1020 -1.2310
  180DOPC   H8S22064   5.562   4.424   4.670  1.7377 -0.3949 -1.8499
  180DOPC   C2922065   5.464   4.243   4.743  0.0317  0.1616 -0.1466
  180DOPC   H9R22066   5.413   4.149   4.716  0.8131 -0.9573  1.9770
  180DOPC  C21022067   5.502   4.255   4.867 -0.3069  0.9016  0.2358
  180DOPC  H10R22068   5.471   4.178   4.940 -1.5092 -0.0453 -1.2179
  180DOPC  C21122069   5.597   4.360   4.927 -0.1370 -0.2126  0.1659
  180DOPC  H11R22070   5.547   4.457   4.942 -0.4473 -0.1775 -1.0144
  180DOPC  H11S22071   5.678   4.379   4.852 -0.6326 -0.4577 -0.4422
  180DOPC  C21222072   5.648   4.297   5.058  0.2194 -0.1269 -0.2504
  180DOPC  H12R22073   5.739   4.359   5.074 -1.0692  1.3282  2.0089
  180DOPC  H12S22074   5.689   4.196   5.035 -0.0207 -0.1176 -0.7532
  180DOPC  C21322075   5.570   4.302   5.187  0.4525  0.3797 -0.0939
  180DOPC  H13R22076   5.467   4.262   5.171  0.2529  0.7811  0.1705
  180DOPC  H13S22077   5.554   4.409   5.212  1.6915  0.2807  1.2711
  180DOPC  C21422078   5.625   4.228   5.310  1.0530  0.2042 -0.2035
  180DOPC  H14R22079   5.713   4.281   5.353  1.2839 -0.4721  0.1616
  180DOPC  H14S22080   5.642   4.121   5.286  0.0083 -0.0158  0.0074
  180DOPC  C21522081   5.528   4.215   5.431  0.1000 -0.0742 -0.1807
  180DOPC  H15R22082   5.442   4.146   5.414 -0.3613  0.6788 -1.0526
  180DOPC  H15S22083   5.472   4.309   5.450 -0.4236 -0.5193  0.5487
  180DOPC  C21622084   5.601   4.176   5.558  0.0108  0.1853  0.1340
  180DOPC  H16R22085   5.650   4.263   5.606  0.8711 -1.3236  2.1306
  180DOPC  H16S22086   5.675   4.096   5.535  0.0899  0.9676 -2.6924
  180DOPC  C21722087   5.509   4.117   5.669 -0.2516 -0.3247  0.7733
  180DOPC  H17R22088   5.474   4.014   5.646  0.8101 -0.3737 -0.7263
  180DOPC  H17S22089   5.413   4.172   5.672 -1.0383 -1.6587  1.2089
  180DOPC  C21822090   5.595   4.117   5.793  0.0293 -0.2782  0.1175
  180DOPC  H18R22091   5.524   4.103   5.877 -0.8644  1.0326 -0.3772
  180DOPC  H18S22092   5.671   4.197   5.807  2.4099 -2.2222 -0.9393
  180DOPC  H18T22093   5.658   4.025   5.788  3.0858  1.6714 -0.0662
  180DOPC   C3322094   5.408   3.635   4.137 -0.0242  0.4574 -0.5653
  180DOPC   H3X22095   5.303   3.652   4.104 -0.4554  0.7964  0.9279
  180DOPC   H3Y22096   5.447   3.739   4.141 -0.2678  0.5579 -0.7252
  180DOPC   C3422097   5.388   3.571   4.274 -0.0531 -0.5648  0.2415
  180DOPC   H4X22098   5.334   3.475   4.257  2.1977 -1.6709 -1.2405
  180DOPC   H4Y22099   5.315   3.642   4.319 -1.3047 -0.5464 -1.6792
  180DOPC   C3522100   5.508   3.566   4.366 -0.3462  0.5472  0.0995
  180DOPC   H5X22101   5.548   3.670   4.371 -0.4545  0.5147  2.5987
  180DOPC   H5Y22102   5.588   3.502   4.324 -0.5902 -0.7809  1.5753
  180DOPC   C3622103   5.466   3.527   4.502  0.3966  0.3707  0.1941
  180DOPC   H6X22104   5.384   3.588   4.546 -1.0484 -0.9137 -0.6228
  180DOPC   H6Y22105   5.419   3.427   4.497 -0.7247  0.8991 -0.0068
  180DOPC   C3722106   5.589   3.516   4.595 -0.5775  0.1416  0.0175
  180DOPC   H7X22107   5.669   3.468   4.535  0.3293  1.7772 -0.1355
  180DOPC   H7Y22108   5.627   3.616   4.625  0.5669  0.3576 -2.0085
  180DOPC   C3822109   5.564   3.432   4.726  0.1512 -0.3779  1.2003
  180DOPC   H8X22110   5.665   3.396   4.758  0.5980 -0.0759  0.1614
  180DOPC   H8Y22111   5.499   3.349   4.692  1.1647 -0.0974 -1.6274
  180DOPC   C3922112   5.485   3.506   4.833  0.9505 -0.2626 -0.4273
  180DOPC   H9X22113   5.392   3.550   4.793  0.9168  1.0458  0.9676
  180DOPC  C31022114   5.502   3.512   4.967  0.1922 -0.2194  0.1410
  180DOPC  H10X22115   5.429   3.572   5.024  2.1064  1.6078  0.8079
  180DOPC  C31122116   5.610   3.444   5.053  0.3516  0.4925 -0.2459
  180DOPC  H11X22117   5.682   3.527   5.065  1.9747 -1.1316  1.9153
  180DOPC  H11Y22118   5.658   3.364   4.992 -1.8173 -0.2375 -1.1188
  180DOPC  C31222119   5.554   3.379   5.182  0.4944  0.2246  0.5076
  180DOPC  H12X22120   5.521   3.275   5.162 -2.1268  0.8903  1.0971
  180DOPC  H12Y22121   5.465   3.434   5.219 -2.4548 -2.8795 -1.3987
  180DOPC  C31322122   5.657   3.382   5.294  0.4741  0.2657  0.6270
  180DOPC  H13X22123   5.758   3.366   5.252 -0.5068  0.3688 -1.9537
  180DOPC  H13Y22124   5.646   3.487   5.328  0.3529 -0.0210  1.4912
  180DOPC  C31422125   5.634   3.282   5.411  0.0277  0.0371  0.2303
  180DOPC  H14X22126   5.531   3.293   5.451  0.5199 -1.4517  2.0493
  180DOPC  H14Y22127   5.635   3.185   5.356  0.4199  0.2700 -0.1780
  180DOPC  C31522128   5.737   3.295   5.525 -0.3994  0.4915  0.1783
  180DOPC  H15X22129   5.741   3.398   5.565  0.3761 -0.6723  3.4456
  180DOPC  H15Y22130   5.841   3.276   5.492 -0.1261  2.3207 -0.1146
  180DOPC  C31622131   5.708   3.186   5.628  0.0535 -0.2161 -0.6446
  180DOPC  H16X22132   5.598   3.183   5.643  0.0738  0.5411 -0.2795
  180DOPC  H16Y22133   5.728   3.083   5.593 -1.0308 -1.6920  2.6418
  180DOPC  C31722134   5.771   3.213   5.769 -0.1897  0.2034 -0.1177
  180DOPC  H17X22135   5.880   3.195   5.767  0.1485  2.0725 -0.6453
  180DOPC  H17Y22136   5.764   3.323   5.787 -1.5158  0.0084  0.7275
  180DOPC  C31822137   5.697   3.139   5.878 -0.5070 -0.0289  0.0538
  180DOPC  H18X22138   5.705   3.030   5.862 -1.6335 -0.0165 -0.6866
  180DOPC  H18Y22139   5.740   3.160   5.978  2.2990  0.0618 -1.0859
  180DOPC  H18Z22140   5.588   3.162   5.875 -0.5287 -0.1980 -1.6399
  181DOPC     N22141   1.899   4.698   3.517  0.3404  0.3155  0.1269
  181DOPC   C1222142   1.842   4.781   3.632  0.7268 -0.6247  0.3752
  181DOPC  H12A22143   1.736   4.794   3.616  0.7467 -0.0721  0.6822
  181DOPC  H12B22144   1.872   4.884   3.629  0.1551 -0.4600 -2.7894
  181DOPC   C1322145   1.819   4.573   3.507  0.2410  0.1933  0.0208
  181DOPC  H13A22146   1.825   4.532   3.407  2.2616  2.2928 -0.8311
  181DOPC  H13B22147   1.852   4.491   3.569 -0.9309  0.1350  0.5819
  181DOPC  H13C22148   1.714   4.585   3.529 -0.1974 -1.1060 -1.1577
  181DOPC   C1422149   2.039   4.665   3.546 -0.3288  0.1524  0.3139
  181DOPC  H14A22150   2.085   4.613   3.463 -0.5639 -0.9657  0.8691
  181DOPC  H14B22151   2.095   4.755   3.562 -0.8574  0.8391 -1.4857
  181DOPC  H14C22152   2.047   4.610   3.639 -0.8713 -0.4743  0.0013
  181DOPC   C1522153   1.893   4.775   3.389  0.3788  0.6443 -0.8149
  181DOPC  H15A22154   1.791   4.787   3.354 -0.9928  1.5755  3.0633
  181DOPC  H15B22155   1.946   4.722   3.311 -0.1049  0.4652 -1.0243
  181DOPC  H15C22156   1.931   4.876   3.397 -0.0591  0.7146  0.5632
  181DOPC   C1122157   1.866   4.721   3.771 -0.1558  0.2188 -0.6328
  181DOPC  H11A22158   1.789   4.754   3.844 -0.6596 -0.6193 -0.7776
  181DOPC  H11B22159   1.844   4.612   3.766 -0.5151  0.0615  2.4353
  181DOPC     P22160   2.091   4.643   3.909  0.3753  0.2221  0.3313
  181DOPC   O1322161   2.201   4.709   3.983  0.1026  0.6843  0.0776
  181DOPC   O1422162   2.135   4.548   3.811 -0.2806  0.4789  0.9544
  181DOPC   O1222163   1.998   4.741   3.829  0.3362  0.0109  0.3125
  181DOPC   O1122164   1.993   4.571   4.012 -0.4229  0.0645 -1.0246
  181DOPC    C122165   1.895   4.633   4.088  0.2439  0.2390 -0.0330
  181DOPC    HA22166   1.805   4.643   4.023  0.4845  0.0799 -0.3909
  181DOPC    HB22167   1.927   4.725   4.143 -0.1767  0.4073 -0.0649
  181DOPC    C222168   1.845   4.534   4.198  0.7249  0.0624  0.2143
  181DOPC    HS22169   1.800   4.452   4.138  1.0482  0.8916 -1.2164
  181DOPC   O2122170   1.753   4.600   4.286  0.6711  0.1798  0.5673
  181DOPC   C2122171   1.638   4.530   4.315 -0.0479  0.0656  0.1612
  181DOPC   O2222172   1.619   4.410   4.297  0.6036 -0.1650 -0.3184
  181DOPC   C2222173   1.538   4.618   4.383  0.0194 -0.4127 -0.6422
  181DOPC   H2R22174   1.447   4.616   4.319  0.4647  1.0764 -1.3844
  181DOPC   H2S22175   1.571   4.724   4.389 -0.1425 -0.2115 -2.4956
  181DOPC    C322176   1.956   4.472   4.279 -0.3286 -0.3898  0.0421
  181DOPC    HX22177   2.040   4.542   4.302  1.2616 -2.0162 -0.5903
  181DOPC    HY22178   2.012   4.400   4.216 -2.3486  0.2161 -2.6023
  181DOPC   O3122179   1.913   4.414   4.405  0.4802  0.0063  0.3171
  181DOPC   C3122180   1.881   4.285   4.397  0.1766  0.5510 -0.4720
  181DOPC   O3222181   1.885   4.216   4.300 -0.1788  0.3988  0.1160
  181DOPC   C3222182   1.838   4.232   4.538  0.3826  0.8500 -0.2042
  181DOPC   H2X22183   1.909   4.149   4.558  1.2400  1.1106 -1.9956
  181DOPC   H2Y22184   1.851   4.316   4.609 -2.0878  0.8731  0.3175
  181DOPC   C2322185   1.513   4.570   4.533  0.3887  0.4979 -0.6668
  181DOPC   H3R22186   1.478   4.464   4.525  1.0871  0.3224 -1.6441
  181DOPC   H3S22187   1.422   4.622   4.569 -0.3789 -0.2153 -1.5095
  181DOPC   C2422188   1.625   4.573   4.636  0.2459  0.1415  0.6285
  181DOPC   H4R22189   1.659   4.678   4.634 -2.0321  0.9498  1.1172
  181DOPC   H4S22190   1.707   4.502   4.612 -1.0180 -1.9257  2.0365
  181DOPC   C2522191   1.570   4.544   4.779  0.1414 -0.1785  0.0142
  181DOPC   H5R22192   1.512   4.450   4.765  0.7828 -0.4904 -0.5952
  181DOPC   H5S22193   1.495   4.620   4.809  0.4277 -0.0987  0.5399
  181DOPC   C2622194   1.678   4.523   4.881  0.1065  0.8536 -0.2284
  181DOPC   H6R22195   1.745   4.443   4.844 -1.2786 -1.1017  1.2443
  181DOPC   H6S22196   1.631   4.473   4.968  1.2575 -0.8833 -0.5683
  181DOPC   C2722197   1.744   4.650   4.927 -0.3430 -0.1474 -0.1829
  181DOPC   H7R22198   1.657   4.706   4.968  0.7133  1.2735  0.1802
  181DOPC   H7S22199   1.800   4.705   4.849  0.2332  0.3832  0.5875
  181DOPC   C2822200   1.835   4.614   5.045 -0.0909 -0.6000 -0.3365
  181DOPC   H8R22201   1.915   4.541   5.019  0.9199  0.1124  0.6950
  181DOPC   H8S22202   1.771   4.569   5.124 -0.0691  1.0128  0.6454
  181DOPC   C2922203   1.890   4.740   5.108 -0.3368  0.2479 -0.0442
  181DOPC   H9R22204   1.928   4.817   5.039  0.9917 -1.4272 -1.2806
  181DOPC  C21022205   1.887   4.766   5.241  0.4468 -0.0490  0.2820
  181DOPC  H10R22206   1.930   4.864   5.265  2.4203 -0.6442 -0.6577
  181DOPC  C21122207   1.856   4.679   5.360  0.1648 -0.0651  0.0805
  181DOPC  H11R22208   1.766   4.617   5.340  0.6789 -0.4811 -1.0104
  181DOPC  H11S22209   1.825   4.742   5.446 -3.6643 -0.5009 -0.8134
  181DOPC  C21222210   1.983   4.604   5.406  0.1224  0.1734 -0.2491
  181DOPC  H12R22211   2.063   4.682   5.410 -1.0898  1.4253  0.6533
  181DOPC  H12S22212   2.016   4.523   5.339 -2.4657  0.4528 -2.0194
  181DOPC  C21322213   1.948   4.538   5.546  0.3264 -0.7019 -0.1270
  181DOPC  H13R22214   2.017   4.453   5.563  0.1217 -1.1187 -1.2750
  181DOPC  H13S22215   1.857   4.476   5.531  0.1925 -0.4742 -0.2635
  181DOPC  C21422216   1.942   4.644   5.661 -0.5572 -0.0190  0.1135
  181DOPC  H14R22217   1.882   4.733   5.634 -1.0267  0.1906  1.7201
  181DOPC  H14S22218   2.046   4.681   5.674 -0.4895 -0.6646  1.6128
  181DOPC  C21522219   1.893   4.576   5.791  0.6056  0.2459  0.0101
  181DOPC  H15R22220   1.974   4.513   5.833  0.3432  1.3387  2.3166
  181DOPC  H15S22221   1.810   4.508   5.764  1.1487  0.4368 -2.3951
  181DOPC  C21622222   1.851   4.671   5.905  0.0932 -0.4382 -0.2129
  181DOPC  H16R22223   1.759   4.729   5.879  0.6552  1.0924  1.0954
  181DOPC  H16S22224   1.935   4.738   5.928  1.4289 -2.1098 -0.0146
  181DOPC  C21722225   1.826   4.599   6.040  0.5244 -0.3069  0.6359
  181DOPC  H17R22226   1.920   4.543   6.063  1.1167  0.3711 -0.0820
  181DOPC  H17S22227   1.742   4.530   6.019 -0.3883  1.7883 -3.5970
  181DOPC  C21822228   1.789   4.692   6.160 -0.1853 -0.7323 -0.3834
  181DOPC  H18R22229   1.706   4.764   6.141 -1.4207 -1.4569  1.9001
  181DOPC  H18S22230   1.872   4.751   6.204 -1.6073  0.8920  0.2644
  181DOPC  H18T22231   1.758   4.630   6.247 -1.0206  1.4991  1.0068
  181DOPC   C3322232   1.699   4.173   4.536  0.4910  1.2707  0.2822
  181DOPC   H3X22233   1.697   4.082   4.472  1.9319  2.6423 -1.8277
  181DOPC   H3Y22234   1.631   4.242   4.483  0.0311  1.2389  0.8123
  181DOPC   C3422235   1.645   4.150   4.673  0.2954  0.3344 -0.1986
  181DOPC   H4X22236   1.564   4.075   4.660  1.2506 -0.6705 -0.4439
  181DOPC   H4Y22237   1.601   4.241   4.719 -0.5186 -0.6541  1.0419
  181DOPC   C3522238   1.749   4.078   4.765  0.4070 -0.2350  0.1098
  181DOPC   H5X22239   1.826   4.141   4.814  1.7992  0.0484 -2.2762
  181DOPC   H5Y22240   1.802   4.004   4.701  0.8691  0.9284 -0.8686
  181DOPC   C3622241   1.673   3.993   4.871  0.5943 -0.0103 -0.4618
  181DOPC   H6X22242   1.615   3.912   4.821  0.1294  0.6635 -1.0281
  181DOPC   H6Y22243   1.756   3.953   4.933 -0.6441  0.2319  1.4064
  181DOPC   C3722244   1.585   4.067   4.971  0.4020 -0.1994  0.2323
  181DOPC   H7X22245   1.481   4.089   4.938 -0.5325 -2.8977  1.0612
  181DOPC   H7Y22246   1.580   3.991   5.052 -3.0563 -0.2238  0.1395
  181DOPC   C3822247   1.637   4.198   5.023  0.3990 -0.3201  0.1571
  181DOPC   H8X22248   1.647   4.263   4.933 -3.4691 -0.4819 -0.5711
  181DOPC   H8Y22249   1.738   4.184   5.066  1.4687  2.7162 -1.0926
  181DOPC   C3922250   1.547   4.245   5.137 -0.0235 -0.3783  0.3896
  181DOPC   H9X22251   1.442   4.242   5.105 -0.1646  1.3669  0.6009
  181DOPC  C31022252   1.577   4.298   5.258 -0.0217 -0.4368  0.0394
  181DOPC  H10X22253   1.490   4.340   5.310  0.1310 -0.4686  0.3217
  181DOPC  C31122254   1.715   4.307   5.315 -0.7644  0.1930 -0.5166
  181DOPC  H11X22255   1.735   4.390   5.387  0.3250 -1.4034  1.0958
  181DOPC  H11Y22256   1.795   4.313   5.238 -0.3164 -1.8090 -0.2510
  181DOPC  C31222257   1.746   4.188   5.409 -0.1117  0.3345  0.0032
  181DOPC  H12X22258   1.851   4.181   5.441 -0.5759 -2.1949  1.1846
  181DOPC  H12Y22259   1.745   4.098   5.343  2.2702  0.8822 -0.8807
  181DOPC  C31322260   1.658   4.161   5.526 -0.3252  0.8311 -0.7599
  181DOPC  H13X22261   1.550   4.164   5.499 -0.6147  1.8656  0.4127
  181DOPC  H13Y22262   1.677   4.062   5.570  0.1503  0.7590 -1.1215
  181DOPC  C31422263   1.669   4.258   5.639  0.2442  0.0566 -0.1127
  181DOPC  H14X22264   1.774   4.283   5.664 -0.0064 -0.3182  1.4204
  181DOPC  H14Y22265   1.614   4.352   5.618 -0.2764 -0.4481 -1.0718
  181DOPC  C31522266   1.610   4.193   5.767  0.0306  0.0013 -0.1453
  181DOPC  H15X22267   1.645   4.088   5.781  1.1710  0.2258 -1.1427
  181DOPC  H15Y22268   1.499   4.193   5.758 -0.3514  2.6371  2.7549
  181DOPC  C31622269   1.641   4.269   5.894 -0.3715  0.7438 -0.2967
  181DOPC  H16X22270   1.748   4.287   5.916 -0.4003  0.6226 -0.0497
  181DOPC  H16Y22271   1.590   4.368   5.890 -1.1779  0.2919 -1.6051
  181DOPC  C31722272   1.588   4.198   6.025 -0.1442 -0.1667 -0.0610
  181DOPC  H17X22273   1.482   4.173   6.005 -0.2747  0.1305  0.2562
  181DOPC  H17Y22274   1.648   4.111   6.058 -0.0557 -0.4276 -0.8768
  181DOPC  C31822275   1.589   4.276   6.165  0.4445 -0.1016 -0.3971
  181DOPC  H18X22276   1.545   4.377   6.152 -2.3948 -0.9759  1.4042
  181DOPC  H18Y22277   1.530   4.225   6.244 -1.0987  0.3323 -1.2294
  181DOPC  H18Z22278   1.687   4.299   6.212 -0.4539  2.6338  0.3301
  182DOPC     N22279   2.202   1.547   3.541 -0.2857 -0.2019  0.1303
  182DOPC   C1222280   2.218   1.458   3.662 -0.2511  0.4849 -0.8965
  182DOPC  H12A22281   2.302   1.492   3.721 -1.4184  0.2702  1.0019
  182DOPC  H12B22282   2.242   1.359   3.629  0.7466  0.6129 -0.5711
  182DOPC   C1322283   2.150   1.681   3.575  0.3451  0.8269  0.1415
  182DOPC  H13A22284   2.160   1.749   3.492  1.2250 -0.8632 -1.2136
  182DOPC  H13B22285   2.048   1.672   3.609  0.4095 -1.4061 -0.0964
  182DOPC  H13C22286   2.200   1.725   3.660  0.1842  0.4294  0.4496
  182DOPC   C1422287   2.108   1.483   3.443 -0.0209  0.5014  0.4450
  182DOPC  H14A22288   2.019   1.469   3.501 -0.9186  1.3667 -0.6776
  182DOPC  H14B22289   2.090   1.541   3.353  2.8382  0.5555 -0.1893
  182DOPC  H14C22290   2.150   1.390   3.408  3.4567  2.2673 -0.6041
  182DOPC   C1522291   2.332   1.558   3.465  0.2662  0.7236  0.1486
  182DOPC  H15A22292   2.411   1.589   3.532  1.4845 -1.3286 -0.2285
  182DOPC  H15B22293   2.328   1.632   3.386  1.4247  0.0159 -0.6154
  182DOPC  H15C22294   2.360   1.463   3.422  1.0501  0.9433  0.1430
  182DOPC   C1122295   2.096   1.444   3.766  0.0329 -0.5126  0.4108
  182DOPC  H11A22296   2.133   1.403   3.863 -1.7507 -0.9574  0.9355
  182DOPC  H11B22297   2.053   1.545   3.782 -0.5060 -0.8311  1.0578
  182DOPC     P22298   1.985   1.210   3.758  0.2644 -0.5288 -0.1595
  182DOPC   O1322299   2.120   1.156   3.783 -0.9558 -0.2363  0.3351
  182DOPC   O1422300   1.893   1.138   3.670  0.4619  0.0378  0.4656
  182DOPC   O1222301   1.993   1.362   3.713  0.3638  0.2452 -0.0835
  182DOPC   O1122302   1.910   1.225   3.892 -0.5492 -0.2710  0.3914
  182DOPC    C122303   1.775   1.250   3.888 -0.4001  0.4903 -0.8195
  182DOPC    HA22304   1.711   1.168   3.849 -0.7177  0.0710  0.5295
  182DOPC    HB22305   1.750   1.330   3.815  1.8347 -0.0085 -2.2547
  182DOPC    C222306   1.715   1.289   4.030  0.0364  0.6185  0.4439
  182DOPC    HS22307   1.606   1.294   4.009  0.3146  1.7458 -0.9024
  182DOPC   O2122308   1.769   1.410   4.079  0.3850 -0.0904  0.2243
  182DOPC   C2122309   1.725   1.518   4.019 -0.2257  0.3936  0.2856
  182DOPC   O2222310   1.660   1.528   3.916  0.2965  0.1486  0.1554
  182DOPC   C2222311   1.784   1.639   4.098  0.2485 -0.2247  0.8074
  182DOPC   H2R22312   1.864   1.680   4.034  0.3856 -0.9512  0.5165
  182DOPC   H2S22313   1.827   1.597   4.191  1.8458 -0.3422  0.0423
  182DOPC    C322314   1.724   1.183   4.145 -0.3442 -0.4213  0.4392
  182DOPC    HX22315   1.824   1.192   4.191 -1.2113  0.8363  2.1882
  182DOPC    HY22316   1.715   1.081   4.102  0.8008 -0.3137 -0.0843
  182DOPC   O3122317   1.634   1.207   4.259  0.2052 -0.1812 -0.0932
  182DOPC   C3122318   1.522   1.144   4.258  0.1748  0.1461  0.1004
  182DOPC   O3222319   1.488   1.062   4.172  0.3342 -0.2647  0.2058
  182DOPC   C3222320   1.432   1.183   4.371 -0.2943 -1.3018  0.3744
  182DOPC   H2X22321   1.424   1.293   4.363 -1.4008 -1.3165  1.1201
  182DOPC   H2Y22322   1.329   1.149   4.347 -0.7243  0.0209  0.2886
  182DOPC   C2322323   1.672   1.750   4.134 -0.0016 -0.1165  0.3754
  182DOPC   H3R22324   1.652   1.778   4.029  2.7623 -0.9557 -0.4643
  182DOPC   H3S22325   1.723   1.834   4.185  0.8777  0.2008 -0.9807
  182DOPC   C2422326   1.557   1.693   4.216  0.6058  0.8234 -0.6462
  182DOPC   H4R22327   1.497   1.622   4.154 -1.5728  0.7565  1.3930
  182DOPC   H4S22328   1.492   1.775   4.253 -2.4397 -0.6415 -2.3079
  182DOPC   C2522329   1.604   1.630   4.347 -0.8996  0.7442  0.3372
  182DOPC   H5R22330   1.677   1.698   4.396 -1.7171  2.3480 -0.5984
  182DOPC   H5S22331   1.653   1.531   4.333  0.0160  0.9919  1.6075
  182DOPC   C2622332   1.489   1.617   4.442 -0.6400 -0.4279  0.3447
  182DOPC   H6R22333   1.408   1.559   4.393  0.5283 -1.1021 -0.8215
  182DOPC   H6S22334   1.462   1.723   4.462 -0.7986  0.0181 -2.0410
  182DOPC   C2722335   1.531   1.542   4.569 -0.4159 -0.5777  0.5230
  182DOPC   H7R22336   1.637   1.559   4.599  0.2786 -2.0595 -0.9321
  182DOPC   H7S22337   1.526   1.432   4.556 -0.3697 -0.3874 -1.3959
  182DOPC   C2822338   1.446   1.565   4.693 -0.3121 -0.4943  0.2074
  182DOPC   H8R22339   1.474   1.507   4.783  2.6573  1.9038  0.9950
  182DOPC   H8S22340   1.351   1.519   4.657  0.0684 -1.4871  0.4443
  182DOPC   C2922341   1.421   1.709   4.725 -0.2169 -0.0284  0.4587
  182DOPC   H9R22342   1.337   1.740   4.662  0.3815 -3.2979 -2.2366
  182DOPC  C21022343   1.481   1.776   4.821 -0.2084  0.4931  0.9422
  182DOPC  H10R22344   1.458   1.881   4.845  1.2865  0.4159  2.8835
  182DOPC  C21122345   1.589   1.732   4.908  0.1861 -0.6081  0.2098
  182DOPC  H11R22346   1.647   1.826   4.920 -1.1372  0.5024 -1.6237
  182DOPC  H11S22347   1.666   1.664   4.865  1.5172  0.1333  1.3393
  182DOPC  C21222348   1.548   1.695   5.045  0.4922  0.3448 -0.2619
  182DOPC  H12R22349   1.484   1.605   5.037  1.2782 -0.1202 -1.7414
  182DOPC  H12S22350   1.501   1.787   5.086  0.4140  0.3251 -0.3096
  182DOPC  C21322351   1.668   1.669   5.136 -0.0085 -0.2683 -0.1073
  182DOPC  H13R22352   1.734   1.758   5.137 -0.8223  0.4211  3.0589
  182DOPC  H13S22353   1.729   1.584   5.098 -1.0700 -1.3566  0.5665
  182DOPC  C21422354   1.620   1.645   5.284  0.7133 -1.0302  0.4457
  182DOPC  H14R22355   1.553   1.556   5.279  0.9135 -1.1190 -1.1455
  182DOPC  H14S22356   1.561   1.734   5.314  1.5357 -0.2542 -0.1972
  182DOPC  C21522357   1.738   1.614   5.378  0.4021 -0.3485  0.1941
  182DOPC  H15R22358   1.795   1.709   5.384 -1.7764  1.0103  0.5666
  182DOPC  H15S22359   1.794   1.530   5.334 -0.0141 -0.2025 -0.6303
  182DOPC  C21622360   1.688   1.584   5.519 -0.0136 -0.0531  0.2587
  182DOPC  H16R22361   1.771   1.548   5.583 -1.5384 -2.9450  0.7858
  182DOPC  H16S22362   1.598   1.518   5.515  0.4651 -0.7867  1.2515
  182DOPC  C21722363   1.633   1.716   5.586 -0.0038 -0.3558  0.5497
  182DOPC  H17R22364   1.539   1.748   5.535 -0.4187 -2.3521 -0.0207
  182DOPC  H17S22365   1.707   1.797   5.567 -1.6642  0.6748 -2.0985
  182DOPC  C21822366   1.604   1.716   5.739 -0.0796  0.0684 -0.0273
  182DOPC  H18R22367   1.698   1.682   5.787 -1.0444  0.0584  1.9793
  182DOPC  H18S22368   1.518   1.647   5.756 -0.6632  0.7225 -0.2696
  182DOPC  H18T22369   1.582   1.815   5.785 -0.9757 -0.3255  0.4100
  182DOPC   C3322370   1.480   1.129   4.515  0.3634 -0.3270  0.8757
  182DOPC   H3X22371   1.575   1.180   4.541 -1.0176  3.1467 -0.3091
  182DOPC   H3Y22372   1.501   1.020   4.510  1.4126 -0.0632 -1.6663
  182DOPC   C3422373   1.388   1.169   4.634 -0.7638  0.0595  0.6213
  182DOPC   H4X22374   1.291   1.119   4.613 -0.0563 -0.4977 -1.5889
  182DOPC   H4Y22375   1.357   1.275   4.652  0.2118  0.6671 -1.0147
  182DOPC   C3522376   1.450   1.111   4.764 -0.7462 -0.4865  0.2632
  182DOPC   H5X22377   1.548   1.160   4.787  0.0024 -2.7345  2.3161
  182DOPC   H5Y22378   1.473   1.004   4.743 -2.6082 -1.0321  0.8153
  182DOPC   C3622379   1.365   1.133   4.887 -0.3117  0.2765 -0.1571
  182DOPC   H6X22380   1.360   1.243   4.903 -1.6881  0.2489 -0.2636
  182DOPC   H6Y22381   1.259   1.110   4.864 -0.0765  0.7878 -1.8844
  182DOPC   C3722382   1.425   1.076   5.015 -0.1075  0.8338  0.1507
  182DOPC   H7X22383   1.428   0.966   5.002 -0.3426  1.1092 -2.7799
  182DOPC   H7Y22384   1.529   1.108   5.039  0.2207 -0.5090  0.5920
  182DOPC   C3822385   1.333   1.101   5.139 -0.1612  0.0913  0.0483
  182DOPC   H8X22386   1.229   1.090   5.103  1.0876 -1.2527 -3.5887
  182DOPC   H8Y22387   1.348   1.206   5.173  0.7440 -0.3041  0.9277
  182DOPC   C3922388   1.358   1.004   5.249 -0.2022  0.5310 -0.6507
  182DOPC   H9X22389   1.328   0.903   5.218 -0.2661  0.2784  0.1923
  182DOPC  C31022390   1.393   1.032   5.377 -0.0244 -0.4040  0.7764
  182DOPC  H10X22391   1.408   0.953   5.452  0.6699 -0.4749  0.5658
  182DOPC  C31122392   1.426   1.173   5.418  0.0260 -0.2919 -0.2427
  182DOPC  H11X22393   1.384   1.247   5.347 -0.8497  0.9176  1.4714
  182DOPC  H11Y22394   1.536   1.187   5.428  0.1813  0.7693 -2.7140
  182DOPC  C31222395   1.348   1.208   5.544  0.2347  0.1084  0.0386
  182DOPC  H12X22396   1.238   1.213   5.531  0.3589  0.3014 -1.0668
  182DOPC  H12Y22397   1.374   1.314   5.566 -2.3415  0.9841 -0.7948
  182DOPC  C31322398   1.377   1.111   5.664 -0.3207 -0.2309  0.4514
  182DOPC  H13X22399   1.357   1.006   5.633 -1.0791  0.4618 -1.5989
  182DOPC  H13Y22400   1.487   1.117   5.683  0.3509  1.5506 -3.1096
  182DOPC  C31422401   1.303   1.143   5.799 -0.3891 -0.4883 -0.7885
  182DOPC  H14X22402   1.322   1.250   5.824  0.0747 -0.9260  0.8167
  182DOPC  H14Y22403   1.193   1.130   5.793 -0.4150 -0.1082 -1.2531
  182DOPC  C31522404   1.349   1.068   5.922  0.4438  0.5931  0.4844
  182DOPC  H15X22405   1.326   0.961   5.905 -0.3986  0.8659 -0.2392
  182DOPC  H15Y22406   1.290   1.096   6.012  2.8808 -0.5405  2.5280
  182DOPC  C31622407   1.486   1.089   5.975 -0.7075 -0.6595  0.4280
  182DOPC  H16X22408   1.555   1.032   5.909 -0.4470  0.2446 -0.0987
  182DOPC  H16Y22409   1.513   1.196   5.962  0.5242 -1.2168 -2.3525
  182DOPC  C31722410   1.491   1.038   6.120 -0.1379 -0.7397 -1.0666
  182DOPC  H17X22411   1.399   1.074   6.170  0.0508  1.2428 -2.0307
  182DOPC  H17Y22412   1.490   0.927   6.119  2.1422 -0.8362 -3.1942
  182DOPC  C31822413   1.613   1.091   6.188  0.0904 -0.0148  0.3936
  182DOPC  H18X22414   1.626   1.201   6.178  0.9000 -0.0673  0.7860
  182DOPC  H18Y22415   1.610   1.071   6.297  0.4513 -1.4667  0.1650
  182DOPC  H18Z22416   1.703   1.043   6.143 -0.3059  0.8246 -1.3754
  183DOPC     N22417   6.116   6.408   3.329 -0.3372  0.3741 -0.0438
  183DOPC   C1222418   5.994   6.482   3.383  0.0934  0.9331 -0.2520
  183DOPC  H12A22419   5.913   6.469   3.313 -0.2865  0.4834  0.2747
  183DOPC  H12B22420   6.013   6.589   3.378 -0.4852  1.1710  1.9016
  183DOPC   C1322421   6.231   6.463   3.407  0.2424  1.1846  0.0104
  183DOPC  H13A22422   6.324   6.412   3.388  0.6253  2.2280 -1.0480
  183DOPC  H13B22423   6.243   6.570   3.401 -2.7581  1.5684 -0.6542
  183DOPC  H13C22424   6.222   6.442   3.513  0.4123 -1.4195 -0.4368
  183DOPC   C1422425   6.140   6.449   3.185 -0.3336  0.8156  0.4209
  183DOPC  H14A22426   6.144   6.556   3.171 -1.7913  0.9836  1.0399
  183DOPC  H14B22427   6.225   6.400   3.140 -0.8382  0.8290 -0.5625
  183DOPC  H14C22428   6.054   6.423   3.125 -0.2513  1.5762 -0.0412
  183DOPC   C1522429   6.109   6.263   3.336 -0.2216  0.4876 -0.0997
  183DOPC  H15A22430   6.192   6.211   3.291 -0.5179  0.1326 -0.2372
  183DOPC  H15B22431   6.019   6.233   3.286 -2.4115  0.0751  3.6622
  183DOPC  H15C22432   6.089   6.225   3.436 -1.6135 -1.4014 -1.0404
  183DOPC   C1122433   5.951   6.453   3.532  0.0172  0.1844  0.8811
  183DOPC  H11A22434   5.849   6.490   3.558  0.5134  0.9156  1.8910
  183DOPC  H11B22435   5.950   6.342   3.538 -0.1206  0.1392  0.0602
  183DOPC     P22436   6.063   6.635   3.694  0.0107 -0.2118  0.3163
  183DOPC   O1322437   6.073   6.733   3.582 -0.2450  0.3884 -0.2743
  183DOPC   O1422438   6.180   6.628   3.786 -0.2617 -0.5071 -0.2916
  183DOPC   O1222439   6.043   6.490   3.632 -0.2974  0.8650  0.5077
  183DOPC   O1122440   5.932   6.662   3.772 -0.3625  0.0333 -0.3301
  183DOPC    C122441   5.860   6.569   3.850  0.5995  0.2498 -0.4771
  183DOPC    HA22442   5.877   6.470   3.805 -0.6884  0.6704 -1.9598
  183DOPC    HB22443   5.750   6.585   3.847  0.2367 -1.7405  0.6974
  183DOPC    C222444   5.900   6.569   4.003  0.6490 -0.2701  0.0942
  183DOPC    HS22445   5.813   6.530   4.061  1.4912  1.4314  2.6979
  183DOPC   O2122446   5.931   6.695   4.052  0.4254 -0.8083  0.3600
  183DOPC   C2122447   5.834   6.780   4.056  0.1162 -0.7483  0.3349
  183DOPC   O2222448   5.718   6.765   4.019 -0.2727  0.1289 -0.1904
  183DOPC   C2222449   5.872   6.922   4.125  0.1724  0.9099 -0.6875
  183DOPC   H2R22450   5.777   6.975   4.145 -0.0042 -0.2305  1.9708
  183DOPC   H2S22451   5.946   6.965   4.055  0.9060 -1.6495 -1.5837
  183DOPC    C322452   6.002   6.465   4.027  0.4919  0.1372  0.1456
  183DOPC    HX22453   6.096   6.476   3.968  2.8061 -1.7764  3.1618
  183DOPC    HY22454   5.959   6.369   3.990 -0.5065 -1.0310  3.9173
  183DOPC   O3122455   6.026   6.444   4.166  0.7970  0.2696  0.5362
  183DOPC   C3122456   6.132   6.503   4.212  0.1347  0.3439  0.3374
  183DOPC   O3222457   6.206   6.581   4.155 -0.8363 -0.4586  0.1271
  183DOPC   C3222458   6.159   6.473   4.355 -0.0503  0.0279 -0.1622
  183DOPC   H2X22459   6.133   6.365   4.358 -0.1440  0.0689  2.0249
  183DOPC   H2Y22460   6.268   6.477   4.378 -0.5569 -0.0102  2.5689
  183DOPC   C2322461   5.945   6.899   4.259 -0.3263 -0.3837 -0.7672
  183DOPC   H3R22462   6.037   6.841   4.234 -0.2584 -0.6697  0.1307
  183DOPC   H3S22463   5.880   6.847   4.332  0.4002 -0.8560 -0.4422
  183DOPC   C2422464   5.985   7.036   4.317  0.0883 -0.0122  0.6463
  183DOPC   H4R22465   5.897   7.095   4.351 -0.4874 -1.0962  1.0732
  183DOPC   H4S22466   6.029   7.097   4.236 -1.3203  1.3919  0.8867
  183DOPC   C2522467   6.087   7.030   4.427  0.3290  0.1380 -0.6468
  183DOPC   H5R22468   6.176   6.969   4.400  0.1668 -2.1634  3.2209
  183DOPC   H5S22469   6.035   6.963   4.499  1.1012 -0.2548 -0.4394
  183DOPC   C2622470   6.128   7.166   4.483 -0.5645 -0.6017 -0.6380
  183DOPC   H6R22471   6.033   7.220   4.506 -0.2234 -0.7121  1.1680
  183DOPC   H6S22472   6.190   7.211   4.403  0.8358 -1.2184  0.0722
  183DOPC   C2722473   6.201   7.154   4.617 -0.0985 -0.2287  0.1160
  183DOPC   H7R22474   6.228   7.259   4.642  0.3509 -0.8346  2.3858
  183DOPC   H7S22475   6.290   7.092   4.592  0.5227  0.7933 -0.2859
  183DOPC   C2822476   6.117   7.093   4.735 -0.5605 -0.4068  0.0488
  183DOPC   H8R22477   6.086   6.993   4.697  1.1889 -0.4658 -1.3862
  183DOPC   H8S22478   6.024   7.152   4.749  0.7600  2.2978 -1.6885
  183DOPC   C2922479   6.200   7.070   4.862 -0.1144 -0.5024 -0.2163
  183DOPC   H9R22480   6.284   7.000   4.859  0.0648 -0.3437  0.7533
  183DOPC  C21022481   6.178   7.130   4.981  0.4194 -0.7711  0.3194
  183DOPC  H10R22482   6.251   7.113   5.061 -0.5929 -0.0473  1.4483
  183DOPC  C21122483   6.076   7.239   5.013  0.2102  0.2383 -0.2264
  183DOPC  H11R22484   5.983   7.202   5.063 -0.1321 -0.8018 -1.5889
  183DOPC  H11S22485   6.040   7.289   4.921  2.7831  0.1311 -1.3729
  183DOPC  C21222486   6.136   7.350   5.100 -0.5762 -0.1667  0.0755
  183DOPC  H12R22487   6.072   7.440   5.103  0.7569  0.8308 -0.3298
  183DOPC  H12S22488   6.234   7.372   5.053  0.4401 -0.5624  1.8898
  183DOPC  C21322489   6.170   7.307   5.244  0.0311 -0.1867  0.7080
  183DOPC  H13R22490   6.209   7.396   5.297  0.0051 -0.3527  1.0118
  183DOPC  H13S22491   6.239   7.219   5.241  2.4946  1.6008  1.6415
  183DOPC  C21422492   6.056   7.258   5.334 -0.0561 -0.0864 -0.0764
  183DOPC  H14R22493   6.041   7.153   5.301  1.4209 -0.7380  1.1815
  183DOPC  H14S22494   5.964   7.316   5.313 -0.6194 -0.7440  0.4996
  183DOPC  C21522495   6.084   7.241   5.482 -0.1649  0.2814  0.1839
  183DOPC  H15R22496   6.176   7.179   5.488  1.1937  2.2773  1.0578
  183DOPC  H15S22497   5.996   7.184   5.520  0.6334 -1.1728 -0.0594
  183DOPC  C21622498   6.100   7.376   5.556 -0.2281  0.5388  0.1419
  183DOPC  H16R22499   6.015   7.442   5.527 -2.2002 -1.6806  0.5075
  183DOPC  H16S22500   6.199   7.417   5.526 -0.2582  1.9327  1.8039
  183DOPC  C21722501   6.103   7.367   5.711  0.6625  0.3498  0.3523
  183DOPC  H17R22502   5.998   7.346   5.739  0.0193 -1.2553 -2.8189
  183DOPC  H17S22503   6.136   7.461   5.761  1.9541  0.2934 -0.3321
  183DOPC  C21822504   6.201   7.261   5.755  0.4009 -0.0724  0.2190
  183DOPC  H18R22505   6.176   7.153   5.750  1.8432 -0.8068  4.5234
  183DOPC  H18S22506   6.234   7.289   5.858  0.0014  0.9493  0.0829
  183DOPC  H18T22507   6.298   7.265   5.702  0.8636 -0.7048  0.9825
  183DOPC   C3322508   6.073   6.558   4.453 -0.1810 -0.6402 -0.7719
  183DOPC   H3X22509   5.967   6.525   4.444  0.5779 -3.9576  0.9661
  183DOPC   H3Y22510   6.079   6.667   4.431 -3.5334  0.2014  1.6485
  183DOPC   C3422511   6.114   6.543   4.593  0.1147  0.6504 -0.4254
  183DOPC   H4X22512   6.224   6.536   4.591  0.0188 -2.0685 -0.0167
  183DOPC   H4Y22513   6.066   6.454   4.640 -0.8662  1.4431  0.1199
  183DOPC   C3522514   6.071   6.656   4.687 -0.0125 -0.3239  0.7296
  183DOPC   H5X22515   5.967   6.672   4.653  0.8864 -2.2622 -3.5965
  183DOPC   H5Y22516   6.132   6.745   4.659  0.6311 -1.1611 -0.6172
  183DOPC   C3622517   6.078   6.622   4.831 -0.3982 -0.8575  1.0451
  183DOPC   H6X22518   6.014   6.535   4.859 -1.7142  0.1025  1.1505
  183DOPC   H6Y22519   6.172   6.576   4.866 -0.0848 -0.0129  1.3292
  183DOPC   C3722520   6.054   6.739   4.917  0.0031  0.4776  0.0872
  183DOPC   H7X22521   6.059   6.712   5.024  0.4398  1.0961  0.2314
  183DOPC   H7Y22522   6.130   6.819   4.903  1.1751 -0.8222 -1.3665
  183DOPC   C3822523   5.906   6.798   4.919  0.4884  0.5889 -0.0655
  183DOPC   H8X22524   5.841   6.708   4.927 -0.6685  1.3693 -0.4065
  183DOPC   H8Y22525   5.905   6.842   4.817  2.1383  0.2949 -0.2252
  183DOPC   C3922526   5.896   6.902   5.028 -0.4763  0.2954 -0.6817
  183DOPC   H9X22527   5.970   6.984   5.028 -1.8288  1.5826  0.6626
  183DOPC  C31022528   5.824   6.899   5.144  0.1830  0.5527 -0.9196
  183DOPC  H10X22529   5.832   6.981   5.217 -2.3786  0.4864 -0.4852
  183DOPC  C31122530   5.726   6.790   5.189 -0.2662  0.6304 -0.1344
  183DOPC  H11X22531   5.707   6.726   5.100  0.7621  0.5322 -0.2974
  183DOPC  H11Y22532   5.630   6.842   5.210 -0.6911 -0.3741  0.4980
  183DOPC  C31222533   5.767   6.697   5.303  0.5528 -0.5116 -0.0491
  183DOPC  H12X22534   5.864   6.648   5.284  0.5687 -0.3534 -0.3913
  183DOPC  H12Y22535   5.690   6.619   5.318  0.1446  0.0829  1.0657
  183DOPC  C31322536   5.773   6.774   5.436  0.3304 -0.0011 -0.4790
  183DOPC  H13X22537   5.787   6.706   5.523  1.6588 -0.8669 -1.3290
  183DOPC  H13Y22538   5.855   6.849   5.427 -0.5427  0.9972 -0.2825
  183DOPC  C31422539   5.646   6.846   5.479  0.0969 -0.0028  0.3157
  183DOPC  H14X22540   5.628   6.945   5.431 -1.9747 -0.1919  0.5935
  183DOPC  H14Y22541   5.568   6.778   5.438  1.7035 -2.0567  0.5419
  183DOPC  C31522542   5.626   6.874   5.631  0.6258  0.1408 -0.0435
  183DOPC  H15X22543   5.683   6.966   5.656  1.0027 -0.3607  0.9930
  183DOPC  H15Y22544   5.674   6.793   5.691  0.4062 -0.6928 -0.9792
  183DOPC  C31622545   5.475   6.882   5.669  0.4031 -0.9995  0.7854
  183DOPC  H16X22546   5.423   6.959   5.608  0.6618 -1.4961 -0.0674
  183DOPC  H16Y22547   5.435   6.784   5.638  1.2073 -1.0263 -0.2126
  183DOPC  C31722548   5.456   6.905   5.822  0.4652  0.0056  0.2624
  183DOPC  H17X22549   5.511   6.822   5.871  0.6716  0.5006  0.8933
  183DOPC  H17Y22550   5.500   7.002   5.852 -0.1415 -0.0619  1.4517
  183DOPC  C31822551   5.306   6.904   5.865  0.3561 -0.1590 -0.2396
  183DOPC  H18X22552   5.245   6.987   5.824  0.5005  0.6995  1.1754
  183DOPC  H18Y22553   5.254   6.816   5.824 -1.5122  0.8433 -0.1234
  183DOPC  H18Z22554   5.297   6.894   5.976  1.8493 -1.2326 -0.1768
  184DOPC     N22555   3.208   0.643   3.978 -0.0448  0.1763 -0.1791
  184DOPC   C1222556   3.272   0.703   4.100 -0.2641 -0.1886  0.1217
  184DOPC  H12A22557   3.195   0.708   4.176  1.4639 -0.4613  1.9697
  184DOPC  H12B22558   3.300   0.805   4.078  0.1540 -0.6367 -1.5958
  184DOPC   C1322559   3.097   0.736   3.946 -0.9508 -0.5038  0.0492
  184DOPC  H13A22560   3.012   0.720   4.011 -1.7874 -1.7221 -1.2889
  184DOPC  H13B22561   3.127   0.840   3.950 -0.1170 -0.7718  1.9078
  184DOPC  H13C22562   3.067   0.705   3.847 -0.8482 -2.2450  0.5211
  184DOPC   C1422563   3.150   0.511   4.008  0.3222  0.0840  0.1015
  184DOPC  H14A22564   3.084   0.512   4.094 -1.9609  0.2618 -1.5483
  184DOPC  H14B22565   3.087   0.486   3.924 -0.9259  2.1317  0.3508
  184DOPC  H14C22566   3.234   0.445   4.021 -0.9077 -1.2697  1.4046
  184DOPC   C1522567   3.307   0.633   3.864 -0.4564 -0.1143 -0.2808
  184DOPC  H15A22568   3.398   0.584   3.892  0.2083  0.3034 -1.5995
  184DOPC  H15B22569   3.350   0.730   3.841 -0.8367  0.0078 -0.4955
  184DOPC  H15C22570   3.264   0.595   3.772  1.6667  0.5438 -1.6261
  184DOPC   C1122571   3.374   0.622   4.173 -0.2214  0.7359 -0.6968
  184DOPC  H11A22572   3.410   0.679   4.261 -1.4881  1.9954 -0.9631
  184DOPC  H11B22573   3.313   0.532   4.196  1.9106 -0.9473 -1.3019
  184DOPC     P22574   3.577   0.458   4.126 -0.2938  0.0389 -0.1385
  184DOPC   O1322575   3.721   0.483   4.105 -0.0959  0.1163 -0.3123
  184DOPC   O1422576   3.523   0.332   4.066 -0.7762  0.1643  0.9574
  184DOPC   O1222577   3.481   0.579   4.085 -0.1073 -0.6182 -0.3933
  184DOPC   O1122578   3.548   0.453   4.282 -0.1036 -0.0342  0.1771
  184DOPC    C122579   3.638   0.535   4.364  0.0759  0.6599  0.0709
  184DOPC    HA22580   3.675   0.629   4.317 -1.0849  0.2790 -1.7181
  184DOPC    HB22581   3.724   0.474   4.397 -0.5943  0.2577  1.1098
  184DOPC    C222582   3.573   0.569   4.511 -0.3859 -0.2862  1.3751
  184DOPC    HS22583   3.579   0.471   4.563  2.3547 -1.3334 -0.6947
  184DOPC   O2122584   3.440   0.620   4.499  0.8792 -0.3209 -0.5989
  184DOPC   C2122585   3.353   0.569   4.586  0.0748  0.2819  0.3390
  184DOPC   O2222586   3.376   0.475   4.660 -0.1827 -0.4382 -0.8250
  184DOPC   C2222587   3.222   0.642   4.577 -0.2832  0.0479 -0.1843
  184DOPC   H2R22588   3.132   0.577   4.569 -0.9727  1.0769 -1.0152
  184DOPC   H2S22589   3.226   0.705   4.486 -1.0484 -1.4479 -1.3113
  184DOPC    C322590   3.673   0.657   4.593 -0.2374 -0.4420  0.5674
  184DOPC    HX22591   3.679   0.757   4.545  1.6029 -1.1831 -0.8789
  184DOPC    HY22592   3.775   0.613   4.596  0.8265  1.8314 -0.2558
  184DOPC   O3122593   3.629   0.666   4.732 -0.7044 -0.5891 -0.2966
  184DOPC   C3122594   3.601   0.786   4.777  0.5422  0.4640  0.7134
  184DOPC   O3222595   3.590   0.887   4.709 -0.4102 -0.1752 -0.2506
  184DOPC   C3222596   3.576   0.774   4.928  0.7677 -0.2969 -0.5144
  184DOPC   H2X22597   3.484   0.715   4.950  0.5843  0.3727  0.6063
  184DOPC   H2Y22598   3.662   0.716   4.967 -0.6444 -1.6667  0.7024
  184DOPC   C2322599   3.204   0.743   4.692  0.3339 -0.2877 -0.2039
  184DOPC   H3R22600   3.128   0.821   4.674  1.2976  1.1463  1.5354
  184DOPC   H3S22601   3.290   0.814   4.689 -1.2193  1.6480 -1.4531
  184DOPC   C2422602   3.183   0.680   4.830 -0.0665  1.1458  0.1512
  184DOPC   H4R22603   3.255   0.597   4.841 -0.7594  0.7245  1.8112
  184DOPC   H4S22604   3.084   0.630   4.828 -0.3953  1.6843  1.6490
  184DOPC   C2522605   3.193   0.771   4.950 -0.7076  0.5020 -0.1963
  184DOPC   H5R22606   3.116   0.851   4.953 -0.2127  1.0132  3.5464
  184DOPC   H5S22607   3.290   0.824   4.952 -0.2584 -0.2260 -1.5459
  184DOPC   C2622608   3.180   0.687   5.077  0.2506  0.3440 -0.0432
  184DOPC   H6R22609   3.276   0.644   5.112 -1.5206 -0.6148  4.2535
  184DOPC   H6S22610   3.108   0.603   5.064  2.9495 -2.1802  0.1981
  184DOPC   C2722611   3.122   0.774   5.190  0.2897  0.2175 -0.6531
  184DOPC   H7R22612   3.023   0.820   5.167 -0.9727 -2.2055 -0.4015
  184DOPC   H7S22613   3.190   0.858   5.214  1.8416 -0.9313 -0.9057
  184DOPC   C2822614   3.107   0.706   5.327  0.6613 -0.0282  0.4447
  184DOPC   H8R22615   3.040   0.620   5.308 -0.7022  1.4786 -2.0276
  184DOPC   H8S22616   3.041   0.772   5.387 -1.7248  0.4072 -2.4879
  184DOPC   C2922617   3.226   0.666   5.400 -0.5384 -0.4065  0.2947
  184DOPC   H9R22618   3.277   0.573   5.370  0.0011 -0.5691  1.6685
  184DOPC  C21022619   3.306   0.729   5.484 -0.1565  0.3367 -0.3226
  184DOPC  H10R22620   3.391   0.676   5.529  0.8067  2.0001 -0.0994
  184DOPC  C21122621   3.266   0.851   5.565 -0.1182 -0.0234  0.5043
  184DOPC  H11R22622   3.156   0.868   5.566 -0.0370  0.5898  0.1157
  184DOPC  H11S22623   3.319   0.936   5.516  0.3129 -1.7430 -2.2252
  184DOPC  C21222624   3.310   0.838   5.710  0.4396 -0.3007 -0.1932
  184DOPC  H12R22625   3.273   0.741   5.750  0.0544 -0.6103 -1.2573
  184DOPC  H12S22626   3.261   0.920   5.766  2.2843 -0.5644  1.9535
  184DOPC  C21322627   3.462   0.874   5.725  0.6600 -0.4900  0.8619
  184DOPC  H13R22628   3.478   0.976   5.682  3.6884 -0.8374  0.9738
  184DOPC  H13S22629   3.521   0.803   5.663 -0.7615 -0.5196 -0.5224
  184DOPC  C21422630   3.501   0.888   5.872 -0.3198  0.1125  0.2582
  184DOPC  H14R22631   3.426   0.949   5.927  1.1348  1.0714  1.2526
  184DOPC  H14S22632   3.592   0.951   5.864 -0.1261 -0.2064 -0.1070
  184DOPC  C21522633   3.535   0.760   5.942 -0.3502  0.3546 -0.1855
  184DOPC  H15R22634   3.637   0.724   5.915 -0.0370  0.3890  0.8909
  184DOPC  H15S22635   3.463   0.684   5.906  1.5563 -0.8980 -1.5698
  184DOPC  C21622636   3.533   0.769   6.095  0.3447 -0.6315 -0.6138
  184DOPC  H16R22637   3.602   0.850   6.126  2.1082 -2.8387  1.6401
  184DOPC  H16S22638   3.576   0.676   6.137 -0.3577 -0.0093  1.5972
  184DOPC  C21722639   3.389   0.775   6.148 -0.2958 -0.2893 -0.0397
  184DOPC  H17R22640   3.337   0.692   6.096  0.5424  0.1128 -1.5664
  184DOPC  H17S22641   3.347   0.873   6.117 -0.2611 -0.5850 -1.0323
  184DOPC  C21822642   3.399   0.755   6.301  0.2649  0.4948 -0.0468
  184DOPC  H18R22643   3.453   0.660   6.319 -2.6805 -1.1289  0.9954
  184DOPC  H18S22644   3.307   0.750   6.363  0.2558 -0.3156 -0.1148
  184DOPC  H18T22645   3.451   0.846   6.338 -0.0523  0.5833  0.1826
  184DOPC   C3322646   3.572   0.922   4.994 -0.4651 -0.4168  0.0161
  184DOPC   H3X22647   3.465   0.952   4.993 -0.4340  0.1328  3.1312
  184DOPC   H3Y22648   3.635   0.987   4.930 -1.4090 -1.3305 -1.9530
  184DOPC   C3422649   3.617   0.933   5.137  0.2548 -0.1196  0.3820
  184DOPC   H4X22650   3.587   1.035   5.167 -0.9652 -0.4249  0.2463
  184DOPC   H4Y22651   3.728   0.924   5.145  0.3110 -0.2752 -0.4517
  184DOPC   C3522652   3.544   0.845   5.240 -0.4276 -0.1117  0.0813
  184DOPC   H5X22653   3.523   0.756   5.178 -0.6268  0.7349 -1.1036
  184DOPC   H5Y22654   3.442   0.882   5.263 -0.5987  0.2830 -1.2027
  184DOPC   C3622655   3.630   0.803   5.353  0.0064  0.1784 -0.6614
  184DOPC   H6X22656   3.584   0.742   5.433  2.0139 -0.9613 -0.3014
  184DOPC   H6Y22657   3.710   0.733   5.322 -0.6521 -1.4663  1.2345
  184DOPC   C3722658   3.694   0.928   5.418  0.3713 -0.3780  0.5237
  184DOPC   H7X22659   3.743   0.991   5.341 -0.7559 -1.1430 -0.8930
  184DOPC   H7Y22660   3.616   0.992   5.464  1.3896  0.1959  1.4729
  184DOPC   C3822661   3.778   0.883   5.531  0.3875 -0.5100 -0.0987
  184DOPC   H8X22662   3.877   0.846   5.500  1.8331  1.9786  1.2179
  184DOPC   H8Y22663   3.721   0.806   5.588  0.3854  1.8015  3.3562
  184DOPC   C3922664   3.816   0.991   5.626 -0.7868  0.1085 -0.2617
  184DOPC   H9X22665   3.779   1.091   5.600 -0.6468  0.5762  1.2060
  184DOPC  C31022666   3.886   0.974   5.737 -0.1617 -0.4711 -0.0394
  184DOPC  H10X22667   3.927   1.067   5.779 -1.2645 -0.0856  0.2269
  184DOPC  C31122668   3.940   0.845   5.798 -0.8455 -0.2805  0.7214
  184DOPC  H11X22669   4.050   0.860   5.797 -0.5701 -1.9342  1.8782
  184DOPC  H11Y22670   3.927   0.754   5.735  0.4799  0.1396 -0.2140
  184DOPC  C31222671   3.899   0.809   5.931  0.2633  0.0850  0.2483
  184DOPC  H12X22672   3.942   0.708   5.948 -0.3260  0.0183  1.4347
  184DOPC  H12Y22673   3.790   0.830   5.941  0.3289  0.3020  0.5167
  184DOPC  C31322674   3.978   0.885   6.035  0.3622 -0.5622  0.7586
  184DOPC  H13X22675   4.084   0.853   6.043  0.9471  1.0930  0.1265
  184DOPC  H13Y22676   3.989   0.987   5.992  1.3899 -0.5714  0.9966
  184DOPC  C31422677   3.907   0.900   6.169  0.0791 -0.0694  0.5841
  184DOPC  H14X22678   3.821   0.969   6.156  0.5099 -0.0148 -2.9561
  184DOPC  H14Y22679   3.867   0.799   6.195  1.2776 -0.6507  0.2310
  184DOPC  C31522680   4.000   0.944   6.288  0.0496 -0.2674  0.8905
  184DOPC  H15X22681   4.016   1.054   6.288  0.8262 -0.3763  0.1560
  184DOPC  H15Y22682   4.099   0.900   6.264 -0.1435 -0.5912  0.6641
  184DOPC  C31622683   3.957   0.900   6.429  0.2275  0.0565 -0.1651
  184DOPC  H16X22684   3.958   0.789   6.441 -0.0914  0.1409  0.6648
  184DOPC  H16Y22685   4.039   0.944   6.490 -0.9421  1.0569  0.7446
  184DOPC  C31722686   3.826   0.958   6.478 -0.1658 -0.2906 -0.1280
  184DOPC  H17X22687   3.759   0.928   6.395  0.8009  0.7644 -1.3290
  184DOPC  H17Y22688   3.799   0.922   6.580  0.1087  1.6186  0.6716
  184DOPC  C31822689   3.818   1.112   6.481 -0.0707  0.4478 -0.2716
  184DOPC  H18X22690   3.731   1.153   6.537  1.1910  2.2105  0.4841
  184DOPC  H18Y22691   3.905   1.154   6.536  0.2022  1.1922 -1.2361
  184DOPC  H18Z22692   3.830   1.153   6.378  1.3485 -1.1228 -0.7749
  185DOPC     N22693   0.437   5.444   3.667  0.0344  0.0992 -0.3733
  185DOPC   C1222694   0.317   5.391   3.733  0.2896 -0.7195 -0.6016
  185DOPC  H12A22695   0.315   5.283   3.728  0.9570 -0.6775 -2.8410
  185DOPC  H12B22696   0.223   5.420   3.688  0.4591  1.3270  0.2302
  185DOPC   C1322697   0.454   5.365   3.538  0.1109  0.3257 -0.1920
  185DOPC  H13A22698   0.555   5.385   3.506  0.0838  1.5342  0.4137
  185DOPC  H13B22699   0.439   5.260   3.553 -1.3860  0.4622 -0.6144
  185DOPC  H13C22700   0.379   5.402   3.469 -0.1271 -2.3750 -1.4976
  185DOPC   C1422701   0.556   5.407   3.750 -0.1657 -0.4019  0.3244
  185DOPC  H14A22702   0.554   5.453   3.847 -0.8029  0.5901 -0.1411
  185DOPC  H14B22703   0.555   5.299   3.758 -2.8152 -0.5752 -1.0027
  185DOPC  H14C22704   0.652   5.438   3.712 -0.8882  1.2339 -0.2511
  185DOPC   C1522705   0.439   5.589   3.640 -0.3205 -0.0214 -0.3784
  185DOPC  H15A22706   0.449   5.651   3.728  0.9569 -0.7265 -0.0027
  185DOPC  H15B22707   0.346   5.618   3.594  0.2262 -1.0284 -2.2291
  185DOPC  H15C22708   0.520   5.606   3.570  0.3802  3.9650  1.0850
  185DOPC   C1122709   0.297   5.437   3.879  0.1549 -0.6771 -0.1342
  185DOPC  H11A22710   0.203   5.389   3.915 -1.9442  1.7509 -1.9927
  185DOPC  H11B22711   0.381   5.400   3.942  0.7538  3.0889  1.5891
  185DOPC     P22712   0.155   5.651   3.852  0.0574  0.0286 -0.1446
  185DOPC   O1322713   0.092   5.583   3.733 -0.1529 -0.7223  0.1605
  185DOPC   O1422714   0.178   5.801   3.846  0.0342  0.6169 -0.1317
  185DOPC   O1222715   0.288   5.581   3.889 -0.8064  0.5258  0.4220
  185DOPC   O1122716   0.062   5.618   3.978 -0.3104  1.0238  0.1173
  185DOPC    C122717   0.080   5.650   4.118  0.0637  0.7238  0.2358
  185DOPC    HA22718  -0.017   5.686   4.157  0.6515  1.1180  1.4023
  185DOPC    HB22719   0.149   5.735   4.139  1.7175 -0.9593  2.1368
  185DOPC    C222720   0.128   5.524   4.193 -0.3797 -0.5520  0.3329
  185DOPC    HS22721   0.198   5.472   4.124 -1.0142 -2.8644  1.3644
  185DOPC   O2122722   0.014   5.437   4.209  0.0177 -0.5381 -0.0672
  185DOPC   C2122723   0.043   5.319   4.253  0.2564 -0.0338 -0.3758
  185DOPC   O2222724   0.154   5.268   4.269 -0.4692 -0.0390 -0.1593
  185DOPC   C2222725  -0.092   5.265   4.292  0.3525 -0.1100 -0.4985
  185DOPC   H2R22726  -0.161   5.250   4.207  1.5311  0.7222 -1.6337
  185DOPC   H2S22727  -0.131   5.343   4.360  0.4815 -1.0850  0.7351
  185DOPC    C322728   0.196   5.565   4.320 -0.0698 -0.2822  0.4647
  185DOPC    HX22729   0.289   5.621   4.294  0.3029 -1.5550 -1.1455
  185DOPC    HY22730   0.222   5.477   4.382  0.5753 -0.4285 -0.0015
  185DOPC   O3122731   0.111   5.658   4.392  0.4296  0.0888 -0.6047
  185DOPC   C3122732   0.044   5.615   4.496  0.3694  0.0086 -0.1860
  185DOPC   O3222733   0.056   5.502   4.543 -0.1264 -0.3100 -0.0830
  185DOPC   C3222734  -0.041   5.730   4.551 -0.6244 -0.0622 -0.2631
  185DOPC   H2X22735   0.021   5.814   4.588 -0.4727 -0.1102 -0.4085
  185DOPC   H2Y22736  -0.107   5.765   4.469 -0.3827 -1.7014 -1.2116
  185DOPC   C2322737  -0.083   5.146   4.384  0.3078  0.1787 -0.1988
  185DOPC   H3R22738   0.016   5.101   4.406 -0.7639 -1.8144  0.9048
  185DOPC   H3S22739  -0.146   5.070   4.332  0.7550 -0.2765 -0.0843
  185DOPC   C2422740  -0.151   5.162   4.523  0.4817  0.0254 -0.0048
  185DOPC   H4R22741  -0.204   5.072   4.560  0.7168  0.2979  1.0361
  185DOPC   H4S22742  -0.223   5.244   4.503 -0.5610 -1.2898 -2.0247
  185DOPC   C2522743  -0.057   5.204   4.632 -0.3787  0.1907 -0.0773
  185DOPC   H5R22744   0.020   5.275   4.594 -0.3250  1.3070  1.9878
  185DOPC   H5S22745  -0.004   5.109   4.651 -0.3047  0.3639  0.6071
  185DOPC   C2622746  -0.117   5.249   4.763 -0.8010 -0.8565 -0.3309
  185DOPC   H6R22747  -0.199   5.180   4.789 -0.4142 -1.2398 -0.1056
  185DOPC   H6S22748  -0.161   5.348   4.739  1.1015  0.0576 -0.2140
  185DOPC   C2722749  -0.029   5.269   4.890 -0.1595 -0.0239  0.3081
  185DOPC   H7R22750   0.048   5.334   4.842 -0.1949  0.0016  0.2846
  185DOPC   H7S22751   0.023   5.178   4.925 -0.2105  0.3788  1.4789
  185DOPC   C2822752  -0.091   5.369   4.988 -1.1752  0.3278 -0.1861
  185DOPC   H8R22753  -0.132   5.465   4.948  1.2161  0.5323 -2.4599
  185DOPC   H8S22754  -0.004   5.409   5.044 -0.6455 -0.4756 -0.4153
  185DOPC   C2922755  -0.200   5.303   5.069 -0.4908 -0.3041 -0.4483
  185DOPC   H9R22756  -0.278   5.258   5.005 -1.1146 -1.6280  1.1904
  185DOPC  C21022757  -0.231   5.311   5.199  0.5704 -0.6329 -0.4299
  185DOPC  H10R22758  -0.318   5.260   5.243  0.4208  0.4927  0.6143
  185DOPC  C21122759  -0.148   5.396   5.290  0.1453 -0.0807  0.7534
  185DOPC  H11R22760  -0.085   5.462   5.227 -1.3767 -0.3340 -1.1441
  185DOPC  H11S22761  -0.075   5.333   5.344  1.0406 -0.9879 -1.4109
  185DOPC  C21222762  -0.221   5.480   5.398  0.0384 -0.5607  0.0359
  185DOPC  H12R22763  -0.292   5.556   5.359  0.3193 -0.5665 -0.4978
  185DOPC  H12S22764  -0.136   5.545   5.429 -0.3952  0.9633 -1.8006
  185DOPC  C21322765  -0.282   5.390   5.498 -0.0071  0.3382  0.1047
  185DOPC  H13R22766  -0.216   5.330   5.564 -1.6931 -1.1075  0.5561
  185DOPC  H13S22767  -0.360   5.322   5.458  0.1222  0.2266  0.0425
  185DOPC  C21422768  -0.349   5.479   5.603  0.1519 -0.2119  0.2893
  185DOPC  H14R22769  -0.424   5.544   5.553  2.0621 -0.1595 -2.7363
  185DOPC  H14S22770  -0.272   5.550   5.642 -0.9046  0.8416  0.5071
  185DOPC  C21522771  -0.411   5.397   5.711  0.0703 -0.6944  0.3315
  185DOPC  H15R22772  -0.334   5.342   5.770  0.8708 -2.4338 -2.1557
  185DOPC  H15S22773  -0.467   5.313   5.666 -1.4989  0.1133  0.7160
  185DOPC  C21622774  -0.497   5.473   5.814 -0.7352  0.0219 -0.5339
  185DOPC  H16R22775  -0.534   5.398   5.888 -0.8281  0.5092 -0.0802
  185DOPC  H16S22776  -0.586   5.525   5.773 -2.4329 -0.8829  1.7887
  185DOPC  C21722777  -0.408   5.563   5.896 -0.0202  0.6985 -0.3855
  185DOPC  H17R22778  -0.365   5.641   5.830  1.2883 -0.6821 -1.2213
  185DOPC  H17S22779  -0.318   5.505   5.925 -0.3805 -0.0778 -0.8033
  185DOPC  C21822780  -0.486   5.633   6.006  0.1614  0.7404  0.3334
  185DOPC  H18R22781  -0.553   5.707   5.957  0.1832  0.7870  0.3741
  185DOPC  H18S22782  -0.420   5.684   6.080  0.5138  1.3647 -0.3966
  185DOPC  H18T22783  -0.550   5.564   6.064 -1.2713 -0.2766 -2.2950
  185DOPC   C3322784  -0.129   5.675   4.669 -0.3268 -0.0781  0.9144
  185DOPC   H3X22785  -0.070   5.600   4.725  0.2564 -0.2742  0.0432
  185DOPC   H3Y22786  -0.215   5.618   4.628 -0.1348 -0.0018  0.3976
  185DOPC   C3422787  -0.186   5.787   4.763  0.0720 -0.0225 -0.4684
  185DOPC   H4X22788  -0.276   5.826   4.711 -0.1535 -0.6776 -0.5673
  185DOPC   H4Y22789  -0.111   5.868   4.777 -0.4863  0.2715  0.9621
  185DOPC   C3522790  -0.215   5.725   4.898 -0.2616  0.6864 -0.1132
  185DOPC   H5X22791  -0.123   5.684   4.943 -0.9538 -1.2293 -0.3772
  185DOPC   H5Y22792  -0.285   5.640   4.884  1.2386 -0.3828 -1.3513
  185DOPC   C3622793  -0.276   5.827   4.998 -0.1618  0.0747 -0.5522
  185DOPC   H6X22794  -0.205   5.912   4.997  0.8278 -0.6503  1.6017
  185DOPC   H6Y22795  -0.365   5.878   4.958  1.1255  4.0432  1.1853
  185DOPC   C3722796  -0.285   5.793   5.147  0.2314 -0.1806 -0.0810
  185DOPC   H7X22797  -0.371   5.725   5.167  0.4258 -0.5344 -0.4327
  185DOPC   H7Y22798  -0.197   5.730   5.175  0.6265  0.2391 -0.3725
  185DOPC   C3822799  -0.290   5.914   5.234  1.0001  0.0048  0.1506
  185DOPC   H8X22800  -0.215   5.988   5.199 -1.9953  3.6570  0.7565
  185DOPC   H8Y22801  -0.266   5.872   5.334  0.6218 -2.4968 -0.7424
  185DOPC   C3922802  -0.423   5.985   5.215  0.0118  0.2125 -0.4452
  185DOPC   H9X22803  -0.415   6.070   5.145  0.1035  0.8417  0.3197
  185DOPC  C31022804  -0.536   5.974   5.285  0.5055  0.6250  0.6226
  185DOPC  H10X22805  -0.614   6.049   5.269  0.2552  1.0926  3.5137
  185DOPC  C31122806  -0.557   5.851   5.375  0.0335 -0.3023 -0.5822
  185DOPC  H11X22807  -0.479   5.771   5.378  1.0031  0.6428 -0.1151
  185DOPC  H11Y22808  -0.649   5.804   5.335 -0.7316 -0.3860  1.1808
  185DOPC  C31222809  -0.594   5.890   5.517  0.5028 -0.1535 -0.1115
  185DOPC  H12X22810  -0.611   5.794   5.572 -2.4497  0.0245 -0.5651
  185DOPC  H12Y22811  -0.688   5.947   5.528 -0.0313 -0.8972 -0.7235
  185DOPC  C31322812  -0.497   5.972   5.601 -0.1508 -0.2725  0.4954
  185DOPC  H13X22813  -0.396   5.929   5.586 -0.9868 -1.9410 -0.5646
  185DOPC  H13Y22814  -0.488   6.071   5.550 -1.1791 -0.4077  0.0202
  185DOPC  C31422815  -0.540   5.989   5.747 -0.3228 -0.7429 -1.1547
  185DOPC  H14X22816  -0.645   6.024   5.742 -0.4248 -0.8123  0.0676
  185DOPC  H14Y22817  -0.551   5.892   5.802 -0.8539 -0.5137 -0.8419
  185DOPC  C31522818  -0.467   6.111   5.816 -0.6255 -0.5865  0.0083
  185DOPC  H15X22819  -0.442   6.174   5.728 -2.8501  0.3060 -0.0471
  185DOPC  H15Y22820  -0.369   6.077   5.855 -0.4733 -0.3142 -0.1347
  185DOPC  C31622821  -0.549   6.192   5.922  0.8680  0.5427  0.1507
  185DOPC  H16X22822  -0.518   6.298   5.932  0.6138  0.6081  0.2427
  185DOPC  H16Y22823  -0.656   6.182   5.895  0.8897  2.1651 -0.6685
  185DOPC  C31722824  -0.538   6.142   6.068  0.1421 -0.0810 -0.1917
  185DOPC  H17X22825  -0.561   6.034   6.081  1.7503 -0.7150 -2.1362
  185DOPC  H17Y22826  -0.436   6.168   6.104 -0.9439 -0.1598  3.3393
  185DOPC  C31822827  -0.638   6.207   6.161  0.0636  0.4305 -0.1504
  185DOPC  H18X22828  -0.742   6.179   6.132  0.2001 -1.5039  1.0997
  185DOPC  H18Y22829  -0.624   6.177   6.267 -0.4106  2.4792  0.5324
  185DOPC  H18Z22830  -0.630   6.318   6.161 -0.3875  0.4794 -1.0172
  186DOPC     N22831   0.183   2.873   3.286  0.7861 -0.5279 -0.0096
  186DOPC   C1222832   0.216   2.876   3.435 -0.4651 -0.9310 -0.1918
  186DOPC  H12A22833   0.316   2.908   3.460 -1.4918  1.7017  0.9992
  186DOPC  H12B22834   0.214   2.776   3.476  0.7035 -0.9204 -0.0856
  186DOPC   C1322835   0.166   3.012   3.226  0.1084  0.0760  0.2270
  186DOPC  H13A22836   0.100   3.070   3.288 -2.0758  1.7313 -3.3202
  186DOPC  H13B22837   0.259   3.067   3.227  0.3962 -0.3397  2.6317
  186DOPC  H13C22838   0.117   3.002   3.130  1.5267  0.3033 -0.5479
  186DOPC   C1422839   0.044   2.823   3.264  0.0951  0.4871  0.0821
  186DOPC  H14A22840  -0.035   2.889   3.297 -0.5295 -2.0078  4.3568
  186DOPC  H14B22841   0.023   2.815   3.158  2.4785  1.9682 -0.5737
  186DOPC  H14C22842   0.036   2.726   3.311  0.5204 -0.3884 -1.5823
  186DOPC   C1522843   0.282   2.798   3.208 -0.2738  0.0634 -0.7230
  186DOPC  H15A22844   0.275   2.798   3.100  0.1854 -0.0390 -0.7530
  186DOPC  H15B22845   0.285   2.696   3.242  0.2461  0.7614  1.4860
  186DOPC  H15C22846   0.377   2.845   3.227 -1.2061  2.8126 -2.2386
  186DOPC   C1122847   0.115   2.971   3.516 -0.7275 -0.4607  0.2836
  186DOPC  H11A22848   0.012   2.963   3.474 -1.1015  1.8489  0.5880
  186DOPC  H11B22849   0.112   2.939   3.622 -2.4587 -1.9122 -0.1584
  186DOPC     P22850   0.281   3.170   3.598  0.0312 -0.1597 -0.1900
  186DOPC   O1322851   0.331   3.294   3.533  0.1141 -0.5403 -0.7469
  186DOPC   O1422852   0.388   3.069   3.627 -0.6444 -1.1355 -0.0470
  186DOPC   O1222853   0.162   3.109   3.504  0.5236 -0.3722  0.1325
  186DOPC   O1122854   0.209   3.215   3.735  0.0557 -0.5673  0.2666
  186DOPC    C122855   0.257   3.139   3.847 -0.1608  0.1383 -0.4773
  186DOPC    HA22856   0.367   3.130   3.850 -0.0411  1.7145  1.0052
  186DOPC    HB22857   0.223   3.033   3.840  2.3333 -0.7239 -0.5641
  186DOPC    C222858   0.224   3.219   3.982 -0.1866 -0.6019 -0.3991
  186DOPC    HS22859   0.260   3.323   3.964 -1.0986 -0.3103 -0.6423
  186DOPC   O2122860   0.276   3.156   4.098 -0.1607  0.2396  0.3346
  186DOPC   C2122861   0.408   3.188   4.127  0.1900 -0.4003  0.2952
  186DOPC   O2222862   0.476   3.261   4.048 -0.5671  0.5542  0.5910
  186DOPC   C2222863   0.452   3.135   4.263 -0.0756 -0.4075  0.4508
  186DOPC   H2R22864   0.458   3.026   4.245 -0.7642 -0.2185 -1.1046
  186DOPC   H2S22865   0.369   3.172   4.327 -0.2692  2.3928 -1.2262
  186DOPC    C322866   0.071   3.229   4.005  0.7122 -0.3620  0.2652
  186DOPC    HX22867   0.036   3.126   4.030  1.1786 -0.5650  0.0799
  186DOPC    HY22868   0.018   3.266   3.915  1.7772 -1.3727 -0.8100
  186DOPC   O3122869   0.045   3.318   4.118  0.2676 -0.0309  0.2218
  186DOPC   C3122870  -0.076   3.315   4.167 -0.3681  0.2914  0.1225
  186DOPC   O3222871  -0.158   3.228   4.149  0.1759 -0.3223  0.3626
  186DOPC   C3222872  -0.092   3.437   4.260  0.5289  0.7267  0.3436
  186DOPC   H2X22873  -0.030   3.526   4.236 -0.7682  2.0122  1.5439
  186DOPC   H2Y22874  -0.194   3.477   4.248  0.2113  0.6660  2.4749
  186DOPC   C2322875   0.589   3.196   4.303 -0.2697  0.3929  0.3789
  186DOPC   H3R22876   0.573   3.302   4.333  1.0720 -0.2073  3.4885
  186DOPC   H3S22877   0.666   3.186   4.223  0.3783  2.8537  0.6299
  186DOPC   C2422878   0.646   3.126   4.420  0.6136  0.4612  0.3257
  186DOPC   H4R22879   0.753   3.156   4.421  0.8194 -0.2561  0.4816
  186DOPC   H4S22880   0.650   3.016   4.404  3.6290  0.2752  1.5416
  186DOPC   C2522881   0.568   3.152   4.542  0.3512 -0.2731  0.1121
  186DOPC   H5R22882   0.467   3.106   4.534 -0.0448  0.6546 -0.3621
  186DOPC   H5S22883   0.550   3.260   4.560 -3.9031 -0.6922 -0.5463
  186DOPC   C2622884   0.636   3.119   4.671 -0.0281 -0.4515 -0.5218
  186DOPC   H6R22885   0.740   3.157   4.683 -0.2796 -0.3091  1.6125
  186DOPC   H6S22886   0.635   3.008   4.679  0.2552 -0.4012  0.3330
  186DOPC   C2722887   0.559   3.166   4.802 -0.4807 -0.1510  0.1295
  186DOPC   H7R22888   0.451   3.140   4.805 -0.8133  0.8791 -1.5998
  186DOPC   H7S22889   0.571   3.274   4.824  2.4401 -0.4755  0.5400
  186DOPC   C2822890   0.627   3.102   4.928  0.1915  0.2832 -0.0344
  186DOPC   H8R22891   0.720   3.160   4.943 -1.4413  2.5917  2.1148
  186DOPC   H8S22892   0.650   2.994   4.913 -1.6222 -0.0763 -0.4329
  186DOPC   C2922893   0.535   3.114   5.052  0.4077 -1.2094  0.2487
  186DOPC   H9R22894   0.426   3.106   5.035  0.5770 -3.3015 -0.2174
  186DOPC  C21022895   0.576   3.138   5.180  0.5136 -0.0218  0.6494
  186DOPC  H10R22896   0.493   3.136   5.252  0.2640  1.2900  0.4127
  186DOPC  C21122897   0.713   3.168   5.235 -0.6234 -0.2774  0.5813
  186DOPC  H11R22898   0.783   3.220   5.166 -0.8508  0.5060  0.9346
  186DOPC  H11S22899   0.756   3.075   5.279  1.0445 -0.7207 -1.8238
  186DOPC  C21222900   0.700   3.261   5.368  0.0434 -0.3524 -0.0109
  186DOPC  H12R22901   0.661   3.359   5.336 -1.0102 -0.8602 -0.3347
  186DOPC  H12S22902   0.806   3.270   5.400  0.1488 -1.7792  0.1144
  186DOPC  C21322903   0.614   3.198   5.478  0.6769  0.3233 -0.8826
  186DOPC  H13R22904   0.626   3.088   5.473  0.2272  0.2032  0.3440
  186DOPC  H13S22905   0.509   3.222   5.453 -0.3727 -1.1305  1.6821
  186DOPC  C21422906   0.654   3.244   5.630  0.2904 -0.1255  0.4951
  186DOPC  H14R22907   0.576   3.203   5.698 -2.1530 -0.6023 -2.3860
  186DOPC  H14S22908   0.636   3.354   5.630 -3.3818 -0.5871  0.8946
  186DOPC  C21522909   0.798   3.204   5.661  0.2382 -1.0259  0.0056
  186DOPC  H15R22910   0.867   3.241   5.582 -1.9126 -0.0294 -1.4841
  186DOPC  H15S22911   0.806   3.093   5.661 -0.5011 -1.1206  1.9358
  186DOPC  C21622912   0.843   3.255   5.797 -0.7482 -0.5763  0.0733
  186DOPC  H16R22913   0.937   3.202   5.825 -1.4560 -1.6573  0.4806
  186DOPC  H16S22914   0.764   3.257   5.875 -0.3872 -0.6827  0.4523
  186DOPC  C21722915   0.901   3.405   5.779 -0.3584  0.2346 -0.2145
  186DOPC  H17R22916   0.818   3.472   5.747 -0.3193  0.3580 -0.0554
  186DOPC  H17S22917   0.978   3.399   5.698  1.3266 -0.7733  1.3849
  186DOPC  C21822918   0.972   3.433   5.906  0.3027 -0.6749  0.0027
  186DOPC  H18R22919   1.029   3.528   5.900 -0.1066 -0.4058  0.3294
  186DOPC  H18S22920   1.047   3.353   5.924  0.0830 -1.0601 -0.7479
  186DOPC  H18T22921   0.899   3.431   5.989 -0.6135  3.0406 -0.5265
  186DOPC   C3322922  -0.070   3.397   4.408 -0.4096  0.2084  0.2667
  186DOPC   H3X22923   0.032   3.354   4.417  0.6387  1.9544 -2.0599
  186DOPC   H3Y22924  -0.151   3.329   4.444 -0.1836  0.0365  0.4546
  186DOPC   C3422925  -0.074   3.514   4.506  0.5355  0.1850 -0.3359
  186DOPC   H4X22926  -0.174   3.560   4.519 -1.6511 -4.4945  1.9021
  186DOPC   H4Y22927  -0.005   3.591   4.465  1.5210 -1.0784 -1.1530
  186DOPC   C3522928  -0.035   3.457   4.643  0.1615 -0.5709  0.3271
  186DOPC   H5X22929   0.070   3.423   4.634  0.2382 -0.7067  1.5900
  186DOPC   H5Y22930  -0.101   3.369   4.660 -1.7366  0.3770 -1.5929
  186DOPC   C3622931  -0.041   3.560   4.756  0.7107 -0.2151  0.0402
  186DOPC   H6X22932   0.005   3.654   4.720 -1.2266  0.9893  0.5173
  186DOPC   H6Y22933  -0.146   3.595   4.768  1.5937  3.8424 -2.2282
  186DOPC   C3722934   0.031   3.527   4.886  0.2273  0.1966  0.2961
  186DOPC   H7X22935   0.114   3.456   4.867 -0.6043 -1.0681  1.1882
  186DOPC   H7Y22936   0.067   3.615   4.944 -3.2225  1.6713  0.4713
  186DOPC   C3822937  -0.067   3.455   4.981  0.6195 -0.5182 -0.2768
  186DOPC   H8X22938  -0.101   3.360   4.936  2.0088 -1.9719  1.5714
  186DOPC   H8Y22939  -0.157   3.519   4.998  0.4855 -0.7863  0.0550
  186DOPC   C3922940  -0.009   3.408   5.111 -0.5292 -0.1343  0.3951
  186DOPC   H9X22941   0.082   3.347   5.100 -0.9996 -0.5698 -1.5093
  186DOPC  C31022942  -0.065   3.409   5.231 -0.0004  0.2999  0.4080
  186DOPC  H10X22943  -0.002   3.369   5.312  0.3555 -2.0929 -0.9428
  186DOPC  C31122944  -0.199   3.479   5.262  0.3747 -0.0490 -0.0162
  186DOPC  H11X22945  -0.252   3.426   5.344 -0.3988  0.5574 -0.1112
  186DOPC  H11Y22946  -0.271   3.474   5.178  0.9093  0.5375 -0.5178
  186DOPC  C31222947  -0.181   3.628   5.298  0.4725  0.1385  0.2372
  186DOPC  H12X22948  -0.280   3.663   5.336  0.3656  0.3069 -0.1890
  186DOPC  H12Y22949  -0.168   3.692   5.208  0.5578 -1.2190 -0.7509
  186DOPC  C31322950  -0.081   3.659   5.419  0.4523  0.2936  0.7832
  186DOPC  H13X22951   0.022   3.628   5.391  0.3118  0.8219 -0.3670
  186DOPC  H13Y22952  -0.083   3.768   5.440  0.4032  0.7670 -1.4369
  186DOPC  C31422953  -0.127   3.572   5.541  0.0122 -0.5468 -0.4158
  186DOPC  H14X22954  -0.237   3.585   5.550  0.4319  2.6428  1.5193
  186DOPC  H14Y22955  -0.101   3.469   5.507  0.3413 -0.8740  0.7750
  186DOPC  C31522956  -0.057   3.597   5.671 -0.1566 -0.2737 -0.1544
  186DOPC  H15X22957  -0.028   3.703   5.687 -0.1232 -0.6369  2.7354
  186DOPC  H15Y22958   0.042   3.547   5.669 -0.0558 -0.3907  2.8524
  186DOPC  C31622959  -0.130   3.549   5.793 -0.5318  0.5888  0.0064
  186DOPC  H16X22960  -0.223   3.607   5.814  0.8209  3.0291 -0.4355
  186DOPC  H16Y22961  -0.160   3.443   5.779 -2.8144  1.0438  0.9180
  186DOPC  C31722962  -0.043   3.552   5.921  0.3130 -0.8626  0.0870
  186DOPC  H17X22963   0.002   3.653   5.934 -0.9910 -0.4253  1.4856
  186DOPC  H17Y22964  -0.108   3.544   6.011 -1.9180  1.4522 -1.1920
  186DOPC  C31822965   0.072   3.456   5.930  0.1649  0.3125  0.6439
  186DOPC  H18X22966   0.048   3.349   5.911  0.4801  0.3413  0.0816
  186DOPC  H18Y22967   0.144   3.482   5.850 -0.4591 -0.7162 -0.2781
  186DOPC  H18Z22968   0.119   3.467   6.030 -0.2943 -0.9416  1.0210
  187DOPC     N22969   5.227   1.363   3.396 -0.5937 -0.2127 -0.1613
  187DOPC   C1222970   5.143   1.236   3.423  0.0182  0.7189  0.2322
  187DOPC  H12A22971   5.187   1.180   3.504  3.1837 -1.6191 -2.7818
  187DOPC  H12B22972   5.152   1.164   3.343  0.7315  0.1226  0.8324
  187DOPC   C1322973   5.379   1.328   3.388  0.0952 -0.7254  0.3312
  187DOPC  H13A22974   5.396   1.242   3.324  1.1070  0.9521 -1.7791
  187DOPC  H13B22975   5.443   1.411   3.363 -1.4403  0.8468  1.4110
  187DOPC  H13C22976   5.421   1.299   3.483  1.0233  0.9404  0.4620
  187DOPC   C1422977   5.205   1.462   3.504 -0.3833  0.4907 -0.0564
  187DOPC  H14A22978   5.270   1.449   3.590 -0.6007  0.4027  0.0952
  187DOPC  H14B22979   5.228   1.563   3.475  0.6099  0.5148  0.7469
  187DOPC  H14C22980   5.100   1.474   3.526 -0.0588  1.1654  1.2640
  187DOPC   C1522981   5.189   1.416   3.260  0.3243  0.2220 -0.6022
  187DOPC  H15A22982   5.207   1.341   3.185  0.9386 -0.7164  0.4477
  187DOPC  H15B22983   5.257   1.494   3.230 -1.6334  1.9968 -0.6201
  187DOPC  H15C22984   5.090   1.458   3.257  1.2720  2.5456 -1.2007
  187DOPC   C1122985   4.992   1.256   3.440  0.8689  0.3264 -0.4527
  187DOPC  H11A22986   4.945   1.165   3.482 -0.9931  0.7640 -1.4767
  187DOPC  H11B22987   4.972   1.338   3.512 -0.3323 -0.2911 -0.0565
  187DOPC     P22988   4.778   1.323   3.319 -0.2168 -0.1861 -0.5168
  187DOPC   O1322989   4.714   1.239   3.219  0.3753  0.0793  0.7717
  187DOPC   O1422990   4.764   1.474   3.298 -0.3009 -0.1038 -0.0362
  187DOPC   O1222991   4.932   1.276   3.316  0.6338 -0.2788  0.6393
  187DOPC   O1122992   4.726   1.277   3.465  0.1549 -0.2565  0.1335
  187DOPC    C122993   4.663   1.374   3.552 -0.3435  0.2182  0.4073
  187DOPC    HA22994   4.556   1.346   3.566 -0.0679 -0.2048  1.9068
  187DOPC    HB22995   4.664   1.477   3.511 -0.2515  0.0715  0.0398
  187DOPC    C222996   4.731   1.381   3.695 -0.2773  0.3358 -0.8392
  187DOPC    HS22997   4.837   1.413   3.687 -0.3836  0.5161 -1.5259
  187DOPC   O2122998   4.713   1.247   3.745  0.2481  0.1840 -0.2548
  187DOPC   C2122999   4.824   1.191   3.795 -0.1924  0.0006 -0.1561
  187DOPC   O2223000   4.925   1.256   3.816 -0.6813 -0.1214  0.1412
  187DOPC   C2223001   4.814   1.043   3.823  0.0522  0.3421 -0.1275
  187DOPC   H2R23002   4.823   1.002   3.720  0.2846  0.9266 -0.3435
  187DOPC   H2S23003   4.711   1.031   3.863  0.2064  0.0634  0.1960
  187DOPC    C323004   4.651   1.462   3.795 -0.0499 -0.8925 -0.3065
  187DOPC    HX23005   4.557   1.406   3.818  0.3518 -2.3626 -2.0171
  187DOPC    HY23006   4.619   1.555   3.744  0.7080 -0.3884  0.1154
  187DOPC   O3123007   4.726   1.503   3.908 -0.5168  0.0494  0.3157
  187DOPC   C3123008   4.670   1.491   4.023 -0.1657  0.2179 -0.3961
  187DOPC   O3223009   4.558   1.450   4.043 -0.0010  0.2814  0.0737
  187DOPC   C3223010   4.768   1.545   4.129 -0.1288  0.3066  0.3329
  187DOPC   H2X23011   4.852   1.601   4.084 -0.4741 -0.5259 -1.4149
  187DOPC   H2Y23012   4.707   1.614   4.191 -2.2494  1.7813 -3.1262
  187DOPC   C2323013   4.911   0.983   3.920  0.0462  0.1866 -0.3569
  187DOPC   H3R23014   4.889   1.029   4.019  0.0474 -2.0848  0.7839
  187DOPC   H3S23015   5.016   1.005   3.890 -0.8398  1.6747 -2.6365
  187DOPC   C2423016   4.876   0.836   3.939  0.0938 -0.0306 -0.0446
  187DOPC   H4R23017   4.883   0.776   3.846  0.9165 -2.7819  1.6696
  187DOPC   H4S23018   4.769   0.831   3.971 -0.0163  0.7540 -0.2601
  187DOPC   C2523019   4.964   0.767   4.042  0.2156  0.0444  0.1795
  187DOPC   H5R23020   5.071   0.784   4.017 -0.0991  2.6866  0.2662
  187DOPC   H5S23021   4.947   0.661   4.016  1.1240 -0.7021  2.4438
  187DOPC   C2623022   4.946   0.811   4.183  0.3857 -0.5842 -0.3082
  187DOPC   H6R23023   4.843   0.849   4.200  0.9307  1.0849 -0.5683
  187DOPC   H6S23024   5.011   0.896   4.213  0.4920 -1.2874  1.6107
  187DOPC   C2723025   4.967   0.691   4.286 -0.3307  0.3484  0.1191
  187DOPC   H7R23026   4.903   0.602   4.267 -1.1295  0.9637 -0.1045
  187DOPC   H7S23027   4.919   0.720   4.382  0.0865  0.7356  0.2095
  187DOPC   C2823028   5.109   0.650   4.309 -0.5869  0.1256 -0.2854
  187DOPC   H8R23029   5.167   0.735   4.353  0.1891 -0.3762 -0.3315
  187DOPC   H8S23030   5.158   0.639   4.210 -0.1285  1.7917 -0.2718
  187DOPC   C2923031   5.115   0.531   4.395  0.3900 -0.0533 -0.2783
  187DOPC   H9R23032   5.096   0.438   4.340 -1.8285  0.5686 -0.6708
  187DOPC  C21023033   5.171   0.516   4.514  0.9712  0.2049 -0.4831
  187DOPC  H10R23034   5.141   0.416   4.548 -2.9545  0.8553 -1.4987
  187DOPC  C21123035   5.216   0.617   4.618  0.7171  0.5263 -0.0537
  187DOPC  H11R23036   5.157   0.712   4.620  0.1629  0.1869 -0.0949
  187DOPC  H11S23037   5.323   0.644   4.606  0.5636  0.2285 -2.9756
  187DOPC  C21223038   5.198   0.565   4.763  0.7882 -0.0273  0.3566
  187DOPC  H12R23039   5.248   0.467   4.772  0.7623 -0.3172 -2.1123
  187DOPC  H12S23040   5.090   0.548   4.785  0.7293 -1.5996 -0.9933
  187DOPC  C21323041   5.246   0.666   4.869 -0.0023 -0.3735 -0.3053
  187DOPC  H13R23042   5.201   0.764   4.844 -1.6523 -0.9888  0.1068
  187DOPC  H13S23043   5.357   0.674   4.870 -0.1239  1.6429 -0.0501
  187DOPC  C21423044   5.194   0.625   5.006 -0.2965 -0.5465 -0.2626
  187DOPC  H14R23045   5.224   0.523   5.037 -0.2116 -1.2217 -2.4504
  187DOPC  H14S23046   5.083   0.635   5.013 -0.5880 -2.6421 -1.2629
  187DOPC  C21523047   5.252   0.712   5.118 -0.4010 -0.5531  0.2989
  187DOPC  H15R23048   5.231   0.815   5.082 -1.1014  0.2933  2.8913
  187DOPC  H15S23049   5.360   0.693   5.133  0.1045  0.7048 -1.4906
  187DOPC  C21623050   5.189   0.691   5.257  0.0345 -0.8520  0.1330
  187DOPC  H16R23051   5.206   0.587   5.292  0.2022 -0.9121 -0.1218
  187DOPC  H16S23052   5.078   0.703   5.258  0.2577  1.7136  0.5138
  187DOPC  C21723053   5.257   0.797   5.354 -0.0220  0.7181  1.0185
  187DOPC  H17R23054   5.230   0.895   5.308  0.1867 -0.0239 -0.7481
  187DOPC  H17S23055   5.366   0.778   5.344 -0.1185  0.0192  1.2544
  187DOPC  C21823056   5.220   0.783   5.502  0.3223 -0.0054  0.1231
  187DOPC  H18R23057   5.252   0.864   5.571 -1.4259 -1.1607  2.4452
  187DOPC  H18S23058   5.284   0.700   5.540 -0.2984 -1.1217 -1.1910
  187DOPC  H18T23059   5.113   0.762   5.522 -0.8050  3.6978 -1.2037
  187DOPC   C3323060   4.822   1.425   4.211  0.2712 -0.1510  0.2913
  187DOPC   H3X23061   4.860   1.339   4.153  0.4660  0.2584 -0.2010
  187DOPC   H3Y23062   4.740   1.395   4.279  0.8146 -0.5693  0.7781
  187DOPC   C3423063   4.942   1.453   4.300  0.3994 -0.6934 -0.0722
  187DOPC   H4X23064   4.928   1.546   4.359  0.2822 -0.0221 -1.1336
  187DOPC   H4Y23065   5.032   1.486   4.242 -0.1176  1.0667  0.0551
  187DOPC   C3523066   4.978   1.331   4.385 -0.8391  0.1639  0.0369
  187DOPC   H5X23067   5.081   1.302   4.355 -1.6336 -1.5673 -1.1581
  187DOPC   H5Y23068   4.913   1.247   4.352  1.1651 -0.7963 -1.7091
  187DOPC   C3623069   4.978   1.346   4.539  0.2544  0.4490  0.2545
  187DOPC   H6X23070   4.884   1.405   4.550 -0.3965 -0.8329  1.9755
  187DOPC   H6Y23071   4.961   1.246   4.585 -1.6866  1.2436  1.4072
  187DOPC   C3723072   5.091   1.423   4.604  0.4035  0.6707  0.1669
  187DOPC   H7X23073   5.192   1.408   4.559  0.1604  1.8619 -0.8441
  187DOPC   H7Y23074   5.073   1.529   4.574  0.7926  0.1647 -2.0119
  187DOPC   C3823075   5.096   1.404   4.760  0.9270  0.1358  0.0387
  187DOPC   H8X23076   5.197   1.443   4.787  0.4973  0.5235  1.1146
  187DOPC   H8Y23077   5.099   1.295   4.783  2.1348  0.1284 -0.0694
  187DOPC   C3923078   4.978   1.479   4.819 -0.2114 -0.2875  0.4853
  187DOPC   H9X23079   4.879   1.469   4.772 -0.0135 -1.9413  0.3584
  187DOPC  C31023080   4.990   1.555   4.931  0.1537  1.0211 -0.8512
  187DOPC  H10X23081   4.902   1.616   4.957 -0.5771  0.3090 -1.6089
  187DOPC  C31123082   5.113   1.586   5.009 -0.7149 -0.5693  0.4698
  187DOPC  H11X23083   5.096   1.689   5.048  0.1449 -0.1522 -0.2243
  187DOPC  H11Y23084   5.196   1.596   4.936 -0.1968 -1.0788  0.9805
  187DOPC  C31223085   5.136   1.494   5.130 -0.4152 -0.1055 -0.2271
  187DOPC  H12X23086   5.167   1.394   5.092  1.3375  0.3525 -0.0827
  187DOPC  H12Y23087   5.033   1.493   5.172 -1.0739  1.4476 -1.7105
  187DOPC  C31323088   5.252   1.541   5.223  0.1112  0.4601  0.0853
  187DOPC  H13X23089   5.350   1.540   5.170 -0.0830 -0.1328 -0.2764
  187DOPC  H13Y23090   5.235   1.644   5.261 -0.6985 -0.3108  1.9140
  187DOPC  C31423091   5.243   1.449   5.349  0.8316  0.4478  1.0882
  187DOPC  H14X23092   5.135   1.439   5.376  0.3277 -0.1493 -1.0032
  187DOPC  H14Y23093   5.285   1.349   5.326 -0.0401  0.3176 -0.0198
  187DOPC  C31523094   5.337   1.500   5.459 -0.3304  0.6099 -0.0427
  187DOPC  H15X23095   5.311   1.602   5.495 -0.7604  1.4115 -2.4940
  187DOPC  H15Y23096   5.434   1.509   5.407  0.5247  0.2688  1.4308
  187DOPC  C31623097   5.352   1.412   5.576  0.3249 -0.4850 -0.0851
  187DOPC  H16X23098   5.268   1.417   5.648  0.2824  1.1215 -0.2236
  187DOPC  H16Y23099   5.353   1.306   5.541  1.3886 -0.1855 -1.0128
  187DOPC  C31723100   5.477   1.430   5.660  0.2660 -0.1118 -0.0921
  187DOPC  H17X23101   5.549   1.375   5.596 -2.3684 -1.2708 -2.2688
  187DOPC  H17Y23102   5.498   1.539   5.661  0.8748 -0.1821 -1.6313
  187DOPC  C31823103   5.475   1.383   5.802 -0.3662 -0.2471 -0.0307
  187DOPC  H18X23104   5.562   1.406   5.867 -0.5224 -1.7667  0.7520
  187DOPC  H18Y23105   5.385   1.425   5.851 -1.5331 -1.1272 -1.3361
  187DOPC  H18Z23106   5.466   1.272   5.804 -0.7835 -0.2468 -1.0815
  188DOPC     N23107   1.852   3.033   4.063  0.0044  0.0005 -0.1357
  188DOPC   C1223108   1.847   2.892   4.118 -0.3117 -0.4458  0.5785
  188DOPC  H12A23109   1.921   2.877   4.196 -0.4573  0.9355  1.0049
  188DOPC  H12B23110   1.887   2.824   4.044 -1.2543  0.5094 -0.8562
  188DOPC   C1323111   1.990   3.081   4.029  0.1865  0.4158 -0.9463
  188DOPC  H13A23112   2.045   3.108   4.118 -0.8544 -1.1935  0.2573
  188DOPC  H13B23113   2.046   3.010   3.971 -1.3489 -1.0971 -0.6744
  188DOPC  H13C23114   1.980   3.164   3.960 -0.4519  0.2807 -1.0228
  188DOPC   C1423115   1.785   3.126   4.157  0.0715 -0.3131  0.1223
  188DOPC  H14A23116   1.682   3.098   4.176 -0.2120  0.5439 -0.0886
  188DOPC  H14B23117   1.831   3.121   4.255 -1.2398  1.1388  0.8582
  188DOPC  H14C23118   1.796   3.223   4.112 -1.5304 -0.6003 -0.9802
  188DOPC   C1523119   1.772   3.050   3.940  0.2615  0.3761  0.6279
  188DOPC  H15A23120   1.826   3.002   3.859  0.8853  2.3062 -0.1785
  188DOPC  H15B23121   1.748   3.153   3.918  0.0956  0.4705  1.2272
  188DOPC  H15C23122   1.679   3.000   3.961  0.0714  0.2499 -0.4522
  188DOPC   C1123123   1.712   2.837   4.158 -0.6794 -0.0465  0.5919
  188DOPC  H11A23124   1.718   2.739   4.211 -0.0137 -0.8762 -0.9654
  188DOPC  H11B23125   1.675   2.903   4.240  2.7563  1.5596  1.0156
  188DOPC     P23126   1.662   2.704   3.941 -0.3710 -0.3729 -0.0908
  188DOPC   O1323127   1.799   2.723   3.887  0.4728 -0.3274  0.2189
  188DOPC   O1423128   1.557   2.688   3.840  0.4617  0.2072  0.4597
  188DOPC   O1223129   1.623   2.827   4.042  0.0958  0.0005  0.9037
  188DOPC   O1123130   1.660   2.577   4.041 -0.3125  0.0079  0.2844
  188DOPC    C123131   1.539   2.506   4.066  1.1514  0.8398  0.0069
  188DOPC    HA23132   1.572   2.402   4.084  0.8938  1.2413  3.3672
  188DOPC    HB23133   1.467   2.500   3.981  3.1086 -1.5516 -1.6144
  188DOPC    C223134   1.460   2.552   4.195  0.2314 -0.0207 -0.4487
  188DOPC    HS23135   1.417   2.653   4.179 -0.6409 -0.1737  0.8038
  188DOPC   O2123136   1.547   2.555   4.301 -0.3742 -0.0393  0.1316
  188DOPC   C2123137   1.539   2.657   4.393 -0.5966  0.2235  0.0918
  188DOPC   O2223138   1.456   2.744   4.400  0.2978 -0.3316  0.1407
  188DOPC   C2223139   1.642   2.626   4.506 -0.2303  0.4077  0.2278
  188DOPC   H2R23140   1.725   2.563   4.467  0.0318  0.7318  0.2615
  188DOPC   H2S23141   1.591   2.558   4.577 -0.0958 -0.4191 -0.4534
  188DOPC    C323142   1.337   2.460   4.222 -0.2576 -0.5483 -0.2501
  188DOPC    HX23143   1.391   2.363   4.218  0.6420 -0.1393  1.2154
  188DOPC    HY23144   1.261   2.483   4.144  0.6979  0.1293 -1.0152
  188DOPC   O3123145   1.293   2.467   4.360  0.4167 -0.9909  0.1714
  188DOPC   C3123146   1.186   2.548   4.375  0.2848  0.4718  0.3326
  188DOPC   O3223147   1.111   2.585   4.287  0.7501 -0.4685 -0.1898
  188DOPC   C3223148   1.155   2.568   4.522  1.1663 -0.4477  0.0388
  188DOPC   H2X23149   1.149   2.677   4.539 -1.8695 -0.6007  0.5576
  188DOPC   H2Y23150   1.059   2.517   4.546 -1.7957  4.0914 -0.8646
  188DOPC   C2323151   1.676   2.747   4.598 -0.4617  0.2936 -0.1361
  188DOPC   H3R23152   1.581   2.758   4.655 -0.1279 -0.9728  0.7074
  188DOPC   H3S23153   1.702   2.841   4.544 -0.3085  1.3069  1.6238
  188DOPC   C2423154   1.793   2.714   4.692 -0.1022  0.2482  0.2894
  188DOPC   H4R23155   1.882   2.695   4.628 -1.5702 -1.9288 -1.2753
  188DOPC   H4S23156   1.769   2.615   4.737 -2.2551 -0.1441 -1.5101
  188DOPC   C2523157   1.818   2.800   4.808  0.3034  0.1955 -0.1153
  188DOPC   H5R23158   1.853   2.904   4.791 -0.2225  0.0677 -2.2151
  188DOPC   H5S23159   1.902   2.753   4.864  0.3660 -1.5224 -1.5533
  188DOPC   C2623160   1.698   2.805   4.903  0.6337  0.4302 -0.4827
  188DOPC   H6R23161   1.645   2.707   4.893  0.7382  0.4528 -1.2641
  188DOPC   H6S23162   1.631   2.890   4.879 -0.4296  0.0288  0.8983
  188DOPC   C2723163   1.737   2.830   5.049 -0.0354  0.7292 -0.4237
  188DOPC   H7R23164   1.746   2.940   5.062  1.0829  0.5400  0.4750
  188DOPC   H7S23165   1.831   2.774   5.067 -1.4195 -1.9589 -0.8990
  188DOPC   C2823166   1.633   2.789   5.160 -0.9579  0.3118  0.1392
  188DOPC   H8R23167   1.692   2.815   5.250  1.2369 -0.1544 -1.0828
  188DOPC   H8S23168   1.623   2.679   5.150  0.2171  0.3069 -1.4984
  188DOPC   C2923169   1.496   2.860   5.149 -0.5569 -0.2959  0.4000
  188DOPC   H9R23170   1.434   2.825   5.065 -2.9065 -0.7703  2.2084
  188DOPC  C21023171   1.459   2.972   5.214 -0.5223 -0.0197  0.5122
  188DOPC  H10R23172   1.354   3.004   5.201 -0.5275 -0.6033 -1.0333
  188DOPC  C21123173   1.533   3.038   5.323  0.6904  0.6033  0.0755
  188DOPC  H11R23174   1.515   3.147   5.330  0.5294  0.5569  0.3892
  188DOPC  H11S23175   1.643   3.031   5.307  0.6975 -0.8760  0.5796
  188DOPC  C21223176   1.510   2.977   5.465 -0.4536  0.0642  0.3729
  188DOPC  H12R23177   1.542   2.872   5.479  0.2917  0.3573  0.9181
  188DOPC  H12S23178   1.403   2.995   5.490  0.2220  1.4245  2.4369
  188DOPC  C21323179   1.586   3.061   5.570  0.2659  0.9895 -0.1810
  188DOPC  H13R23180   1.552   3.165   5.589 -1.8860  0.0049  1.8737
  188DOPC  H13S23181   1.695   3.056   5.547 -0.0504 -1.1702 -1.5917
  188DOPC  C21423182   1.590   2.985   5.707 -0.0080  0.9940  0.4789
  188DOPC  H14R23183   1.663   2.904   5.683  2.2181  3.1189 -0.3283
  188DOPC  H14S23184   1.488   2.943   5.715  0.0173  0.4311 -1.6107
  188DOPC  C21523185   1.648   3.062   5.827 -0.1368 -0.6287 -0.8918
  188DOPC  H15R23186   1.570   3.135   5.857  1.9163  1.1919  0.3040
  188DOPC  H15S23187   1.739   3.122   5.810 -0.3656  0.2733  0.8354
  188DOPC  C21623188   1.664   2.965   5.950 -0.1286 -0.1400 -0.2952
  188DOPC  H16R23189   1.567   2.917   5.974 -0.9075  1.6045  0.1424
  188DOPC  H16S23190   1.698   3.023   6.038 -0.6638  1.0826 -0.8702
  188DOPC  C21723191   1.783   2.866   5.934  0.2735 -0.0610  0.3080
  188DOPC  H17R23192   1.870   2.924   5.897 -1.8725  2.4071 -1.2707
  188DOPC  H17S23193   1.763   2.789   5.856  2.1229  0.1240 -0.3832
  188DOPC  C21823194   1.819   2.797   6.068 -0.1540 -0.2278  0.3201
  188DOPC  H18R23195   1.920   2.753   6.063 -0.2972 -0.6326  0.9560
  188DOPC  H18S23196   1.741   2.721   6.089  0.8623 -1.0784  1.1284
  188DOPC  H18T23197   1.818   2.861   6.160  0.1473  1.9046 -1.0780
  188DOPC   C3323198   1.259   2.522   4.624  0.6075  0.1731  0.6983
  188DOPC   H3X23199   1.361   2.551   4.592  0.5938  1.2958  1.6260
  188DOPC   H3Y23200   1.264   2.412   4.612  1.9882  0.0614  1.9052
  188DOPC   C3423201   1.235   2.571   4.765  0.7276 -0.2297 -0.7645
  188DOPC   H4X23202   1.147   2.536   4.823 -0.7714  1.3094 -1.9962
  188DOPC   H4Y23203   1.223   2.681   4.767  1.2794 -0.1633  0.8418
  188DOPC   C3523204   1.362   2.535   4.846  0.0940 -0.6885  0.0510
  188DOPC   H5X23205   1.439   2.601   4.801  0.2617 -2.5329 -2.6360
  188DOPC   H5Y23206   1.382   2.428   4.823  0.2901 -0.4370 -1.0279
  188DOPC   C3623207   1.333   2.549   4.993  0.5597 -0.2252  0.2743
  188DOPC   H6X23208   1.336   2.654   5.029  1.5506 -0.6729  1.5951
  188DOPC   H6Y23209   1.229   2.517   5.015  0.0633  0.6279 -0.7404
  188DOPC   C3723210   1.426   2.462   5.086 -0.2693  0.1172  0.3266
  188DOPC   H7X23211   1.428   2.354   5.060  0.3547  0.3058 -0.4520
  188DOPC   H7Y23212   1.529   2.497   5.067  0.0186 -0.8666  0.0217
  188DOPC   C3823213   1.386   2.469   5.235 -0.5049 -0.1962 -0.3664
  188DOPC   H8X23214   1.280   2.437   5.240 -0.3322 -0.7265 -0.0053
  188DOPC   H8Y23215   1.383   2.576   5.265 -1.3462 -0.6284  1.2174
  188DOPC   C3923216   1.460   2.377   5.325 -0.2568  0.3364  0.7793
  188DOPC   H9X23217   1.493   2.280   5.284 -0.5148 -0.2229  1.8566
  188DOPC  C31023218   1.520   2.415   5.437 -0.0547 -0.1549 -0.3234
  188DOPC  H10X23219   1.572   2.338   5.495 -2.7293 -1.5531  0.3881
  188DOPC  C31123220   1.511   2.542   5.519  0.3585 -0.1041 -0.5518
  188DOPC  H11X23221   1.427   2.596   5.471 -0.9921 -0.7117  1.0391
  188DOPC  H11Y23222   1.604   2.601   5.505  0.8301 -0.9813 -1.2121
  188DOPC  C31223223   1.476   2.511   5.665 -0.4449 -0.4214 -0.2421
  188DOPC  H12X23224   1.557   2.449   5.710  0.3975 -0.3903 -1.6606
  188DOPC  H12Y23225   1.384   2.448   5.665 -0.7706  0.0530 -0.8810
  188DOPC  C31323226   1.451   2.643   5.751  0.3285 -0.1729 -0.1472
  188DOPC  H13X23227   1.530   2.716   5.724  0.6794 -0.7876 -0.8345
  188DOPC  H13Y23228   1.358   2.696   5.722 -0.4502 -0.8017  1.1161
  188DOPC  C31423229   1.464   2.620   5.902  0.4192  0.4084 -0.1912
  188DOPC  H14X23230   1.571   2.597   5.923 -0.3402 -1.8033  1.7400
  188DOPC  H14Y23231   1.438   2.712   5.959  1.2827  0.1277  0.6913
  188DOPC  C31523232   1.379   2.509   5.958  0.2812  0.3067 -0.5158
  188DOPC  H15X23233   1.409   2.411   5.915  2.0261  0.7769 -0.4791
  188DOPC  H15Y23234   1.278   2.529   5.918 -0.2420 -1.8141 -0.3751
  188DOPC  C31623235   1.371   2.492   6.110  0.4220  1.1110 -0.1818
  188DOPC  H16X23236   1.351   2.585   6.167  2.4458  0.0142  2.5333
  188DOPC  H16Y23237   1.289   2.420   6.127  1.7762 -0.0506  1.9199
  188DOPC  C31723238   1.504   2.435   6.168  0.0524 -0.1447  0.3624
  188DOPC  H17X23239   1.531   2.347   6.106  1.3792  0.5667 -0.1030
  188DOPC  H17Y23240   1.581   2.513   6.151  1.7814 -2.3539 -3.0053
  188DOPC  C31823241   1.484   2.396   6.316 -0.1673 -0.3620  0.5377
  188DOPC  H18X23242   1.579   2.359   6.362 -0.1426 -0.2178  0.6043
  188DOPC  H18Y23243   1.459   2.483   6.380 -0.3633  1.1897 -1.5495
  188DOPC  H18Z23244   1.419   2.306   6.312 -1.2980  0.4560  0.0316
  189DOPC     N23245   3.490   2.009   3.293  0.1020 -0.1229 -0.3600
  189DOPC   C1223246   3.508   1.899   3.407  0.2612 -0.7191 -0.0968
  189DOPC  H12A23247   3.604   1.853   3.385  0.3766  0.0679 -1.3299
  189DOPC  H12B23248   3.435   1.822   3.384 -0.3343  0.0863 -0.9690
  189DOPC   C1323249   3.599   2.105   3.312  0.1003 -0.4447 -0.5302
  189DOPC  H13A23250   3.582   2.174   3.394 -3.1866  0.7691 -2.0831
  189DOPC  H13B23251   3.699   2.066   3.324  0.8762  1.2179 -1.3745
  189DOPC  H13C23252   3.601   2.183   3.238  0.8869  0.1235  0.0664
  189DOPC   C1423253   3.355   2.068   3.307  0.4406 -0.1089  0.1218
  189DOPC  H14A23254   3.354   2.118   3.403 -1.7004  2.9782 -1.3376
  189DOPC  H14B23255   3.345   2.148   3.235 -0.8448 -0.9542 -0.6715
  189DOPC  H14C23256   3.276   1.997   3.289 -0.9097  0.5765  2.7157
  189DOPC   C1523257   3.497   1.934   3.159  0.1697  0.0650 -0.2569
  189DOPC  H15A23258   3.418   1.862   3.140 -0.1237  1.1868 -3.9447
  189DOPC  H15B23259   3.587   1.875   3.156  1.6876  2.1745  0.9335
  189DOPC  H15C23260   3.500   2.011   3.083 -2.3267  2.8031  2.1539
  189DOPC   C1123261   3.496   1.941   3.555 -0.5547  0.1461 -0.2115
  189DOPC  H11A23262   3.542   1.862   3.617  1.2489  1.2375 -0.1026
  189DOPC  H11B23263   3.548   2.037   3.575 -0.8003  0.0773  0.7975
  189DOPC     P23264   3.306   1.971   3.728 -0.4171  0.2699  0.0403
  189DOPC   O1323265   3.269   1.836   3.779  0.4562  0.5247  0.4644
  189DOPC   O1423266   3.199   2.070   3.732 -0.0965  0.4102 -0.3505
  189DOPC   O1223267   3.360   1.958   3.581  0.4781  0.2854  0.1238
  189DOPC   O1123268   3.428   2.018   3.809 -0.0045 -0.3979 -0.0863
  189DOPC    C123269   3.510   1.941   3.900  0.2863  0.0937 -0.7281
  189DOPC    HA23270   3.605   1.998   3.891 -0.9384  2.2394 -0.5640
  189DOPC    HB23271   3.532   1.838   3.863  1.4281 -0.0186  0.1878
  189DOPC    C223272   3.442   1.939   4.039  0.2035  0.0209  0.0201
  189DOPC    HS23273   3.340   1.896   4.036  0.0371 -0.0567  3.0940
  189DOPC   O2123274   3.448   2.074   4.099  0.5797 -0.3396 -0.1448
  189DOPC   C2123275   3.353   2.104   4.184  0.0201 -0.2655 -0.0281
  189DOPC   O2223276   3.257   2.030   4.203 -0.5911 -0.3544  0.0966
  189DOPC   C2223277   3.369   2.249   4.227 -0.3570  0.3966  0.2072
  189DOPC   H2R23278   3.409   2.304   4.139 -0.0332 -1.3377 -0.7864
  189DOPC   H2S23279   3.450   2.257   4.303 -2.3083 -0.2119  2.4724
  189DOPC    C323280   3.524   1.843   4.132  0.3387  0.2522 -0.1660
  189DOPC    HX23281   3.519   1.752   4.070  0.5335  1.0125 -1.3339
  189DOPC    HY23282   3.473   1.815   4.227 -0.2544 -0.1970 -0.6073
  189DOPC   O3123283   3.657   1.880   4.146  0.4253 -0.1033 -0.2601
  189DOPC   C3123284   3.695   1.919   4.259  0.2390 -0.1309 -0.5527
  189DOPC   O3223285   3.628   1.932   4.361  0.0210 -0.0935  0.3858
  189DOPC   C3223286   3.839   1.969   4.243  0.3864  0.1694 -0.2625
  189DOPC   H2X23287   3.847   2.020   4.144 -0.7980  0.4736 -0.2265
  189DOPC   H2Y23288   3.859   2.045   4.321 -1.7259 -0.2818  0.7866
  189DOPC   C2323289   3.236   2.314   4.278  0.4489 -0.2432 -0.4092
  189DOPC   H3R23290   3.144   2.253   4.266 -1.2229  2.2413 -0.8636
  189DOPC   H3S23291   3.226   2.402   4.210 -1.1399 -0.8127 -0.9557
  189DOPC   C2423292   3.239   2.362   4.428  0.4802 -0.3061 -0.0108
  189DOPC   H4R23293   3.152   2.431   4.437  0.9861  0.3469 -0.0514
  189DOPC   H4S23294   3.324   2.433   4.440  0.6047 -0.2829 -0.9519
  189DOPC   C2523295   3.243   2.254   4.535  0.1000 -0.1223 -0.6055
  189DOPC   H5R23296   3.332   2.188   4.518  1.2685  0.5350  2.2615
  189DOPC   H5S23297   3.154   2.192   4.515  0.2423 -0.0224 -1.5787
  189DOPC   C2623298   3.238   2.310   4.677  0.2864  0.1690 -0.7708
  189DOPC   H6R23299   3.278   2.238   4.752  0.9376  0.7914 -0.5072
  189DOPC   H6S23300   3.134   2.338   4.700  0.1507  1.0991 -2.3777
  189DOPC   C2723301   3.344   2.417   4.685  0.0699  0.3089 -0.1407
  189DOPC   H7R23302   3.298   2.507   4.639 -0.9661 -0.0384  0.1848
  189DOPC   H7S23303   3.438   2.378   4.639  0.5162  0.0272  0.9746
  189DOPC   C2823304   3.375   2.444   4.842 -0.0977  0.3112 -0.5265
  189DOPC   H8R23305   3.470   2.501   4.847  1.9453 -2.7589 -1.4753
  189DOPC   H8S23306   3.390   2.341   4.883  1.3364 -0.2469 -2.3007
  189DOPC   C2923307   3.267   2.519   4.913  0.2752  0.7515  0.7099
  189DOPC   H9R23308   3.237   2.618   4.876 -1.6481  0.4898  1.4485
  189DOPC  C21023309   3.205   2.475   5.028  0.8842 -0.0118 -0.1772
  189DOPC  H10R23310   3.132   2.539   5.079  0.6055 -1.2249  1.0171
  189DOPC  C21123311   3.218   2.348   5.105  0.0591 -0.2562 -0.1670
  189DOPC  H11R23312   3.283   2.272   5.055  1.2796  0.1887  0.6865
  189DOPC  H11S23313   3.119   2.298   5.115 -0.1173  0.2051  0.4403
  189DOPC  C21223314   3.261   2.347   5.257  0.5990 -0.3650 -0.4550
  189DOPC  H12R23315   3.369   2.371   5.264  0.7236 -0.4288 -1.8599
  189DOPC  H12S23316   3.243   2.244   5.294 -0.8624 -1.3634 -3.6173
  189DOPC  C21323317   3.175   2.439   5.339 -0.4387 -0.6172  0.8743
  189DOPC  H13R23318   3.071   2.407   5.361 -0.3113 -0.9374  1.0271
  189DOPC  H13S23319   3.189   2.542   5.300  1.4578 -0.8807  0.7315
  189DOPC  C21423320   3.235   2.445   5.485  0.4043  0.7637 -0.4257
  189DOPC  H14R23321   3.165   2.501   5.551  1.1742  1.5348 -0.2423
  189DOPC  H14S23322   3.325   2.510   5.486  1.7129 -0.8986 -2.3160
  189DOPC  C21523323   3.251   2.311   5.560 -0.4435 -0.0105 -0.0089
  189DOPC  H15R23324   3.327   2.253   5.504  0.6521  1.3618  0.0016
  189DOPC  H15S23325   3.155   2.254   5.560 -0.6499  0.3173  0.6846
  189DOPC  C21623326   3.295   2.318   5.700  0.0101 -0.2015  0.0136
  189DOPC  H16R23327   3.296   2.213   5.734 -1.0801 -0.7385 -1.4999
  189DOPC  H16S23328   3.226   2.377   5.765  0.0252  0.6614 -0.7237
  189DOPC  C21723329   3.440   2.377   5.713 -0.2120 -0.0183 -0.6742
  189DOPC  H17R23330   3.422   2.485   5.696 -1.7339  0.3625  2.6149
  189DOPC  H17S23331   3.496   2.315   5.639 -0.6329 -0.3947 -0.6821
  189DOPC  C21823332   3.506   2.355   5.852  0.1733 -0.2197  0.4277
  189DOPC  H18R23333   3.491   2.251   5.889  0.0170 -0.2170  0.3749
  189DOPC  H18S23334   3.467   2.420   5.932  1.3050  3.2891 -1.6503
  189DOPC  H18T23335   3.614   2.380   5.851  0.1187 -0.0008  0.0162
  189DOPC   C3323336   3.948   1.860   4.261  0.3436 -0.1513  0.5360
  189DOPC   H3X23337   4.044   1.915   4.264 -0.1066  0.7342 -0.9059
  189DOPC   H3Y23338   3.947   1.806   4.164 -0.5769  2.7009 -1.1334
  189DOPC   C3423339   3.937   1.768   4.378 -0.0213 -1.2362 -0.0731
  189DOPC   H4X23340   4.013   1.687   4.378  3.4353  1.7247 -2.5972
  189DOPC   H4Y23341   3.844   1.706   4.378 -0.4837 -0.5671 -1.3503
  189DOPC   C3523342   3.943   1.850   4.507  0.5324 -0.0120 -0.7399
  189DOPC   H5X23343   3.848   1.823   4.557  0.9069  0.6918  0.3953
  189DOPC   H5Y23344   3.924   1.959   4.497  1.8523  0.5251  1.7086
  189DOPC   C3623345   4.066   1.815   4.592  0.3916  0.2938  0.3318
  189DOPC   H6X23346   4.065   1.704   4.598  3.0078  0.1865 -0.0386
  189DOPC   H6Y23347   4.158   1.852   4.543 -0.2755 -0.1031 -1.2714
  189DOPC   C3723348   4.066   1.879   4.733  0.7859  0.4118  0.1050
  189DOPC   H7X23349   4.170   1.875   4.769 -0.0836 -1.7837  2.6180
  189DOPC   H7Y23350   4.051   1.989   4.718  0.0404  0.3603  0.3996
  189DOPC   C3823351   3.954   1.845   4.845 -0.2764  0.2677  0.0574
  189DOPC   H8X23352   3.854   1.828   4.799 -0.7224 -1.7050  1.6181
  189DOPC   H8Y23353   3.948   1.921   4.925  0.1044  0.8164 -0.4280
  189DOPC   C3923354   4.011   1.716   4.900 -0.0680 -0.5450  0.3300
  189DOPC   H9X23355   3.994   1.623   4.844  0.5452 -0.8129  0.5854
  189DOPC  C31023356   4.077   1.698   5.021 -0.0420  0.3346 -0.6467
  189DOPC  H10X23357   4.117   1.598   5.041  0.6386  1.0426  1.8140
  189DOPC  C31123358   4.127   1.804   5.117 -0.4774  0.6233  0.3433
  189DOPC  H11X23359   4.143   1.901   5.064 -0.1764  0.3419 -0.0888
  189DOPC  H11Y23360   4.228   1.775   5.153 -1.0116 -0.1200  1.2605
  189DOPC  C31223361   4.039   1.838   5.238 -0.0245 -0.6188  0.0947
  189DOPC  H12X23362   3.961   1.761   5.254  0.7299 -1.4062  0.0307
  189DOPC  H12Y23363   3.985   1.934   5.221  0.9298 -0.1367 -0.2911
  189DOPC  C31323364   4.115   1.853   5.368  0.2872  0.4034  0.1284
  189DOPC  H13X23365   4.192   1.930   5.347 -2.4637  3.2920 -0.2617
  189DOPC  H13Y23366   4.060   1.912   5.445 -1.0478  1.0148 -1.2382
  189DOPC  C31423367   4.195   1.743   5.427  0.0665  0.8179  0.0250
  189DOPC  H14X23368   4.244   1.683   5.347  1.9148  2.7382 -0.3910
  189DOPC  H14Y23369   4.280   1.780   5.489  0.6729  1.0288 -0.8956
  189DOPC  C31523370   4.107   1.645   5.516 -0.1470 -0.2602 -0.4073
  189DOPC  H15X23371   4.035   1.597   5.447 -1.0383  0.7824 -0.2296
  189DOPC  H15Y23372   4.054   1.696   5.599  1.8187  1.0766  0.0940
  189DOPC  C31623373   4.179   1.530   5.597 -0.4987 -0.2770  0.1334
  189DOPC  H16X23374   4.108   1.451   5.627 -1.0197 -0.2080 -0.8753
  189DOPC  H16Y23375   4.258   1.493   5.527 -0.1981  0.3433  0.1354
  189DOPC  C31723376   4.280   1.580   5.708  0.0372 -0.4202 -0.1626
  189DOPC  H17X23377   4.328   1.490   5.753  3.3687  0.7634 -1.0647
  189DOPC  H17Y23378   4.367   1.634   5.664  1.1794  0.0117  2.4044
  189DOPC  C31823379   4.225   1.677   5.816  0.7045 -0.2112  0.5598
  189DOPC  H18X23380   4.203   1.778   5.774 -0.0794  0.2860  2.0625
  189DOPC  H18Y23381   4.131   1.639   5.862  0.3763  2.2214  2.0697
  189DOPC  H18Z23382   4.303   1.685   5.895  1.9502  0.2318 -0.6762
  190DOPC     N23383   1.141   0.394   3.757  0.6329 -0.4651 -0.2925
  190DOPC   C1223384   1.004   0.415   3.690  0.9542 -0.1964 -0.3378
  190DOPC  H12A23385   0.943   0.327   3.705  0.7823 -0.4192 -2.1746
  190DOPC  H12B23386   1.016   0.438   3.586 -0.2551 -0.4257 -0.5393
  190DOPC   C1323387   1.234   0.505   3.737  0.5379 -0.3938 -0.0165
  190DOPC  H13A23388   1.293   0.519   3.827  1.9834 -1.3378 -0.7810
  190DOPC  H13B23389   1.311   0.481   3.665 -0.9751 -1.7720 -1.2558
  190DOPC  H13C23390   1.190   0.600   3.712  2.3037  0.7582  1.0124
  190DOPC   C1423391   1.198   0.274   3.686  0.2634 -0.5611 -0.4983
  190DOPC  H14A23392   1.293   0.246   3.729  1.6144  0.8710 -2.3415
  190DOPC  H14B23393   1.124   0.196   3.693 -1.2463  0.9884  2.2747
  190DOPC  H14C23394   1.201   0.297   3.580 -0.0790  1.9246 -0.0149
  190DOPC   C1523395   1.130   0.365   3.908  0.5342  0.3853 -0.4712
  190DOPC  H15A23396   1.047   0.301   3.931  0.2161  0.9483 -0.0227
  190DOPC  H15B23397   1.114   0.459   3.959 -2.1416  0.7866 -1.9187
  190DOPC  H15C23398   1.218   0.324   3.957 -0.3746 -0.0458  0.8587
  190DOPC   C1123399   0.915   0.529   3.739  0.5912 -0.2597  0.5912
  190DOPC  H11A23400   0.974   0.621   3.722  0.0239 -0.1663 -1.0058
  190DOPC  H11B23401   0.824   0.533   3.676 -0.8856  3.8120  2.6028
  190DOPC     P23402   0.766   0.441   3.931  0.0573 -0.2894  0.0144
  190DOPC   O1323403   0.781   0.422   4.076  1.1676 -0.1034  0.2737
  190DOPC   O1423404   0.742   0.314   3.855  0.0277 -0.6383  0.3459
  190DOPC   O1223405   0.892   0.519   3.881  0.1520  0.0318 -0.3343
  190DOPC   O1123406   0.638   0.537   3.900  0.1879  0.3026  0.0924
  190DOPC    C123407   0.654   0.680   3.911 -0.0359  0.1244 -0.1773
  190DOPC    HA23408   0.578   0.735   3.851 -1.9603  0.7466  2.6179
  190DOPC    HB23409   0.753   0.723   3.887 -0.8116  0.9381 -2.0409
  190DOPC    C223410   0.627   0.717   4.057 -0.3310 -0.0559 -0.0388
  190DOPC    HS23411   0.713   0.696   4.124 -1.0027  1.1673  1.2705
  190DOPC   O2123412   0.508   0.652   4.101  0.2150  0.4117 -0.2756
  190DOPC   C2123413   0.507   0.607   4.231  0.3076  0.6242 -0.0260
  190DOPC   O2223414   0.599   0.622   4.308 -0.1680 -0.2895 -0.8227
  190DOPC   C2223415   0.368   0.548   4.266 -0.1237 -0.2785  0.3265
  190DOPC   H2R23416   0.340   0.482   4.182 -2.9140  2.4020 -1.0315
  190DOPC   H2S23417   0.287   0.624   4.269  0.1876  0.0528  0.5787
  190DOPC    C323418   0.602   0.871   4.072 -0.7614  0.2924 -0.7942
  190DOPC    HX23419   0.499   0.884   4.032 -1.6907 -0.0036  1.3708
  190DOPC    HY23420   0.670   0.930   4.006  0.8416 -0.3116  0.2591
  190DOPC   O3123421   0.604   0.906   4.216 -0.7444  0.1422 -0.0656
  190DOPC   C3123422   0.715   0.964   4.270  0.5004 -0.0948 -0.6070
  190DOPC   O3223423   0.811   1.007   4.209  0.3103  0.0056  0.1635
  190DOPC   C3223424   0.688   0.978   4.421 -0.2924 -0.3637  0.3234
  190DOPC   H2X23425   0.683   1.088   4.431 -2.2823 -0.2602 -1.2159
  190DOPC   H2Y23426   0.587   0.942   4.449  0.2253 -1.1283  1.2739
  190DOPC   C2323427   0.364   0.479   4.400  0.0462 -0.0119 -0.3934
  190DOPC   H3R23428   0.445   0.403   4.408  1.0754  1.2023  1.3712
  190DOPC   H3S23429   0.268   0.423   4.405 -0.8468  1.3470 -1.5596
  190DOPC   C2423430   0.371   0.579   4.514  0.0284 -0.1370  0.7917
  190DOPC   H4R23431   0.298   0.662   4.506  0.8111  0.5880  0.9185
  190DOPC   H4S23432   0.470   0.630   4.516 -0.2995  0.5171  0.5831
  190DOPC   C2523433   0.359   0.523   4.653  0.2630  0.3726 -0.2830
  190DOPC   H5R23434   0.411   0.426   4.668  0.1497  0.3166 -0.2506
  190DOPC   H5S23435   0.248   0.510   4.655  0.2842 -0.1274 -1.4081
  190DOPC   C2623436   0.398   0.623   4.769 -0.7510 -0.3252  0.1552
  190DOPC   H6R23437   0.354   0.578   4.861 -0.5119 -0.1210  0.3711
  190DOPC   H6S23438   0.361   0.725   4.748  0.2378 -0.2869 -1.5796
  190DOPC   C2723439   0.552   0.632   4.797  0.1184 -0.4550  0.0544
  190DOPC   H7R23440   0.613   0.658   4.708  1.4949  0.7266  1.2953
  190DOPC   H7S23441   0.583   0.525   4.810  2.5293  0.1776  0.0707
  190DOPC   C2823442   0.579   0.709   4.928 -0.7550  0.3994  0.5432
  190DOPC   H8R23443   0.682   0.695   4.966 -0.1425  2.2538 -0.3056
  190DOPC   H8S23444   0.512   0.663   5.003 -3.9166  0.7144 -1.8455
  190DOPC   C2923445   0.547   0.853   4.906  0.2320 -0.6233 -0.4142
  190DOPC   H9R23446   0.587   0.894   4.813  0.9262 -0.5822 -0.1028
  190DOPC  C21023447   0.457   0.927   4.980 -0.3921 -0.1132 -0.0935
  190DOPC  H10R23448   0.447   1.031   4.947  1.8297  0.1270 -0.2100
  190DOPC  C21123449   0.388   0.880   5.113  0.7343 -0.6167  0.2804
  190DOPC  H11R23450   0.377   0.769   5.107 -2.0223 -0.5240  1.8234
  190DOPC  H11S23451   0.283   0.916   5.111  1.3309  1.1884 -0.1983
  190DOPC  C21223452   0.465   0.901   5.243  0.0791  0.1412 -0.8640
  190DOPC  H12R23453   0.462   1.012   5.256 -0.0275  0.0342  0.0836
  190DOPC  H12S23454   0.570   0.867   5.231  0.1414 -0.7966  1.6666
  190DOPC  C21323455   0.405   0.838   5.371  0.1957 -0.3362  0.5482
  190DOPC  H13R23456   0.437   0.732   5.364  0.8704 -0.0221 -3.0459
  190DOPC  H13S23457   0.295   0.841   5.354  0.2250 -0.3714  0.3533
  190DOPC  C21423458   0.455   0.887   5.503  0.2507  0.0207 -0.0382
  190DOPC  H14R23459   0.457   0.998   5.510 -1.6524  0.0908 -0.0305
  190DOPC  H14S23460   0.562   0.858   5.511  0.1733 -0.1734  0.3418
  190DOPC  C21523461   0.375   0.811   5.612 -1.4216 -0.0542 -0.7667
  190DOPC  H15R23462   0.391   0.702   5.603  4.1563  0.3486  0.4804
  190DOPC  H15S23463   0.265   0.827   5.607 -1.6155  0.5311  2.8308
  190DOPC  C21623464   0.409   0.852   5.752 -0.4479 -0.4162 -0.4915
  190DOPC  H16R23465   0.440   0.958   5.763 -1.4152 -0.2504  0.8566
  190DOPC  H16S23466   0.487   0.789   5.801  0.0012  0.8034  0.4151
  190DOPC  C21723467   0.287   0.841   5.848 -0.5376 -0.5621 -0.0311
  190DOPC  H17R23468   0.271   0.733   5.869  1.3085 -0.9731 -0.5561
  190DOPC  H17S23469   0.197   0.893   5.807 -0.7042 -0.4487  0.4652
  190DOPC  C21823470   0.310   0.902   5.985 -0.5562  0.3672  0.0385
  190DOPC  H18R23471   0.222   0.908   6.052  0.2515  1.3295  1.0394
  190DOPC  H18S23472   0.363   0.999   5.974  1.1518 -0.3361  1.4712
  190DOPC  H18T23473   0.374   0.837   6.049  0.1531 -0.8127 -1.7807
  190DOPC   C3323474   0.783   0.892   4.506 -0.4374 -0.5206 -0.0297
  190DOPC   H3X23475   0.882   0.884   4.456 -0.8169  0.6672 -1.0263
  190DOPC   H3Y23476   0.753   0.787   4.526 -4.5192  0.7809  1.8122
  190DOPC   C3423477   0.827   0.962   4.640  0.6577  0.5849 -0.3601
  190DOPC   H4X23478   0.759   0.941   4.724  0.0070  1.9368 -0.5180
  190DOPC   H4Y23479   0.822   1.073   4.628 -0.4599  0.9358  2.5687
  190DOPC   C3523480   0.961   0.914   4.690 -0.4000  0.1111  0.0823
  190DOPC   H5X23481   1.034   0.907   4.607  0.3304 -0.4310  0.7500
  190DOPC   H5Y23482   0.953   0.808   4.722  1.0220 -0.7607 -2.2054
  190DOPC   C3623483   1.029   1.009   4.798  0.0943 -0.1204 -0.1066
  190DOPC   H6X23484   1.115   0.955   4.844 -0.5063 -1.1214 -0.1190
  190DOPC   H6Y23485   1.061   1.103   4.748  1.9142 -1.5232 -1.7183
  190DOPC   C3723486   0.944   1.040   4.929  0.1215 -0.2353  0.3284
  190DOPC   H7X23487   1.000   1.121   4.981  0.1285 -0.2657  0.3674
  190DOPC   H7Y23488   0.843   1.066   4.889  0.6826 -1.5863 -2.1643
  190DOPC   C3823489   0.929   0.908   5.010 -0.2524  0.2430 -0.0192
  190DOPC   H8X23490   1.029   0.877   5.046  0.5485  3.3941  0.8120
  190DOPC   H8Y23491   0.887   0.820   4.957  1.3906 -1.3273  1.1633
  190DOPC   C3923492   0.831   0.957   5.112 -0.6048 -0.6616  0.3701
  190DOPC   H9X23493   0.726   0.955   5.081 -0.4950 -0.3199 -0.0444
  190DOPC  C31023494   0.856   0.976   5.243 -0.9304 -0.2793 -0.3287
  190DOPC  H10X23495   0.775   1.013   5.309  0.8744  1.0042  1.3048
  190DOPC  C31123496   0.988   0.972   5.315  0.0623  0.4322  0.5547
  190DOPC  H11X23497   1.074   0.962   5.245  1.7688 -1.0947  2.7092
  190DOPC  H11Y23498   1.003   0.878   5.373  0.5229 -1.3689 -2.2927
  190DOPC  C31223499   1.020   1.087   5.413  0.1150 -0.6004  0.6136
  190DOPC  H12X23500   1.048   1.161   5.334  0.2274 -1.3246 -0.0431
  190DOPC  H12Y23501   1.111   1.054   5.467  1.0523 -1.8110 -1.5497
  190DOPC  C31323502   0.910   1.135   5.502  0.4843 -0.6466 -0.6954
  190DOPC  H13X23503   0.948   1.226   5.554 -0.9099 -0.6108  0.3098
  190DOPC  H13Y23504   0.818   1.154   5.442 -1.1635  0.0338  1.8770
  190DOPC  C31423505   0.875   1.040   5.618 -0.0268 -0.0501 -0.9179
  190DOPC  H14X23506   0.842   0.939   5.586  2.0162 -0.2898 -2.4798
  190DOPC  H14Y23507   0.974   1.025   5.666 -1.0248 -0.6940  1.0274
  190DOPC  C31523508   0.779   1.092   5.726  0.0809 -0.1564 -0.4839
  190DOPC  H15X23509   0.679   1.110   5.681  1.2570  2.1607 -2.3971
  190DOPC  H15Y23510   0.817   1.189   5.763 -1.7466  0.4295 -0.0564
  190DOPC  C31623511   0.764   0.992   5.847 -0.3706  0.1075  0.3666
  190DOPC  H16X23512   0.679   1.028   5.908 -1.6790 -3.6852  1.0555
  190DOPC  H16Y23513   0.742   0.892   5.805 -0.4228  0.9994 -1.8684
  190DOPC  C31723514   0.889   0.986   5.935 -0.8099 -1.1677  0.0924
  190DOPC  H17X23515   0.956   0.910   5.887  0.5409  0.6535 -1.0330
  190DOPC  H17Y23516   0.937   1.085   5.949 -0.9054 -0.8153 -1.8263
  190DOPC  C31823517   0.856   0.924   6.071  0.1742 -0.2833 -0.2010
  190DOPC  H18X23518   0.954   0.902   6.119  0.7797  3.6409  0.7203
  190DOPC  H18Y23519   0.806   1.001   6.134  0.9790 -1.2028  1.6379
  190DOPC  H18Z23520   0.789   0.838   6.053  0.8248 -0.7036 -0.6225
  191DOPC     N23521   4.203   6.701   3.764 -0.3984 -0.3119  0.1648
  191DOPC   C1223522   4.200   6.810   3.868 -0.1411  0.8675 -0.2622
  191DOPC  H12A23523   4.119   6.791   3.936 -0.6499 -2.4168 -1.6125
  191DOPC  H12B23524   4.182   6.905   3.821 -1.4661  0.1515 -1.2779
  191DOPC   C1323525   4.250   6.571   3.815  0.7486  0.4153  0.5076
  191DOPC  H13A23526   4.184   6.536   3.894 -2.4617 -0.2199 -2.2439
  191DOPC  H13B23527   4.230   6.494   3.742 -3.7137  0.5427  1.2898
  191DOPC  H13C23528   4.348   6.570   3.861  0.9536  0.8399  0.0861
  191DOPC   C1423529   4.304   6.744   3.659 -0.2873 -0.0119 -0.3069
  191DOPC  H14A23530   4.274   6.834   3.607  1.2507  1.2990  0.9598
  191DOPC  H14B23531   4.395   6.758   3.716 -0.5350  1.4329 -0.2269
  191DOPC  H14C23532   4.328   6.664   3.591 -3.1055 -0.8391 -0.4319
  191DOPC   C1523533   4.063   6.673   3.708 -0.2999 -0.6970  0.0597
  191DOPC  H15A23534   4.061   6.617   3.616  0.7580 -0.7171  0.0393
  191DOPC  H15B23535   4.020   6.763   3.667  1.8173 -0.1055 -0.9961
  191DOPC  H15C23536   4.005   6.616   3.779  1.6223 -1.8651  0.7649
  191DOPC   C1123537   4.335   6.834   3.949  0.7866 -0.1599 -0.4354
  191DOPC  H11A23538   4.301   6.902   4.029 -1.0042 -0.6991 -0.6867
  191DOPC  H11B23539   4.355   6.734   3.995 -2.3730  0.0350  1.6852
  191DOPC     P23540   4.457   7.036   3.848 -0.0433  0.1110 -0.1943
  191DOPC   O1323541   4.324   7.082   3.795  0.5474  0.2692 -0.1787
  191DOPC   O1423542   4.574   7.064   3.758 -0.5869 -0.2891 -0.3732
  191DOPC   O1223543   4.438   6.876   3.873  0.3934 -0.5975 -0.5273
  191DOPC   O1123544   4.471   7.103   3.992 -0.0226  0.8936  1.0119
  191DOPC    C123545   4.599   7.095   4.060 -0.2530  0.7199  0.2577
  191DOPC    HA23546   4.688   7.099   3.994  0.9708  0.7913  1.8509
  191DOPC    HB23547   4.604   6.996   4.110  0.6630  1.2267  1.2106
  191DOPC    C223548   4.593   7.210   4.167  0.3039 -0.5889 -0.4472
  191DOPC    HS23549   4.684   7.209   4.229  0.2191 -0.5964 -0.3223
  191DOPC   O2123550   4.478   7.190   4.253 -0.1946  0.0647  0.2132
  191DOPC   C2123551   4.497   7.093   4.338 -0.0165  0.3426 -0.4949
  191DOPC   O2223552   4.601   7.032   4.355  0.3963 -0.5367  0.2380
  191DOPC   C2223553   4.372   7.067   4.423 -0.6907 -0.1420  0.6362
  191DOPC   H2R23554   4.385   6.968   4.473 -0.1458 -0.0717  0.6379
  191DOPC   H2S23555   4.275   7.075   4.369 -0.4901  0.7162  0.3965
  191DOPC    C323556   4.573   7.348   4.103  0.2052 -0.3701  0.2448
  191DOPC    HX23557   4.472   7.357   4.058 -0.0540 -0.8995  0.6928
  191DOPC    HY23558   4.637   7.364   4.014 -1.6204 -1.1574 -1.2866
  191DOPC   O3123559   4.593   7.461   4.192  0.3092  0.0149  0.1866
  191DOPC   C3123560   4.497   7.510   4.259 -0.7088  0.3991 -0.4639
  191DOPC   O3223561   4.378   7.486   4.256 -0.7023  0.1264 -0.2604
  191DOPC   C3223562   4.557   7.609   4.361  0.2852 -0.3111  0.6148
  191DOPC   H2X23563   4.636   7.670   4.314  0.1704  0.2811  1.1688
  191DOPC   H2Y23564   4.477   7.675   4.402 -0.0859  1.7010 -2.9453
  191DOPC   C2323565   4.369   7.172   4.536 -0.3344 -0.0449 -0.0602
  191DOPC   H3R23566   4.280   7.151   4.599 -1.2424  1.1190 -0.9046
  191DOPC   H3S23567   4.369   7.278   4.502  0.3196 -0.1413 -0.3605
  191DOPC   C2423568   4.487   7.152   4.633 -0.0722  0.1232 -0.7211
  191DOPC   H4R23569   4.578   7.186   4.579  1.1935 -2.2564 -0.2154
  191DOPC   H4S23570   4.509   7.045   4.655 -0.4259  0.0313 -0.7984
  191DOPC   C2523571   4.464   7.221   4.769  0.1316 -0.1274 -0.3416
  191DOPC   H5R23572   4.378   7.173   4.821 -0.1534  1.7903  1.0562
  191DOPC   H5S23573   4.443   7.327   4.742  2.0559  0.4009  0.0734
  191DOPC   C2623574   4.588   7.206   4.861  0.1650  0.2519 -0.2019
  191DOPC   H6R23575   4.671   7.268   4.822 -1.2737  3.3136  1.3025
  191DOPC   H6S23576   4.633   7.107   4.838  0.5848  0.6900 -1.3424
  191DOPC   C2723577   4.557   7.236   5.010  0.7429  0.2232  0.5146
  191DOPC   H7R23578   4.637   7.195   5.076  0.1327  0.4966  1.4443
  191DOPC   H7S23579   4.471   7.171   5.037  0.5736  0.3697  0.3324
  191DOPC   C2823580   4.528   7.382   5.057  0.1059 -0.0322  1.0475
  191DOPC   H8R23581   4.467   7.389   5.150 -1.0888  0.2290  0.2589
  191DOPC   H8S23582   4.469   7.433   4.979 -0.8197  0.9181  2.3340
  191DOPC   C2923583   4.662   7.452   5.085  0.0096  0.0222  0.0415
  191DOPC   H9R23584   4.747   7.414   5.025  0.6788  0.3608  0.7484
  191DOPC  C21023585   4.691   7.555   5.167 -0.5472 -0.1328  0.3188
  191DOPC  H10R23586   4.795   7.588   5.172 -0.5123 -0.3287  1.0411
  191DOPC  C21123587   4.595   7.621   5.264  0.7175  0.1318  0.5931
  191DOPC  H11R23588   4.499   7.565   5.259 -0.2983  1.7590  1.0787
  191DOPC  H11S23589   4.585   7.730   5.243  0.7607  0.2805  1.3016
  191DOPC  C21223590   4.657   7.600   5.400  0.2530  0.6553 -0.1816
  191DOPC  H12R23591   4.585   7.634   5.478  0.5280  0.3365  0.2168
  191DOPC  H12S23592   4.747   7.663   5.414 -0.1078  1.3259 -0.8091
  191DOPC  C21323593   4.687   7.449   5.441  0.5930 -0.2329  0.2950
  191DOPC  H13R23594   4.755   7.405   5.365 -0.6796 -1.3960 -0.2159
  191DOPC  H13S23595   4.595   7.389   5.428  0.8839 -1.2767  2.6078
  191DOPC  C21423596   4.740   7.426   5.582  0.5585 -0.1516 -0.1201
  191DOPC  H14R23597   4.673   7.471   5.659 -0.8826  1.2850 -2.1215
  191DOPC  H14S23598   4.831   7.488   5.596  2.8654 -3.3741  0.3292
  191DOPC  C21523599   4.763   7.284   5.619 -0.2366 -0.6741 -0.4651
  191DOPC  H15R23600   4.837   7.241   5.549  0.3742  2.4002 -1.8404
  191DOPC  H15S23601   4.667   7.230   5.603  0.0612 -1.1931 -0.5246
  191DOPC  C21623602   4.804   7.262   5.771  0.2817  0.8461 -0.1436
  191DOPC  H16R23603   4.810   7.153   5.791 -1.9951  0.4409 -1.3119
  191DOPC  H16S23604   4.717   7.293   5.833  0.6495 -2.3050  2.1985
  191DOPC  C21723605   4.922   7.341   5.817 -0.2692  0.2911 -0.2051
  191DOPC  H17R23606   4.931   7.336   5.928  2.3158 -0.1630 -0.3771
  191DOPC  H17S23607   4.895   7.447   5.799 -0.0808  0.7436  1.8590
  191DOPC  C21823608   5.057   7.295   5.755 -0.1546  0.4241 -0.3712
  191DOPC  H18R23609   5.142   7.353   5.795  0.9642 -0.8991 -0.7468
  191DOPC  H18S23610   5.050   7.306   5.645 -3.1591  0.8203 -0.2310
  191DOPC  H18T23611   5.076   7.189   5.784  0.4263  0.5383 -0.3330
  191DOPC   C3323612   4.627   7.530   4.475  0.1117 -0.2811  0.8467
  191DOPC   H3X23613   4.674   7.439   4.434  0.6607  0.8304 -1.1296
  191DOPC   H3Y23614   4.545   7.507   4.547  0.6230 -0.6791  1.3101
  191DOPC   C3423615   4.721   7.614   4.559  0.0082 -0.1057  0.3158
  191DOPC   H4X23616   4.678   7.716   4.560 -1.9725 -0.8907  1.7570
  191DOPC   H4Y23617   4.822   7.623   4.513  0.2079  1.5402  1.0067
  191DOPC   C3523618   4.736   7.546   4.700 -0.2185 -0.4650 -0.8829
  191DOPC   H5X23619   4.744   7.436   4.694 -0.1876 -0.4444 -1.2817
  191DOPC   H5Y23620   4.643   7.565   4.758  1.2235  0.2889  1.3226
  191DOPC   C3623621   4.851   7.609   4.786  0.3622 -0.1324  0.5672
  191DOPC   H6X23622   4.873   7.542   4.871  3.4390  0.3373  0.2632
  191DOPC   H6Y23623   4.942   7.605   4.722 -0.0935  0.4107 -0.1337
  191DOPC   C3723624   4.810   7.749   4.841 -0.0026  0.2242 -0.0807
  191DOPC   H7X23625   4.770   7.817   4.763 -0.4831  0.3122  0.2387
  191DOPC   H7Y23626   4.729   7.748   4.917 -0.3945 -1.0348 -0.4818
  191DOPC   C3823627   4.937   7.802   4.917 -0.5023 -0.0531  1.3116
  191DOPC   H8X23628   4.915   7.909   4.939  1.3964  0.9086 -1.0181
  191DOPC   H8Y23629   5.012   7.801   4.836 -0.9719 -0.7519  0.8825
  191DOPC   C3923630   4.986   7.716   5.027 -0.1594  0.5578 -0.2243
  191DOPC   H9X23631   5.021   7.613   5.009 -0.0833  0.5758 -0.1831
  191DOPC  C31023632   5.016   7.763   5.150  0.5715  0.3304  0.2221
  191DOPC  H10X23633   5.042   7.677   5.213 -3.0937 -0.4335  0.9778
  191DOPC  C31123634   5.003   7.900   5.212  0.1114  0.7612 -0.6802
  191DOPC  H11X23635   4.961   7.975   5.142 -1.3057 -1.5191 -2.4036
  191DOPC  H11Y23636   5.108   7.933   5.232  1.3378 -1.1639 -3.3405
  191DOPC  C31223637   4.916   7.894   5.339 -0.5672 -0.1097  0.7048
  191DOPC  H12X23638   4.810   7.862   5.322  0.0788 -2.2324  0.3310
  191DOPC  H12Y23639   4.914   7.997   5.381 -0.6617 -0.8149  2.5420
  191DOPC  C31323640   4.972   7.809   5.453 -0.0220 -0.3466 -0.0304
  191DOPC  H13X23641   4.972   7.703   5.418  1.2498 -1.2854  2.5539
  191DOPC  H13Y23642   5.082   7.823   5.461  0.4476 -2.5565 -1.5837
  191DOPC  C31423643   4.900   7.845   5.587  0.2938  0.2079  0.0676
  191DOPC  H14X23644   4.885   7.955   5.595  0.0139  0.1833 -0.1283
  191DOPC  H14Y23645   4.805   7.790   5.574  1.6372 -1.8244 -1.7140
  191DOPC  C31523646   4.983   7.801   5.711 -0.4901 -0.0508  0.2007
  191DOPC  H15X23647   5.082   7.851   5.704  0.1824 -1.4600 -1.0927
  191DOPC  H15Y23648   5.006   7.694   5.694  0.5661  0.1575  0.2650
  191DOPC  C31623649   4.918   7.824   5.844 -0.0353 -0.1874 -0.0748
  191DOPC  H16X23650   4.905   7.932   5.865  2.2157 -0.3064  2.4285
  191DOPC  H16Y23651   4.813   7.786   5.850 -0.6467  1.3996 -0.3371
  191DOPC  C31723652   4.994   7.765   5.957 -0.4996  0.4971  0.5802
  191DOPC  H17X23653   5.008   7.658   5.932  1.9496  1.3562 -2.2709
  191DOPC  H17Y23654   5.095   7.811   5.958 -1.0794  1.8732 -0.6331
  191DOPC  C31823655   4.935   7.779   6.096  0.5753 -0.0315  0.3412
  191DOPC  H18X23656   4.996   7.729   6.175 -1.1370  0.1152  1.8151
  191DOPC  H18Y23657   4.926   7.886   6.123  2.0661  0.3576 -0.5751
  191DOPC  H18Z23658   4.839   7.724   6.098 -0.1592  1.2232  0.2366
  192DOPC     N23659   0.871   6.050   4.131 -0.1545  0.4464 -0.8828
  192DOPC   C1223660   0.852   6.180   4.205 -0.3724  0.2569  0.4879
  192DOPC  H12A23661   0.821   6.154   4.305  0.0246  1.2681  0.8840
  192DOPC  H12B23662   0.771   6.230   4.155 -0.4929  1.7077  2.0719
  192DOPC   C1323663   0.974   5.969   4.207  0.8693  0.0399  0.0140
  192DOPC  H13A23664   0.940   5.978   4.309  0.1145  1.6200 -0.3449
  192DOPC  H13B23665   0.983   5.863   4.190 -1.1166 -0.3758  1.3383
  192DOPC  H13C23666   1.071   6.016   4.194  1.6469 -1.7942 -1.3163
  192DOPC   C1423667   0.917   6.076   3.989 -0.3609 -0.2283  0.2889
  192DOPC  H14A23668   0.848   6.147   3.945  0.2754  0.3215  0.1557
  192DOPC  H14B23669   1.005   6.139   3.983 -1.3510  1.4273  2.1907
  192DOPC  H14C23670   0.925   5.983   3.935  1.6259  0.8568 -1.4416
  192DOPC   C1523671   0.743   5.968   4.135  0.8022 -0.1188  0.0065
  192DOPC  H15A23672   0.769   5.874   4.089 -0.9011 -1.4196  1.5756
  192DOPC  H15B23673   0.664   6.016   4.079 -0.6933  0.0306  2.1298
  192DOPC  H15C23674   0.711   5.938   4.233  2.6501  1.4749  1.1759
  192DOPC   C1123675   0.967   6.286   4.206  0.1953  0.3117 -0.4459
  192DOPC  H11A23676   0.991   6.326   4.106 -0.9364 -0.9392 -1.2542
  192DOPC  H11B23677   0.932   6.361   4.281  0.0766  0.7096 -0.8948
  192DOPC     P23678   1.216   6.306   4.281  0.2227 -0.0667 -0.2796
  192DOPC   O1323679   1.195   6.451   4.302 -0.0119  0.1031  0.2658
  192DOPC   O1423680   1.323   6.265   4.189 -0.4993 -1.0773 -0.2925
  192DOPC   O1223681   1.087   6.225   4.246 -0.0189  0.7451 -0.6273
  192DOPC   O1123682   1.242   6.244   4.424  0.2761 -0.4512 -0.2096
  192DOPC    C123683   1.175   6.129   4.476 -0.7234  0.0640 -0.2945
  192DOPC    HA23684   1.235   6.072   4.550 -3.8609 -1.4039  1.3398
  192DOPC    HB23685   1.154   6.062   4.389  1.2480  1.4385 -1.9159
  192DOPC    C223686   1.048   6.152   4.551  0.6184 -0.7100  0.2112
  192DOPC    HS23687   0.973   6.178   4.473  1.0257 -1.9210 -0.6022
  192DOPC   O2123688   1.080   6.262   4.633 -0.6235  0.3229 -0.3447
  192DOPC   C2123689   0.984   6.336   4.660  0.4007 -0.4551 -0.0926
  192DOPC   O2223690   0.880   6.348   4.593 -0.2112  0.3959 -0.1301
  192DOPC   C2223691   1.008   6.418   4.790 -0.8939  0.2330  0.5288
  192DOPC   H2R23692   1.024   6.520   4.750 -0.1611 -0.4282 -0.9769
  192DOPC   H2S23693   1.108   6.398   4.834 -1.4831 -0.2877  1.6817
  192DOPC    C323694   1.001   6.024   4.627 -0.0232  1.2053  0.0326
  192DOPC    HX23695   1.062   6.017   4.720 -0.5826 -1.8353  0.2849
  192DOPC    HY23696   1.022   5.932   4.569 -1.2892  2.3423 -2.3577
  192DOPC   O3123697   0.864   6.029   4.682 -0.2944  0.2199 -0.7268
  192DOPC   C3123698   0.775   6.018   4.586  0.3363 -0.1874  0.5347
  192DOPC   O3223699   0.794   6.004   4.469 -0.5305  0.1355  0.5397
  192DOPC   C3223700   0.640   6.048   4.649  0.4637  0.2690  0.5046
  192DOPC   H2X23701   0.630   6.159   4.646 -1.2081  0.1249 -1.1426
  192DOPC   H2Y23702   0.560   6.011   4.582 -1.7239  0.1652  2.9793
  192DOPC   C2323703   0.891   6.415   4.885 -0.2936  0.4357 -0.5230
  192DOPC   H3R23704   0.886   6.327   4.953 -1.0059 -1.2073 -2.6220
  192DOPC   H3S23705   0.800   6.408   4.823 -1.2799 -0.9922  0.9889
  192DOPC   C2423706   0.878   6.534   4.977  0.4024 -0.2206 -0.4638
  192DOPC   H4R23707   0.909   6.630   4.930  1.7025 -0.4534 -0.1113
  192DOPC   H4S23708   0.951   6.515   5.058  0.3583 -1.3694 -0.6736
  192DOPC   C2523709   0.735   6.554   5.036 -0.2791 -0.2451  0.2434
  192DOPC   H5R23710   0.709   6.466   5.098 -0.0745  1.4835  2.9416
  192DOPC   H5S23711   0.681   6.561   4.939  0.1886  1.8965  0.0769
  192DOPC   C2623712   0.708   6.682   5.118  0.1148  0.2329  0.0681
  192DOPC   H6R23713   0.600   6.706   5.132 -0.0155 -0.5412  0.4521
  192DOPC   H6S23714   0.745   6.776   5.072 -0.3393  0.5180  0.2671
  192DOPC   C2723715   0.771   6.669   5.256  0.1776  0.1273  0.5305
  192DOPC   H7R23716   0.769   6.774   5.293 -0.8195 -0.1429  1.3051
  192DOPC   H7S23717   0.878   6.641   5.242  0.0391 -0.9283  1.4217
  192DOPC   C2823718   0.706   6.566   5.354 -0.0097  0.1681 -0.1012
  192DOPC   H8R23719   0.780   6.552   5.436 -1.9253  0.8873  1.8631
  192DOPC   H8S23720   0.725   6.470   5.301  0.8741  1.5019 -2.3383
  192DOPC   C2923721   0.566   6.587   5.410  0.6111  0.2471 -0.1972
  192DOPC   H9R23722   0.499   6.611   5.326 -2.2067 -1.2896  1.4845
  192DOPC  C21023723   0.524   6.590   5.534 -0.1794 -0.1922  0.1850
  192DOPC  H10R23724   0.420   6.618   5.555  0.0945  0.1395  1.1692
  192DOPC  C21123725   0.618   6.581   5.660 -0.0896  0.3921  0.1360
  192DOPC  H11R23726   0.595   6.674   5.716  2.4438  1.9294 -1.1835
  192DOPC  H11S23727   0.725   6.575   5.631 -0.6585 -1.6040 -1.9039
  192DOPC  C21223728   0.596   6.456   5.745 -0.4587 -0.1727  0.4045
  192DOPC  H12R23729   0.626   6.382   5.668 -0.6413 -0.1146  0.2747
  192DOPC  H12S23730   0.495   6.427   5.781 -0.4160  0.4099  1.0262
  192DOPC  C21323731   0.687   6.450   5.862  0.1504  0.4892 -0.4976
  192DOPC  H13R23732   0.792   6.436   5.827 -0.6012  0.3082 -2.8235
  192DOPC  H13S23733   0.657   6.362   5.922  0.6457 -0.8076 -2.0784
  192DOPC  C21423734   0.670   6.576   5.946 -0.0949  0.3913  0.7881
  192DOPC  H14R23735   0.563   6.579   5.975 -0.1233  0.3675  0.6870
  192DOPC  H14S23736   0.700   6.664   5.885 -1.0589  1.4136  1.7495
  192DOPC  C21523737   0.758   6.570   6.069  0.4232  0.3953 -0.6790
  192DOPC  H15R23738   0.862   6.545   6.041  1.4558  2.2477  1.1601
  192DOPC  H15S23739   0.716   6.484   6.125 -1.6134  0.5000 -1.9259
  192DOPC  C21623740   0.750   6.694   6.166 -0.0037  0.1233 -0.1872
  192DOPC  H16R23741   0.785   6.788   6.118  0.4258  0.4685  0.7868
  192DOPC  H16S23742   0.803   6.667   6.260  1.5490 -0.9535 -1.3227
  192DOPC  C21723743   0.608   6.727   6.214  0.7241  0.0124 -0.6019
  192DOPC  H17R23744   0.559   6.638   6.260  0.7201  0.7468  0.8579
  192DOPC  H17S23745   0.547   6.764   6.129  1.1298 -0.7476 -1.2378
  192DOPC  C21823746   0.607   6.836   6.313 -0.2425 -0.0407 -0.2157
  192DOPC  H18R23747   0.650   6.932   6.278 -2.8741  0.3503 -2.7409
  192DOPC  H18S23748   0.668   6.809   6.402 -1.1730  0.4887  0.6064
  192DOPC  H18T23749   0.506   6.861   6.352  0.6384  1.5387  1.2348
  192DOPC   C3323750   0.616   5.977   4.791 -0.4405 -0.0077 -0.2426
  192DOPC   H3X23751   0.710   5.978   4.851  0.6297  1.7382 -1.8459
  192DOPC   H3Y23752   0.587   5.874   4.763  1.1250 -0.5514  0.0067
  192DOPC   C3423753   0.494   6.022   4.869 -0.4649 -0.1655  0.0924
  192DOPC   H4X23754   0.466   5.944   4.943 -1.3742  0.0747  0.0164
  192DOPC   H4Y23755   0.404   6.028   4.804 -0.4024 -0.2205  0.0011
  192DOPC   C3523756   0.502   6.159   4.935  0.7577 -0.1220 -0.3319
  192DOPC   H5X23757   0.524   6.239   4.861 -1.0421 -0.5416 -1.3881
  192DOPC   H5Y23758   0.586   6.158   5.008  0.9999 -1.3820 -0.6092
  192DOPC   C3623759   0.376   6.206   5.005 -0.1658  0.4002 -0.4679
  192DOPC   H6X23760   0.287   6.221   4.940 -0.1206 -0.2213 -0.6803
  192DOPC   H6Y23761   0.338   6.126   5.073 -1.9373  1.3620 -0.2864
  192DOPC   C3723762   0.404   6.337   5.084  0.3491  0.7842 -0.5785
  192DOPC   H7X23763   0.511   6.364   5.074  1.0484 -1.6094 -0.2516
  192DOPC   H7Y23764   0.338   6.405   5.026  0.0226  0.2105 -0.8984
  192DOPC   C3823765   0.363   6.336   5.228 -0.0570 -0.0198 -0.4599
  192DOPC   H8X23766   0.259   6.306   5.251 -0.5105  0.5444 -1.6710
  192DOPC   H8Y23767   0.366   6.443   5.258  1.4189 -0.1863  0.0436
  192DOPC   C3923768   0.475   6.266   5.300 -0.5970 -0.2448  0.0431
  192DOPC   H9X23769   0.580   6.289   5.278 -0.4742 -1.3493 -0.6106
  192DOPC  C31023770   0.459   6.169   5.390  0.4504 -0.4538  0.1789
  192DOPC  H10X23771   0.547   6.127   5.439  0.9330  0.9248  0.5266
  192DOPC  C31123772   0.333   6.103   5.442  0.4423  0.0801 -0.0230
  192DOPC  H11X23773   0.347   5.994   5.458 -0.4425 -0.4242 -2.3065
  192DOPC  H11Y23774   0.251   6.129   5.372 -1.1844 -0.6679  1.5223
  192DOPC  C31223775   0.282   6.146   5.587 -0.1183 -0.2981  0.1839
  192DOPC  H12X23776   0.191   6.082   5.593 -0.0571 -0.7946 -2.7362
  192DOPC  H12Y23777   0.248   6.251   5.580 -0.7508 -0.4355  1.0329
  192DOPC  C31323778   0.394   6.130   5.691  0.6673 -0.7435 -0.4581
  192DOPC  H13X23779   0.457   6.044   5.660  0.7995  0.3309 -3.5116
  192DOPC  H13Y23780   0.456   6.222   5.683  0.5070 -0.5663  0.2211
  192DOPC  C31423781   0.342   6.125   5.837  0.0244  0.0753 -0.6447
  192DOPC  H14X23782   0.277   6.214   5.853  0.3245  0.5441 -1.8821
  192DOPC  H14Y23783   0.274   6.040   5.855  0.3381 -0.0392  0.0321
  192DOPC  C31523784   0.462   6.117   5.932  0.3579 -1.0254 -0.1718
  192DOPC  H15X23785   0.536   6.199   5.919  1.2341 -1.8207 -0.3232
  192DOPC  H15Y23786   0.529   6.036   5.894 -0.1183 -0.8285 -1.4935
  192DOPC  C31623787   0.429   6.090   6.077 -0.6718 -0.4728  0.0126
  192DOPC  H16X23788   0.373   5.995   6.088 -0.3278 -0.5415  1.4131
  192DOPC  H16Y23789   0.527   6.072   6.127  0.1611  1.5748 -0.7617
  192DOPC  C31723790   0.354   6.213   6.135 -0.1644  0.3501  0.1458
  192DOPC  H17X23791   0.415   6.298   6.098  1.1996  0.2770  2.1057
  192DOPC  H17Y23792   0.258   6.209   6.078 -0.1994  0.7756  0.1725
  192DOPC  C31823793   0.346   6.218   6.290 -0.1962  0.7170  0.0490
  192DOPC  H18X23794   0.308   6.316   6.326 -1.5499 -0.4649  2.0499
  192DOPC  H18Y23795   0.280   6.142   6.337  0.1222  0.9653  0.9110
  192DOPC  H18Z23796   0.448   6.210   6.332  0.9543  2.4288 -2.1610
  193DOPC     N23797   6.105   2.740   3.287 -0.2789  0.1716  0.1202
  193DOPC   C1223798   6.069   2.595   3.250  0.6049 -0.0751 -0.2045
  193DOPC  H12A23799   6.057   2.596   3.143  3.1950  1.3266 -0.5591
  193DOPC  H12B23800   5.973   2.562   3.288 -1.3513 -0.6457 -4.9615
  193DOPC   C1323801   5.993   2.830   3.246  0.4376  0.4238 -0.1198
  193DOPC  H13A23802   6.012   2.930   3.282  0.4562  0.1083  0.7743
  193DOPC  H13B23803   5.965   2.834   3.142 -1.5074  0.1174  0.3471
  193DOPC  H13C23804   5.913   2.786   3.304  1.7742  2.3524  3.5423
  193DOPC   C1423805   6.230   2.791   3.227 -0.3233  0.4776  0.6273
  193DOPC  H14A23806   6.319   2.736   3.253 -0.1022  0.0930 -0.8797
  193DOPC  H14B23807   6.225   2.789   3.119 -0.5056  0.2929  0.6373
  193DOPC  H14C23808   6.250   2.894   3.251  2.7065  0.0663  0.2410
  193DOPC   C1523809   6.107   2.750   3.438  0.4687  0.2007 -0.2025
  193DOPC  H15A23810   6.007   2.726   3.471  0.9908 -2.3617 -0.2391
  193DOPC  H15B23811   6.135   2.848   3.474  2.5921 -0.2642 -0.4666
  193DOPC  H15C23812   6.181   2.677   3.469  2.0499  0.8944 -2.1503
  193DOPC   C1123813   6.166   2.480   3.288 -0.0684  0.4499  0.2602
  193DOPC  H11A23814   6.137   2.391   3.228  0.6487  0.7430 -0.5556
  193DOPC  H11B23815   6.269   2.517   3.267  0.1960 -0.4386 -0.0482
  193DOPC     P23816   6.040   2.399   3.506  0.2473 -0.2802  0.0783
  193DOPC   O1323817   6.058   2.251   3.527 -0.2041  0.4248  0.3933
  193DOPC   O1423818   5.913   2.437   3.442 -0.5267  0.3443  0.4599
  193DOPC   O1223819   6.167   2.451   3.427 -0.3235  0.0971 -0.3101
  193DOPC   O1123820   6.035   2.471   3.641  0.2017  0.3355 -0.3852
  193DOPC    C123821   6.140   2.514   3.724 -0.0937 -0.2048  0.2153
  193DOPC    HA23822   6.100   2.568   3.813 -1.5184 -0.6255 -0.1551
  193DOPC    HB23823   6.211   2.581   3.670 -0.2592 -1.0397 -1.0854
  193DOPC    C223824   6.211   2.396   3.796  0.0389  0.0554 -0.1881
  193DOPC    HS23825   6.277   2.351   3.718  1.0067  0.2202  0.5098
  193DOPC   O2123826   6.119   2.302   3.855  0.9164 -0.1197  0.2454
  193DOPC   C2123827   6.173   2.186   3.879  0.4514 -0.6538  1.2068
  193DOPC   O2223828   6.284   2.149   3.849 -0.2683 -0.5169 -0.2661
  193DOPC   C2223829   6.062   2.092   3.928 -0.5645 -0.3328 -0.8659
  193DOPC   H2R23830   6.110   1.993   3.945  2.4508  0.9454 -1.3895
  193DOPC   H2S23831   5.992   2.080   3.843 -1.7858 -1.4171  0.2396
  193DOPC    C323832   6.310   2.454   3.894  0.2355 -0.2898 -0.1916
  193DOPC    HX23833   6.381   2.529   3.853  0.0712  0.8923  1.5302
  193DOPC    HY23834   6.374   2.377   3.942  1.2859  0.3505 -0.5183
  193DOPC   O3123835   6.242   2.512   4.005  0.4501 -0.5606 -0.4501
  193DOPC   C3123836   6.315   2.592   4.084  0.4128 -0.3626 -0.3512
  193DOPC   O3223837   6.410   2.658   4.047  0.0176  0.0418 -0.1556
  193DOPC   C3223838   6.245   2.594   4.223  0.2223  0.5438  0.5990
  193DOPC   H2X23839   6.136   2.607   4.210 -0.0335 -0.9462  1.0612
  193DOPC   H2Y23840   6.273   2.498   4.272 -3.4188  0.2882  2.5377
  193DOPC   C2323841   5.966   2.146   4.040  0.2090 -0.4901 -0.3241
  193DOPC   H3R23842   5.876   2.083   4.022 -0.0171 -0.0854 -0.6290
  193DOPC   H3S23843   5.934   2.250   4.020 -2.1597 -1.2600 -0.9217
  193DOPC   C2423844   6.025   2.145   4.180 -0.1961  0.3125 -0.1805
  193DOPC   H4R23845   6.038   2.038   4.206  0.8247  0.2120 -1.0463
  193DOPC   H4S23846   5.954   2.185   4.256 -0.4551 -0.0940 -0.2077
  193DOPC   C2523847   6.153   2.229   4.208  0.2270  0.3123  0.2606
  193DOPC   H5R23848   6.120   2.334   4.192 -0.5284  0.4681  2.4686
  193DOPC   H5S23849   6.233   2.205   4.134  1.3575 -1.1114  1.8756
  193DOPC   C2623850   6.198   2.202   4.355  0.6706  1.1162  0.3532
  193DOPC   H6R23851   6.301   2.236   4.374  0.7360 -0.0570  2.3752
  193DOPC   H6S23852   6.183   2.097   4.389  0.3196  0.9448 -0.2974
  193DOPC   C2723853   6.120   2.294   4.453  0.0608  0.1167  0.3252
  193DOPC   H7R23854   6.011   2.280   4.441 -0.2091  2.7035 -0.8032
  193DOPC   H7S23855   6.136   2.400   4.425  3.7157 -0.7815 -1.6869
  193DOPC   C2823856   6.149   2.293   4.603 -0.0738 -0.5528  0.9608
  193DOPC   H8R23857   6.140   2.186   4.631 -0.1799 -1.4548 -2.1475
  193DOPC   H8S23858   6.071   2.349   4.658  0.0619  1.1699 -0.5109
  193DOPC   C2923859   6.287   2.342   4.633 -0.6376 -0.6279  0.4730
  193DOPC   H9R23860   6.365   2.304   4.566  0.0249 -0.1448  0.9524
  193DOPC  C21023861   6.333   2.425   4.734  0.1244  0.6522 -0.0598
  193DOPC  H10R23862   6.442   2.439   4.747  0.6771 -1.7541 -1.4627
  193DOPC  C21123863   6.244   2.489   4.833 -0.2836 -0.6918  0.3687
  193DOPC  H11R23864   6.137   2.459   4.827 -1.2039  2.1898  1.0000
  193DOPC  H11S23865   6.242   2.597   4.810 -1.1439 -1.3348 -3.0508
  193DOPC  C21223866   6.289   2.478   4.983  0.3807 -0.0508  0.8306
  193DOPC  H12R23867   6.387   2.531   4.986 -0.0018  0.7630 -0.3000
  193DOPC  H12S23868   6.313   2.370   4.999  1.3325 -0.2384 -1.3941
  193DOPC  C21323869   6.187   2.539   5.066  0.7995 -0.7927  0.1306
  193DOPC  H13R23870   6.096   2.477   5.077 -0.1812  0.5492 -0.1126
  193DOPC  H13S23871   6.151   2.632   5.017 -0.5349  0.0804  2.5808
  193DOPC  C21423872   6.232   2.593   5.202  0.1271 -0.2707  0.8227
  193DOPC  H14R23873   6.149   2.640   5.259 -2.6081 -3.1132 -0.4995
  193DOPC  H14S23874   6.313   2.667   5.182 -0.9429  0.4223 -1.1978
  193DOPC  C21523875   6.283   2.481   5.287 -0.7256  0.6383 -0.2076
  193DOPC  H15R23876   6.361   2.418   5.239 -2.8567 -2.5578  0.1864
  193DOPC  H15S23877   6.185   2.429   5.298 -0.3794  0.0245  0.0018
  193DOPC  C21623878   6.333   2.531   5.423 -0.1449 -0.7681  0.2120
  193DOPC  H16R23879   6.259   2.602   5.468  0.1540  0.9438 -1.8625
  193DOPC  H16S23880   6.420   2.600   5.421 -0.0407 -0.8665 -3.2254
  193DOPC  C21723881   6.361   2.419   5.519  0.3513 -0.2581 -0.4245
  193DOPC  H17R23882   6.393   2.458   5.618  0.1097 -2.5195  0.6023
  193DOPC  H17S23883   6.453   2.372   5.476  0.5742 -0.0900 -0.1290
  193DOPC  C21823884   6.246   2.327   5.545  0.1381 -0.1175  0.4316
  193DOPC  H18R23885   6.160   2.377   5.594  0.2346 -1.3422  1.9316
  193DOPC  H18S23886   6.281   2.243   5.608 -0.5988 -3.1399 -2.8364
  193DOPC  H18T23887   6.191   2.281   5.460  0.1154  0.5787  0.0599
  193DOPC   C3323888   6.302   2.698   4.323 -0.1122 -0.1022 -0.0211
  193DOPC   H3X23889   6.295   2.802   4.285 -0.9032 -0.8315 -2.0037
  193DOPC   H3Y23890   6.406   2.678   4.354 -0.4048 -0.5358  0.7055
  193DOPC   C3423891   6.219   2.695   4.454  0.3937 -0.1142 -0.8173
  193DOPC   H4X23892   6.250   2.612   4.521  1.6559  0.3826 -0.7488
  193DOPC   H4Y23893   6.111   2.698   4.429  0.2986 -1.6413 -0.6887
  193DOPC   C3523894   6.240   2.826   4.536  0.4382 -0.0696  0.5257
  193DOPC   H5X23895   6.154   2.859   4.597  0.7776  1.6712  0.0979
  193DOPC   H5Y23896   6.241   2.907   4.461  1.0219 -0.9661 -0.4735
  193DOPC   C3623897   6.363   2.824   4.626  0.0940  0.3366 -0.8682
  193DOPC   H6X23898   6.364   2.743   4.702 -0.6685  0.4748 -0.6997
  193DOPC   H6Y23899   6.443   2.809   4.550 -0.8498 -1.5073 -1.5500
  193DOPC   C3723900   6.384   2.969   4.684  0.5577  0.7064 -0.4231
  193DOPC   H7X23901   6.468   2.952   4.754 -2.3457 -1.2701  2.8822
  193DOPC   H7Y23902   6.402   3.043   4.604 -0.2776 -0.2630 -1.5583
  193DOPC   C3823903   6.284   3.032   4.787  0.1168 -0.6164  0.9018
  193DOPC   H8X23904   6.203   3.069   4.721  0.6664  1.6355  1.4078
  193DOPC   H8Y23905   6.326   3.129   4.822  0.2065 -0.5070  0.4952
  193DOPC   C3923906   6.226   2.947   4.890 -0.3526 -0.2822 -0.6485
  193DOPC   H9X23907   6.191   2.849   4.854  2.2677 -0.7331 -2.2360
  193DOPC  C31023908   6.228   2.970   5.024  0.0079 -0.1110 -0.0434
  193DOPC  H10X23909   6.171   2.902   5.089  0.1275  0.4691  0.6768
  193DOPC  C31123910   6.310   3.081   5.090 -0.1163 -0.9635 -0.3254
  193DOPC  H11X23911   6.269   3.105   5.190  0.2394 -2.2952  0.1653
  193DOPC  H11Y23912   6.320   3.178   5.035  1.0269 -0.3379  0.9144
  193DOPC  C31223913   6.457   3.042   5.112  0.0278  0.5023 -0.8150
  193DOPC  H12X23914   6.517   3.131   5.144 -1.1732  0.8014  0.7414
  193DOPC  H12Y23915   6.512   3.019   5.019  0.1147 -0.5000 -0.5215
  193DOPC  C31323916   6.475   2.929   5.220  0.7889 -0.5937  0.0633
  193DOPC  H13X23917   6.432   2.836   5.178 -2.2712  0.0245  1.5868
  193DOPC  H13Y23918   6.585   2.913   5.227  0.6951 -0.6476  2.2077
  193DOPC  C31423919   6.416   2.957   5.364 -0.3430  0.4648 -0.4867
  193DOPC  H14X23920   6.306   2.953   5.352 -0.5409 -1.1910  1.3115
  193DOPC  H14Y23921   6.444   2.872   5.430  0.6624  2.7000  2.1623
  193DOPC  C31523922   6.455   3.094   5.428  0.8292  0.3799 -0.1447
  193DOPC  H15X23923   6.400   3.167   5.365  0.8466 -0.7103 -1.4993
  193DOPC  H15Y23924   6.565   3.097   5.417  1.0039 -2.2368  0.0433
  193DOPC  C31623925   6.418   3.128   5.569  0.4396 -0.0364  1.1995
  193DOPC  H16X23926   6.437   3.233   5.599 -1.3195  0.5461  0.4250
  193DOPC  H16Y23927   6.308   3.113   5.579  0.7144 -2.6871  0.8202
  193DOPC  C31723928   6.471   3.039   5.688  0.7445 -0.8815  0.4983
  193DOPC  H17X23929   6.448   2.932   5.670 -0.4591 -0.3487 -1.4492
  193DOPC  H17Y23930   6.582   3.045   5.685  0.8293 -1.8177  1.2393
  193DOPC  C31823931   6.416   3.084   5.824 -0.5780  0.0843 -0.4742
  193DOPC  H18X23932   6.437   3.012   5.906 -0.3005 -0.5747 -1.1040
  193DOPC  H18Y23933   6.447   3.188   5.846  0.8328  0.0160 -1.9209
  193DOPC  H18Z23934   6.305   3.085   5.825 -0.6999 -1.5808 -2.5569
  194DOPC     N23935   1.532   1.238   3.415  0.0541  0.1240 -0.4826
  194DOPC   C1223936   1.508   1.371   3.487  0.2021 -0.1358  0.0431
  194DOPC  H12A23937   1.433   1.427   3.434 -0.9794 -1.4646  0.2445
  194DOPC  H12B23938   1.603   1.422   3.484 -0.8195  1.8778  0.2958
  194DOPC   C1323939   1.605   1.148   3.511 -0.0352  0.4386  0.2832
  194DOPC  H13A23940   1.555   1.157   3.606  1.9354  2.3536  1.2136
  194DOPC  H13B23941   1.605   1.047   3.472 -1.5296 -0.6327  2.8390
  194DOPC  H13C23942   1.708   1.178   3.521  0.0481  0.1431  0.3263
  194DOPC   C1423943   1.601   1.253   3.289  0.4071 -0.1120 -0.3689
  194DOPC  H14A23944   1.549   1.312   3.216 -1.2624 -1.3607 -0.2372
  194DOPC  H14B23945   1.691   1.313   3.295 -0.2671  0.9308 -0.4290
  194DOPC  H14C23946   1.631   1.159   3.245 -0.8608 -0.6145 -0.2054
  194DOPC   C1523947   1.400   1.172   3.406  0.0631  0.9140  0.0931
  194DOPC  H15A23948   1.369   1.133   3.502 -0.0506  0.7715 -0.0003
  194DOPC  H15B23949   1.423   1.079   3.358  2.2739 -0.4719  3.4424
  194DOPC  H15C23950   1.328   1.228   3.348  1.4055  1.6692 -0.8995
  194DOPC   C1123951   1.452   1.371   3.634  0.7926 -0.7314 -1.0227
  194DOPC  H11A23952   1.529   1.330   3.703  0.3402 -0.5924 -0.4281
  194DOPC  H11B23953   1.434   1.477   3.661 -1.0012 -0.8003 -1.8157
  194DOPC     P23954   1.188   1.357   3.650  0.4350 -0.0449  0.3310
  194DOPC   O1323955   1.093   1.243   3.675 -0.2169 -0.2087 -0.6100
  194DOPC   O1423956   1.170   1.436   3.527  0.3145 -0.1379  0.3553
  194DOPC   O1223957   1.329   1.296   3.644  0.5604  0.9123 -0.1334
  194DOPC   O1123958   1.196   1.453   3.773  0.2242 -0.2226  0.1055
  194DOPC    C123959   1.260   1.405   3.889 -0.7543  0.2618 -0.4272
  194DOPC    HA23960   1.366   1.430   3.872 -0.6557 -0.4758 -0.9489
  194DOPC    HB23961   1.238   1.296   3.897 -4.2210  0.7073 -2.0844
  194DOPC    C223962   1.205   1.458   4.021  0.6833  0.0696 -0.4015
  194DOPC    HS23963   1.103   1.415   4.038  0.4549  0.1042 -1.6296
  194DOPC   O2123964   1.207   1.598   4.029  0.5014  0.5854  0.0882
  194DOPC   C2123965   1.111   1.663   4.090  0.1023  0.2927  0.6062
  194DOPC   O2223966   1.019   1.619   4.151  0.4269  0.2044  0.5081
  194DOPC   C2223967   1.125   1.810   4.049  0.5078  0.1801 -0.4528
  194DOPC   H2R23968   1.042   1.835   3.980 -1.3065  0.6395  1.7673
  194DOPC   H2S23969   1.218   1.828   3.991  1.2236  2.0324  1.1630
  194DOPC    C323970   1.290   1.410   4.145  0.0547 -0.7143  0.2652
  194DOPC    HX23971   1.399   1.432   4.135  0.0669  1.3096  3.4409
  194DOPC    HY23972   1.272   1.301   4.136 -0.0416 -0.5768 -1.5353
  194DOPC   O3123973   1.238   1.462   4.272 -0.2300  0.1792 -0.1282
  194DOPC   C3123974   1.130   1.391   4.321 -0.4723 -0.3539  0.7990
  194DOPC   O3223975   1.092   1.285   4.280 -0.7618  0.4372  0.6080
  194DOPC   C3223976   1.075   1.451   4.449  0.4169  0.4636 -0.2022
  194DOPC   H2X23977   1.163   1.484   4.508 -0.2847  1.9486  0.0545
  194DOPC   H2Y23978   1.020   1.541   4.416 -0.9244  0.6664  2.3284
  194DOPC   C2323979   1.124   1.890   4.176 -0.6507 -0.8783 -0.2540
  194DOPC   H3R23980   1.038   1.866   4.243  0.3017 -2.4069  0.4784
  194DOPC   H3S23981   1.123   1.996   4.144  0.6983 -0.5955  0.5502
  194DOPC   C2423982   1.255   1.882   4.256  0.2605  0.7654 -0.0210
  194DOPC   H4R23983   1.341   1.903   4.189  0.2835 -1.2839 -0.6973
  194DOPC   H4S23984   1.265   1.776   4.287  1.3947  0.1220 -2.3880
  194DOPC   C2523985   1.254   1.983   4.376  0.3426 -0.4294  0.4808
  194DOPC   H5R23986   1.276   2.087   4.344  1.2927 -0.9946 -0.7993
  194DOPC   H5S23987   1.352   1.959   4.421  0.5264  0.6107  0.6509
  194DOPC   C2623988   1.130   1.971   4.476  0.7172  0.1833  0.5017
  194DOPC   H6R23989   1.106   1.869   4.513  0.2529  0.3324  0.6094
  194DOPC   H6S23990   1.047   2.003   4.409  2.4713 -0.6373 -2.2653
  194DOPC   C2723991   1.140   2.073   4.594  0.4179 -0.2927  0.7489
  194DOPC   H7R23992   1.043   2.062   4.647 -0.8745  1.1304 -1.1766
  194DOPC   H7S23993   1.147   2.175   4.550 -3.4657  0.7676  2.2295
  194DOPC   C2823994   1.260   2.039   4.691 -0.2386  0.2949 -0.1766
  194DOPC   H8R23995   1.355   2.038   4.635  0.1167  0.9817  0.3955
  194DOPC   H8S23996   1.236   1.935   4.721 -0.0864  0.1700 -0.4897
  194DOPC   C2923997   1.263   2.129   4.818 -0.5982 -0.3973  0.1775
  194DOPC   H9R23998   1.304   2.229   4.796  0.0307 -0.7417 -0.2378
  194DOPC  C21023999   1.240   2.103   4.942  0.2555 -0.0869  0.0749
  194DOPC  H10R24000   1.254   2.179   5.019  0.8296 -0.6535  0.5386
  194DOPC  C21124001   1.205   1.967   5.002 -0.1216  0.5493  0.1723
  194DOPC  H11R24002   1.227   1.888   4.927  0.5643  0.8947  0.0046
  194DOPC  H11S24003   1.100   1.958   5.038  0.5206 -0.7487  1.8912
  194DOPC  C21224004   1.273   1.937   5.141 -1.2726  0.0290  0.9769
  194DOPC  H12R24005   1.383   1.953   5.130 -0.5494 -2.4310  3.3713
  194DOPC  H12S24006   1.262   1.829   5.163 -1.1622 -0.6244 -1.7801
  194DOPC  C21324007   1.212   2.014   5.253  0.1333 -0.3290 -0.0821
  194DOPC  H13R24008   1.103   1.992   5.253 -0.3634  1.7896 -1.4915
  194DOPC  H13S24009   1.226   2.121   5.227  0.0792 -0.6918 -1.7166
  194DOPC  C21424010   1.274   1.980   5.388 -0.3075 -0.5614 -0.2698
  194DOPC  H14R24011   1.367   2.034   5.415 -0.2351 -0.6524 -0.3365
  194DOPC  H14S24012   1.303   1.872   5.387 -1.3546 -0.8538 -0.3232
  194DOPC  C21524013   1.180   2.015   5.510 -0.0073  0.1586 -0.5108
  194DOPC  H15R24014   1.089   1.951   5.510 -0.1516  0.3562  0.1936
  194DOPC  H15S24015   1.146   2.120   5.494 -2.4507 -0.3168  1.0664
  194DOPC  C21624016   1.233   2.003   5.656 -0.4168 -0.3804  0.0158
  194DOPC  H16R24017   1.262   1.897   5.672  0.8517  0.0535  0.7632
  194DOPC  H16S24018   1.146   2.024   5.722 -0.1529  0.2684  0.1687
  194DOPC  C21724019   1.354   2.104   5.680  0.5340 -0.2145 -0.2508
  194DOPC  H17R24020   1.300   2.200   5.691  0.0335 -0.6728  1.6206
  194DOPC  H17S24021   1.429   2.096   5.598  3.3335  1.0390  2.0382
  194DOPC  C21824022   1.418   2.082   5.819 -0.3382  0.5650 -0.5748
  194DOPC  H18R24023   1.505   2.151   5.827 -0.4621  0.5559  1.3234
  194DOPC  H18S24024   1.446   1.977   5.844 -0.1934  0.0824 -2.6115
  194DOPC  H18T24025   1.354   2.126   5.898  1.1810  2.1611 -0.1572
  194DOPC   C3324026   0.985   1.357   4.527 -0.0734  0.5556  0.3550
  194DOPC   H3X24027   1.042   1.266   4.553  0.9508  0.8237 -0.8450
  194DOPC   H3Y24028   0.899   1.312   4.472 -0.0681 -1.6916  2.0241
  194DOPC   C3424029   0.942   1.418   4.663 -0.3809 -0.2524  0.9545
  194DOPC   H4X24030   0.879   1.344   4.716 -0.4670 -1.7362 -1.0643
  194DOPC   H4Y24031   0.881   1.508   4.643 -0.4443 -0.6220 -0.6735
  194DOPC   C3524032   1.069   1.439   4.745 -0.4056  0.1629  0.2158
  194DOPC   H5X24033   1.107   1.535   4.702 -0.3669  1.2083  2.4504
  194DOPC   H5Y24034   1.141   1.356   4.728 -1.3581 -1.1256  2.1454
  194DOPC   C3624035   1.047   1.462   4.896 -0.2485  0.0647  0.3202
  194DOPC   H6X24036   0.974   1.546   4.906 -0.5346  0.2360 -2.4878
  194DOPC   H6Y24037   0.995   1.381   4.952 -0.0069  1.3299  2.4928
  194DOPC   C3724038   1.167   1.488   4.993 -0.5351 -0.6090 -0.0627
  194DOPC   H7X24039   1.232   1.399   4.985 -0.7792 -0.7867 -0.0959
  194DOPC   H7Y24040   1.227   1.574   4.956 -0.5010  0.2193  1.8079
  194DOPC   C3824041   1.128   1.505   5.138  0.1805  0.3268 -0.6070
  194DOPC   H8X24042   1.071   1.416   5.171  1.0666 -0.2557 -0.6276
  194DOPC   H8Y24043   1.052   1.587   5.139 -2.5317 -1.9989  1.6844
  194DOPC   C3924044   1.251   1.527   5.214 -0.0613 -0.8539 -0.2637
  194DOPC   H9X24045   1.345   1.518   5.157 -0.6499  1.8814 -1.8412
  194DOPC  C31024046   1.248   1.546   5.348  0.3400 -0.5882  1.1996
  194DOPC  H10X24047   1.344   1.556   5.400  0.5264  1.6709  0.5212
  194DOPC  C31124048   1.126   1.552   5.434  0.4030 -0.8109 -0.3486
  194DOPC  H11X24049   1.045   1.483   5.403 -0.4004  0.4381 -1.0709
  194DOPC  H11Y24050   1.091   1.657   5.422  0.5004 -0.7213  0.1465
  194DOPC  C31224051   1.148   1.527   5.579  0.0684 -0.2418 -0.1217
  194DOPC  H12X24052   1.242   1.574   5.616 -1.3131  1.2367  1.6438
  194DOPC  H12Y24053   1.155   1.416   5.591  0.8404 -0.1315  0.5361
  194DOPC  C31324054   1.030   1.583   5.666 -0.6495 -0.2300  0.0862
  194DOPC  H13X24055   1.041   1.693   5.679  1.4538 -0.4282  0.2550
  194DOPC  H13Y24056   0.933   1.557   5.619 -0.9331  1.7439 -0.5377
  194DOPC  C31424057   1.033   1.531   5.814 -0.7599  0.2116 -0.1822
  194DOPC  H14X24058   0.938   1.546   5.869  0.5305  1.5965  1.7929
  194DOPC  H14Y24059   1.050   1.424   5.792  0.9883  0.3891  0.1356
  194DOPC  C31524060   1.154   1.576   5.902  0.4720  0.1074 -0.5637
  194DOPC  H15X24061   1.140   1.679   5.942 -2.2229  0.1693 -1.4550
  194DOPC  H15Y24062   1.246   1.563   5.841 -0.4942 -0.8574 -1.8773
  194DOPC  C31624063   1.178   1.493   6.029  0.5659 -0.6177  0.5821
  194DOPC  H16X24064   1.075   1.466   6.061  0.4799  1.4756  2.2930
  194DOPC  H16Y24065   1.231   1.400   6.000 -1.3744 -1.5846 -0.0418
  194DOPC  C31724066   1.256   1.562   6.137 -0.1139  0.0458 -0.0380
  194DOPC  H17X24067   1.276   1.479   6.208  2.5908 -1.0374 -1.8899
  194DOPC  H17Y24068   1.355   1.601   6.104 -0.2175 -1.1563 -1.9073
  194DOPC  C31824069   1.180   1.668   6.211 -0.3678  0.1205 -0.2752
  194DOPC  H18X24070   1.079   1.637   6.245 -0.1181  0.6625  1.0288
  194DOPC  H18Y24071   1.242   1.705   6.296 -1.3133 -1.9309  1.4236
  194DOPC  H18Z24072   1.158   1.755   6.146 -0.8517  0.1871 -0.0255
  195DOPC     N24073   0.525   0.378   3.526 -0.2720 -0.2919 -0.0055
  195DOPC   C1224074   0.404   0.299   3.561 -0.1811 -0.3335 -0.6154
  195DOPC  H12A24075   0.426   0.239   3.648 -1.8129  0.8074  0.6522
  195DOPC  H12B24076   0.388   0.224   3.486  0.3044  0.1208 -1.1805
  195DOPC   C1324077   0.651   0.298   3.550  0.6032 -0.1113 -0.6095
  195DOPC  H13A24078   0.667   0.273   3.654  1.8355  1.3917 -0.4040
  195DOPC  H13B24079   0.643   0.198   3.510 -1.1952 -0.8757  1.3993
  195DOPC  H13C24080   0.741   0.351   3.525  0.9511  0.1746  1.0881
  195DOPC   C1424081   0.538   0.501   3.604 -0.5396  0.3319 -0.2023
  195DOPC  H14A24082   0.555   0.469   3.705 -0.7595 -2.0794 -0.8807
  195DOPC  H14B24083   0.622   0.562   3.571 -0.1579  0.3071  0.6935
  195DOPC  H14C24084   0.451   0.563   3.592 -3.2415 -3.0396  0.5400
  195DOPC   C1524085   0.525   0.412   3.380 -0.1822 -0.5302  0.4218
  195DOPC  H15A24086   0.597   0.487   3.353 -2.0771  1.6036  1.0447
  195DOPC  H15B24087   0.428   0.456   3.360 -0.4363 -1.5299 -0.6647
  195DOPC  H15C24088   0.535   0.325   3.316  2.5621 -0.3014  0.4348
  195DOPC   C1124089   0.269   0.377   3.571 -0.1992  0.2076 -0.4924
  195DOPC  H11A24090   0.197   0.313   3.625 -0.5410 -0.4467 -1.6716
  195DOPC  H11B24091   0.281   0.468   3.634  1.1854 -0.9691  1.0036
  195DOPC     P24092   0.109   0.513   3.414  0.2039  0.4600  0.2123
  195DOPC   O1324093   0.001   0.425   3.369  0.3729  0.7981  0.0717
  195DOPC   O1424094   0.163   0.615   3.318 -0.3532 -0.4197 -0.3219
  195DOPC   O1224095   0.227   0.414   3.433 -0.2077  0.1003 -0.3256
  195DOPC   O1124096   0.075   0.571   3.557  0.5328  0.5118 -0.4240
  195DOPC    C124097  -0.026   0.663   3.588 -0.2462  0.1815  0.1730
  195DOPC    HA24098  -0.124   0.632   3.546 -0.3727  0.4818  0.2428
  195DOPC    HB24099   0.003   0.766   3.559  0.4224  0.2186  0.9385
  195DOPC    C224100  -0.057   0.658   3.739  0.9938 -0.1849 -0.1368
  195DOPC    HS24101  -0.164   0.683   3.748  0.8323 -0.9747  0.2286
  195DOPC   O2124102   0.034   0.756   3.809  0.4498  0.5369 -0.5995
  195DOPC   C2124103  -0.017   0.876   3.814  0.8395  0.2991  0.1898
  195DOPC   O2224104  -0.125   0.913   3.766 -0.1079  0.2441  0.1489
  195DOPC   C2224105   0.072   0.971   3.889  0.8656 -0.0434 -0.3537
  195DOPC   H2R24106   0.025   1.072   3.886  2.8679  0.9443 -2.9134
  195DOPC   H2S24107   0.170   0.976   3.837  0.2574 -0.8206 -1.6306
  195DOPC    C324108  -0.037   0.512   3.797  0.3792 -0.2534 -0.6791
  195DOPC    HX24109   0.070   0.484   3.799  0.3346 -0.4415  1.9611
  195DOPC    HY24110  -0.082   0.443   3.722 -0.0402 -2.0882  1.1699
  195DOPC   O3124111  -0.096   0.486   3.920  0.3697 -0.4642 -0.0158
  195DOPC   C3124112  -0.021   0.506   4.031  1.0572  0.8328 -0.1137
  195DOPC   O3224113   0.093   0.548   4.037  0.4894 -0.7672 -0.3519
  195DOPC   C3224114  -0.103   0.458   4.146  0.1727  0.2555  0.0907
  195DOPC   H2X24115  -0.205   0.498   4.129  0.7736  1.3050 -1.1988
  195DOPC   H2Y24116  -0.109   0.347   4.149 -0.2479  0.2707 -0.1912
  195DOPC   C2324117   0.094   0.922   4.040  0.1666  0.4219  0.1161
  195DOPC   H3R24118   0.119   0.815   4.053  0.7982  0.2057 -2.3740
  195DOPC   H3S24119   0.003   0.942   4.102 -0.6265 -0.9676 -0.5434
  195DOPC   C2424120   0.204   1.000   4.099 -0.2118  0.4817 -0.5198
  195DOPC   H4R24121   0.174   1.106   4.112 -1.3319 -0.0214  1.3083
  195DOPC   H4S24122   0.290   0.991   4.029  2.0315 -1.4414  2.2518
  195DOPC   C2524123   0.233   0.949   4.239  0.2197 -0.5648  0.2970
  195DOPC   H5R24124   0.338   0.960   4.271 -0.5311  3.0138  1.9291
  195DOPC   H5S24125   0.222   0.838   4.233 -0.0836 -0.5006 -0.5067
  195DOPC   C2624126   0.137   1.008   4.350  0.1459 -0.0589  0.1766
  195DOPC   H6R24127   0.030   1.007   4.319  0.5525  0.5717 -1.3406
  195DOPC   H6S24128   0.167   1.114   4.367  1.8562 -0.7153  1.5924
  195DOPC   C2724129   0.155   0.924   4.473  0.1838 -0.1143 -0.2683
  195DOPC   H7R24130   0.257   0.931   4.515 -1.3102  2.3631  3.4583
  195DOPC   H7S24131   0.149   0.818   4.441 -1.7052  0.4522 -1.9898
  195DOPC   C2824132   0.043   0.950   4.568  0.5187  0.1358 -0.1747
  195DOPC   H8R24133  -0.049   0.902   4.529  0.9399 -1.6028  0.8889
  195DOPC   H8S24134   0.015   1.058   4.564  0.4690  0.2189  1.7042
  195DOPC   C2924135   0.082   0.901   4.704  0.2686  0.6478  0.6447
  195DOPC   H9R24136   0.069   0.796   4.735  0.2087  0.5243  0.2065
  195DOPC  C21024137   0.141   0.983   4.790 -0.4897  0.0962 -0.4445
  195DOPC  H10R24138   0.151   0.950   4.895 -0.9695  2.4582  0.4055
  195DOPC  C21124139   0.195   1.121   4.772  0.3123  0.0835  0.1096
  195DOPC  H11R24140   0.169   1.174   4.677  1.9845  1.2073  0.2221
  195DOPC  H11S24141   0.306   1.119   4.771  0.3166 -2.0065  0.0718
  195DOPC  C21224142   0.145   1.226   4.877 -0.2130 -0.3056 -0.1380
  195DOPC  H12R24143   0.034   1.216   4.877 -0.2856  0.4607  0.3632
  195DOPC  H12S24144   0.172   1.328   4.842  0.1149 -0.9259 -1.7878
  195DOPC  C21324145   0.192   1.202   5.023 -0.1487  0.0423 -0.2454
  195DOPC  H13R24146   0.301   1.179   5.028  0.3013  1.9504 -0.3852
  195DOPC  H13S24147   0.152   1.109   5.068  0.8665 -0.7127 -0.8598
  195DOPC  C21424148   0.156   1.325   5.112 -0.2036 -0.9820 -0.1225
  195DOPC  H14R24149   0.046   1.340   5.110 -0.1257 -0.2638  0.3612
  195DOPC  H14S24150   0.197   1.422   5.076 -0.6667 -0.0654  1.6627
  195DOPC  C21524151   0.202   1.310   5.260 -0.1533  0.0256  0.0781
  195DOPC  H15R24152   0.174   1.403   5.314 -0.6097  0.2199 -0.4815
  195DOPC  H15S24153   0.312   1.296   5.264 -0.2681 -1.2967 -0.9854
  195DOPC  C21624154   0.138   1.195   5.345 -0.1851  0.1532  0.8141
  195DOPC  H16R24155   0.150   1.097   5.294 -3.8353 -0.7419  1.3944
  195DOPC  H16S24156   0.027   1.201   5.343 -0.2494 -0.8590 -0.6795
  195DOPC  C21724157   0.195   1.184   5.483  0.5089 -0.4896  0.1091
  195DOPC  H17R24158   0.193   1.284   5.531  0.4532 -0.8152  0.8049
  195DOPC  H17S24159   0.300   1.156   5.464  0.6762  0.8331 -1.0002
  195DOPC  C21824160   0.121   1.082   5.569  0.0598 -0.7140  0.1034
  195DOPC  H18R24161   0.024   1.122   5.606  1.6879  4.1110 -0.1467
  195DOPC  H18S24162   0.179   1.058   5.660 -3.2077 -1.2476  2.2334
  195DOPC  H18T24163   0.111   0.989   5.509  0.8254  0.7097 -2.3592
  195DOPC   C3324164  -0.046   0.516   4.274 -0.5561  0.2657 -0.3428
  195DOPC   H3X24165  -0.046   0.627   4.266 -0.8121  0.2784 -0.1696
  195DOPC   H3Y24166   0.056   0.474   4.285 -1.0867 -1.3825 -1.4015
  195DOPC   C3424167  -0.125   0.473   4.407  0.1204 -0.3741 -0.2186
  195DOPC   H4X24168  -0.149   0.365   4.405 -0.0006 -0.4067  1.4056
  195DOPC   H4Y24169  -0.224   0.524   4.410 -0.1982 -0.9055 -1.2625
  195DOPC   C3524170  -0.046   0.495   4.529 -0.2701 -0.1630 -0.3650
  195DOPC   H5X24171  -0.023   0.604   4.539 -2.5532  0.3434 -0.0465
  195DOPC   H5Y24172   0.051   0.443   4.523  0.2223  0.7770 -0.7790
  195DOPC   C3624173  -0.120   0.454   4.659 -0.4311 -0.2266  0.2682
  195DOPC   H6X24174  -0.205   0.523   4.677  0.5745  0.7808  1.2935
  195DOPC   H6Y24175  -0.167   0.353   4.652  1.5978 -1.2349  0.4116
  195DOPC   C3724176  -0.013   0.459   4.771  0.7085 -0.0021  0.3194
  195DOPC   H7X24177   0.068   0.387   4.750  0.8134 -0.0334  0.8235
  195DOPC   H7Y24178   0.031   0.561   4.772 -0.0490  0.3521 -0.4953
  195DOPC   C3824179  -0.073   0.454   4.906 -0.0802 -0.1221 -0.6302
  195DOPC   H8X24180   0.004   0.426   4.981 -0.4224 -2.0007 -0.9153
  195DOPC   H8Y24181  -0.139   0.366   4.916  1.4747 -1.2562  0.1904
  195DOPC   C3924182  -0.130   0.589   4.956  0.0208 -0.0557  0.6270
  195DOPC   H9X24183  -0.205   0.636   4.891  1.2092  0.7954 -0.1765
  195DOPC  C31024184  -0.091   0.662   5.058  0.2360 -0.0050 -0.8910
  195DOPC  H10X24185  -0.143   0.757   5.076  0.5211 -0.2374  1.4810
  195DOPC  C31124186   0.012   0.622   5.157 -0.8634 -0.3714 -1.0067
  195DOPC  H11X24187   0.090   0.698   5.176 -2.2392  0.8236  0.0798
  195DOPC  H11Y24188   0.068   0.533   5.122 -0.2894  0.3118 -1.8607
  195DOPC  C31224189  -0.041   0.593   5.288  0.2222 -0.0678  0.2103
  195DOPC  H12X24190  -0.132   0.530   5.287 -0.5105  0.8869 -2.4759
  195DOPC  H12Y24191  -0.078   0.693   5.319 -0.4144  0.0025 -0.7188
  195DOPC  C31324192   0.065   0.540   5.382 -0.2828  0.5849  0.8448
  195DOPC  H13X24193   0.074   0.431   5.366  1.1436  0.6675  0.9493
  195DOPC  H13Y24194   0.165   0.569   5.344 -0.4209  0.7083  0.5708
  195DOPC  C31424195   0.044   0.590   5.528  0.0544 -0.2350 -0.5768
  195DOPC  H14X24196   0.128   0.554   5.591 -0.1162  1.9262  0.9619
  195DOPC  H14Y24197   0.048   0.701   5.529  1.3396 -0.2072 -2.5065
  195DOPC  C31524198  -0.088   0.533   5.591  0.1314  0.4258  0.1757
  195DOPC  H15X24199  -0.078   0.423   5.582 -0.9948  0.1679  1.6072
  195DOPC  H15Y24200  -0.179   0.565   5.536 -0.0187  0.2663  0.3302
  195DOPC  C31624201  -0.083   0.570   5.739  0.5343  0.3147 -0.1207
  195DOPC  H16X24202   0.021   0.593   5.771 -0.4801  0.6906  3.3435
  195DOPC  H16Y24203  -0.140   0.663   5.759 -1.6895 -0.9989 -0.0732
  195DOPC  C31724204  -0.135   0.459   5.835 -0.2033 -1.0581  0.6428
  195DOPC  H17X24205  -0.239   0.431   5.808 -0.6952  0.3509  0.9415
  195DOPC  H17Y24206  -0.066   0.374   5.820 -0.8084 -1.3652 -0.4600
  195DOPC  C31824207  -0.125   0.498   5.982  0.5446  0.5894 -0.1694
  195DOPC  H18X24208  -0.083   0.599   6.002 -2.5035  1.6928  1.2783
  195DOPC  H18Y24209  -0.227   0.513   6.022  1.0627  2.6959  0.5322
  195DOPC  H18Z24210  -0.066   0.425   6.040 -1.9723  0.0657  1.8481
  196DOPC     N24211   0.960   2.648   3.420 -0.2389 -0.3306  0.7526
  196DOPC   C1224212   0.837   2.629   3.508  0.7239 -0.5973  0.0339
  196DOPC  H12A24213   0.775   2.559   3.454 -2.1762  1.9288 -0.1295
  196DOPC  H12B24214   0.779   2.720   3.508 -0.3105 -1.2249 -0.9809
  196DOPC   C1324215   1.059   2.753   3.472  0.4046  0.2802 -1.0333
  196DOPC  H13A24216   1.087   2.721   3.571  0.0900 -0.3691 -1.1494
  196DOPC  H13B24217   1.145   2.767   3.409 -0.4956 -0.9888 -2.6379
  196DOPC  H13C24218   1.010   2.848   3.480 -1.3744 -0.7151  1.0719
  196DOPC   C1424219   0.920   2.700   3.285  0.3537  0.0945  0.4033
  196DOPC  H14A24220   0.883   2.802   3.290  0.6722  0.2294  0.0048
  196DOPC  H14B24221   1.000   2.702   3.213 -1.6766  1.0415 -1.9781
  196DOPC  H14C24222   0.836   2.656   3.234  1.5307 -0.5865 -1.0021
  196DOPC   C1524223   1.026   2.517   3.401  0.0375  0.1654 -0.4395
  196DOPC  H15A24224   1.114   2.530   3.340  0.7046  1.1572  0.7000
  196DOPC  H15B24225   0.953   2.449   3.360 -0.8909 -0.2128  1.7070
  196DOPC  H15C24226   1.062   2.478   3.495 -0.8803  0.4783  0.0476
  196DOPC   C1124227   0.854   2.603   3.662  0.1331  0.4283 -0.1826
  196DOPC  H11A24228   0.749   2.586   3.695 -0.2946 -1.7491 -2.3926
  196DOPC  H11B24229   0.914   2.510   3.670  0.0411  0.3251 -0.6415
  196DOPC     P24230   0.831   2.832   3.766 -0.2044 -0.0693 -0.1695
  196DOPC   O1324231   0.732   2.842   3.660 -0.1163 -0.1254 -0.4959
  196DOPC   O1424232   0.917   2.953   3.789  0.1862 -0.1181  0.0676
  196DOPC   O1224233   0.921   2.708   3.737  0.0658 -0.2669 -0.0567
  196DOPC   O1124234   0.762   2.790   3.904 -0.7610  0.2661 -0.2134
  196DOPC    C124235   0.792   2.667   3.972 -0.4604 -0.7916 -0.3813
  196DOPC    HA24236   0.902   2.648   3.969  0.2137  1.9370  2.2671
  196DOPC    HB24237   0.731   2.584   3.931 -1.8604 -1.4791  2.8618
  196DOPC    C224238   0.775   2.680   4.128 -0.1054 -0.7145  0.1907
  196DOPC    HS24239   0.814   2.583   4.167  1.1257  0.2169  1.3565
  196DOPC   O2124240   0.636   2.706   4.167  0.1750 -0.1732  0.1784
  196DOPC   C2124241   0.568   2.599   4.205  0.4816  0.1256 -0.0723
  196DOPC   O2224242   0.607   2.483   4.208  0.1336  1.1084 -0.1455
  196DOPC   C2224243   0.424   2.636   4.256  0.4616 -0.3913 -0.9428
  196DOPC   H2R24244   0.366   2.546   4.286 -1.7342  1.7842  1.8915
  196DOPC   H2S24245   0.364   2.690   4.179 -1.5787 -0.1246  0.7149
  196DOPC    C324246   0.867   2.787   4.172  0.2047 -0.3105 -0.3001
  196DOPC    HX24247   0.855   2.870   4.100 -0.0175  1.3926  1.6075
  196DOPC    HY24248   0.966   2.737   4.174  0.5961  0.4706  0.6934
  196DOPC   O3124249   0.842   2.848   4.304 -0.1090 -0.1141  0.0573
  196DOPC   C3124250   0.852   2.764   4.410  0.5914 -0.6795  0.6412
  196DOPC   O3224251   0.873   2.647   4.414  0.1420  0.2415  0.7882
  196DOPC   C3224252   0.833   2.845   4.539 -0.3108 -0.0368 -0.2749
  196DOPC   H2X24253   0.853   2.954   4.523 -1.1960  0.3505  1.0666
  196DOPC   H2Y24254   0.725   2.842   4.566 -0.6980 -0.8399 -1.8113
  196DOPC   C2324255   0.437   2.724   4.379  0.2116 -0.2711  0.2139
  196DOPC   H3R24256   0.345   2.785   4.388  0.5532  0.4383 -0.9168
  196DOPC   H3S24257   0.523   2.795   4.372 -1.1301  1.4410  0.4960
  196DOPC   C2424258   0.445   2.631   4.500  0.5296  0.7190  1.4033
  196DOPC   H4R24259   0.542   2.576   4.498 -0.2870 -0.7693 -0.1456
  196DOPC   H4S24260   0.359   2.561   4.489  0.2609  1.1074  0.9765
  196DOPC   C2524261   0.446   2.706   4.627  0.4947  0.3929 -0.0686
  196DOPC   H5R24262   0.338   2.734   4.626  0.1046 -1.0083 -0.4524
  196DOPC   H5S24263   0.510   2.797   4.623  0.0533  0.6936 -0.3693
  196DOPC   C2624264   0.451   2.634   4.763 -0.5852 -0.0841 -0.0574
  196DOPC   H6R24265   0.544   2.573   4.758 -0.4446  0.1891 -3.8867
  196DOPC   H6S24266   0.356   2.577   4.771 -0.9539  0.2106 -1.9188
  196DOPC   C2724267   0.463   2.721   4.892  0.7985 -0.4047  0.2472
  196DOPC   H7R24268   0.357   2.748   4.909  0.1670 -2.1564 -0.6575
  196DOPC   H7S24269   0.517   2.816   4.874 -1.2628  0.5651 -1.1537
  196DOPC   C2824270   0.517   2.647   5.017  0.7155  0.0979 -0.3217
  196DOPC   H8R24271   0.604   2.585   4.988  0.0137 -1.7381  1.2370
  196DOPC   H8S24272   0.435   2.581   5.054  0.4924 -0.3365 -1.5413
  196DOPC   C2924273   0.570   2.747   5.115  0.1046  0.2747 -0.0249
  196DOPC   H9R24274   0.602   2.845   5.077 -2.9000  2.5093  2.6158
  196DOPC  C21024275   0.572   2.734   5.247  0.1698 -0.4251 -0.1128
  196DOPC  H10R24276   0.637   2.801   5.305 -0.3058 -0.4910  0.5027
  196DOPC  C21124277   0.555   2.594   5.309  1.1313 -0.4705  0.2425
  196DOPC  H11R24278   0.625   2.519   5.264  1.6752  0.1327  0.0718
  196DOPC  H11S24279   0.453   2.559   5.284  0.9658  0.9077 -1.1646
  196DOPC  C21224280   0.590   2.602   5.457  0.2936 -0.2975  0.0125
  196DOPC  H12R24281   0.682   2.664   5.469 -1.0820  1.7082  0.6385
  196DOPC  H12S24282   0.600   2.504   5.508 -2.2645  0.5289  2.3195
  196DOPC  C21324283   0.471   2.661   5.538  0.3238 -0.0283 -0.2717
  196DOPC  H13R24284   0.389   2.585   5.545  1.2214 -0.9125  1.1425
  196DOPC  H13S24285   0.432   2.743   5.474 -1.8312 -1.6742 -1.2084
  196DOPC  C21424286   0.488   2.713   5.684  0.8073  0.2694  0.4077
  196DOPC  H14R24287   0.527   2.620   5.729 -0.5617 -0.4808  0.1007
  196DOPC  H14S24288   0.386   2.732   5.725  0.6876 -0.5686  0.5144
  196DOPC  C21524289   0.596   2.825   5.712  0.1380 -0.0637 -0.0628
  196DOPC  H15R24290   0.573   2.928   5.677  1.5677  0.4907  0.5177
  196DOPC  H15S24291   0.686   2.790   5.657 -0.2810 -0.6880 -0.3607
  196DOPC  C21624292   0.638   2.841   5.863 -0.5456 -0.0936  0.1089
  196DOPC  H16R24293   0.728   2.905   5.875  0.7338 -1.9200  0.8328
  196DOPC  H16S24294   0.683   2.750   5.908  0.8197 -0.5380 -2.0220
  196DOPC  C21724295   0.524   2.915   5.941 -0.3835 -0.3647  0.5190
  196DOPC  H17R24296   0.448   2.836   5.960 -1.0562  0.2522  0.4560
  196DOPC  H17S24297   0.486   2.996   5.875  1.3890  0.1870  0.1321
  196DOPC  C21824298   0.571   2.989   6.067  0.0811  1.2972  0.3754
  196DOPC  H18R24299   0.491   3.006   6.142  2.0729  1.7149  2.4876
  196DOPC  H18S24300   0.615   3.089   6.050  2.5631  0.4572  1.4344
  196DOPC  H18T24301   0.651   2.935   6.122 -0.2443  1.0514  0.6162
  196DOPC   C3324302   0.923   2.796   4.657 -0.1551  0.0423 -0.0964
  196DOPC   H3X24303   1.028   2.820   4.631 -1.0268  2.5144 -1.8222
  196DOPC   H3Y24304   0.922   2.686   4.668  0.1625  0.0345 -0.1397
  196DOPC   C3424305   0.880   2.839   4.800  0.0784  0.6262 -0.6623
  196DOPC   H4X24306   0.781   2.791   4.813 -0.0862  1.0354 -0.3564
  196DOPC   H4Y24307   0.871   2.950   4.806 -0.9891  0.4944  0.3687
  196DOPC   C3524308   0.958   2.779   4.920  0.1637 -0.3289 -0.1057
  196DOPC   H5X24309   1.068   2.772   4.904  0.4028 -1.9212  1.8726
  196DOPC   H5Y24310   0.919   2.677   4.939  0.6845 -0.6337 -0.6437
  196DOPC   C3624311   0.944   2.862   5.047 -0.1704  0.2425 -0.1137
  196DOPC   H6X24312   0.964   2.968   5.022  1.3300  0.4425  1.6727
  196DOPC   H6Y24313   0.838   2.844   5.075 -0.3983 -1.7191 -1.9370
  196DOPC   C3724314   1.031   2.798   5.160  0.9019 -0.1123  0.0206
  196DOPC   H7X24315   1.004   2.695   5.189  0.8090  0.2503  1.2987
  196DOPC   H7Y24316   1.134   2.788   5.119  0.0846 -0.5578 -2.0851
  196DOPC   C3824317   1.037   2.879   5.291 -0.3194  0.2301  0.3641
  196DOPC   H8X24318   0.935   2.874   5.334 -0.0453  0.7260  1.1017
  196DOPC   H8Y24319   1.054   2.982   5.252 -0.1044 -0.0174 -0.1984
  196DOPC   C3924320   1.137   2.822   5.389 -0.1032 -0.4411  0.7086
  196DOPC   H9X24321   1.240   2.796   5.357 -0.5302 -2.0251  0.5564
  196DOPC  C31024322   1.114   2.811   5.522 -0.0279  0.3189  0.4741
  196DOPC  H10X24323   1.186   2.754   5.583 -0.5340  0.3629  1.1269
  196DOPC  C31124324   0.991   2.852   5.603 -0.0805 -0.3386 -0.1009
  196DOPC  H11X24325   0.901   2.819   5.546  0.0398  0.5038 -0.7991
  196DOPC  H11Y24326   0.969   2.961   5.598 -0.2442 -0.3921 -0.6295
  196DOPC  C31224327   1.000   2.806   5.747 -0.5771 -0.4838  0.2147
  196DOPC  H12X24328   1.035   2.701   5.752 -0.9552 -0.6404 -0.3549
  196DOPC  H12Y24329   0.899   2.819   5.790 -1.2500 -1.3873 -1.0513
  196DOPC  C31324330   1.100   2.894   5.833 -0.3294  0.3145 -0.2184
  196DOPC  H13X24331   1.204   2.902   5.794  0.5739 -1.4705  1.6009
  196DOPC  H13Y24332   1.055   2.995   5.836 -2.9501 -0.7587 -0.3717
  196DOPC  C31424333   1.133   2.823   5.967 -0.0586  0.3580 -0.5413
  196DOPC  H14X24334   1.042   2.794   6.024  0.9756 -0.2945  0.8485
  196DOPC  H14Y24335   1.194   2.733   5.942  0.5305  0.2751  1.0562
  196DOPC  C31524336   1.220   2.912   6.057  0.6810 -0.3977 -0.7661
  196DOPC  H15X24337   1.292   2.971   5.996  0.5756  0.1108 -0.4134
  196DOPC  H15Y24338   1.283   2.840   6.114 -0.9087  0.2734  2.0534
  196DOPC  C31624339   1.137   3.008   6.148  0.2346 -0.0270  0.6961
  196DOPC  H16X24340   1.082   2.960   6.232 -0.4277  1.9563  1.4618
  196DOPC  H16Y24341   1.199   3.088   6.192 -0.1456  1.2379 -0.9590
  196DOPC  C31724342   1.021   3.089   6.083  0.2080 -0.0395 -0.3853
  196DOPC  H17X24343   1.063   3.148   5.998  0.9335  0.0396  0.0199
  196DOPC  H17Y24344   0.932   3.032   6.049 -3.4559  3.8361  1.8684
  196DOPC  C31824345   0.949   3.194   6.172 -0.2953 -0.5064  0.1762
  196DOPC  H18X24346   0.913   3.152   6.268 -2.3242 -0.7672 -0.6516
  196DOPC  H18Y24347   1.018   3.279   6.192 -0.4250 -0.4158  0.2391
  196DOPC  H18Z24348   0.862   3.234   6.115 -1.0841  0.6005  2.0490
  197DOPC     N24349   2.039   0.560   3.777 -0.2235  0.4285 -0.0290
  197DOPC   C1224350   2.076   0.514   3.917 -0.8611 -0.6217  0.3682
  197DOPC  H12A24351   2.179   0.546   3.928 -0.5388 -1.8276  1.0060
  197DOPC  H12B24352   2.072   0.406   3.914 -1.0803 -0.6094  0.2088
  197DOPC   C1324353   1.890   0.549   3.772 -0.6688 -0.1086  0.2034
  197DOPC  H13A24354   1.855   0.601   3.684  0.1368  0.7014  0.3550
  197DOPC  H13B24355   1.858   0.446   3.787  2.2843 -1.3243 -1.0594
  197DOPC  H13C24356   1.859   0.609   3.856  0.7293 -0.3259  0.9084
  197DOPC   C1424357   2.100   0.486   3.664  0.4455 -0.0221 -0.0443
  197DOPC  H14A24358   2.076   0.531   3.569  0.3164 -0.1414 -0.0697
  197DOPC  H14B24359   2.207   0.491   3.669  0.5376 -1.7755  0.6735
  197DOPC  H14C24360   2.075   0.381   3.669  1.4298 -0.3642 -1.8373
  197DOPC   C1524361   2.083   0.702   3.750  0.1724 -0.1114  0.4870
  197DOPC  H15A24362   2.190   0.702   3.734  0.0116  0.0439 -0.6329
  197DOPC  H15B24363   2.050   0.763   3.834 -1.5525 -0.7134  0.2769
  197DOPC  H15C24364   2.053   0.753   3.660  1.2735  0.9922  0.6964
  197DOPC   C1124365   2.001   0.571   4.041  0.7443 -0.1922  0.6103
  197DOPC  H11A24366   1.894   0.541   4.035  0.7201 -0.0420  0.2724
  197DOPC  H11B24367   2.039   0.527   4.135  1.2476 -1.0650  0.0187
  197DOPC     P24368   1.916   0.825   4.071  0.1678  0.0116  0.1569
  197DOPC   O1324369   1.838   0.837   3.943 -0.0091  0.1069  0.1650
  197DOPC   O1424370   1.991   0.942   4.114  0.5480  0.3002  0.0839
  197DOPC   O1224371   2.023   0.712   4.049 -0.6481  0.1479  0.4851
  197DOPC   O1124372   1.822   0.772   4.183  0.3491  0.1299  0.3784
  197DOPC    C124373   1.863   0.723   4.310 -0.7204 -0.3269  0.3495
  197DOPC    HA24374   1.974   0.713   4.311 -0.6792 -0.6974 -1.9098
  197DOPC    HB24375   1.825   0.619   4.322 -0.5035 -0.3393  0.9472
  197DOPC    C224376   1.809   0.811   4.422  0.5690 -0.3857  0.0837
  197DOPC    HS24377   1.866   0.773   4.509  2.3546  0.4969 -0.6360
  197DOPC   O2124378   1.669   0.797   4.446  0.1597  0.1653 -0.1860
  197DOPC   C2124379   1.634   0.692   4.520 -0.0463  0.5843 -0.0782
  197DOPC   O2224380   1.712   0.604   4.550 -0.0145 -0.3496  0.5906
  197DOPC   C2224381   1.492   0.714   4.563  0.4309  0.5313 -0.1833
  197DOPC   H2R24382   1.434   0.671   4.478  1.5760 -0.0771 -0.6922
  197DOPC   H2S24383   1.473   0.822   4.582 -0.4927  0.3267  0.0847
  197DOPC    C324384   1.847   0.964   4.414  0.0827  0.3013 -0.2399
  197DOPC    HX24385   1.787   0.999   4.327 -1.8096  1.0313  1.2959
  197DOPC    HY24386   1.956   0.972   4.394 -0.2996  2.0603 -1.9731
  197DOPC   O3124387   1.814   1.038   4.531 -0.1801  0.4259 -0.0594
  197DOPC   C3124388   1.875   1.156   4.544  0.2457  0.7282 -0.2383
  197DOPC   O3224389   1.935   1.208   4.454  0.2622 -0.2135  0.2002
  197DOPC   C3224390   1.859   1.219   4.687  0.1169 -0.5582  0.5628
  197DOPC   H2X24391   1.892   1.325   4.678  1.3371 -1.0216 -0.7437
  197DOPC   H2Y24392   1.749   1.218   4.703 -0.1185 -0.5695 -0.9628
  197DOPC   C2324393   1.436   0.623   4.676 -0.9271  0.3083 -0.0231
  197DOPC   H3R24394   1.513   0.631   4.756 -0.8048 -0.5958 -0.0417
  197DOPC   H3S24395   1.428   0.516   4.647  2.0127 -0.3878  1.4089
  197DOPC   C2424396   1.304   0.671   4.725  1.0157 -0.6952 -0.1865
  197DOPC   H4R24397   1.218   0.671   4.655  1.1799  0.2444 -0.4008
  197DOPC   H4S24398   1.314   0.777   4.757  0.2335  0.0969 -2.3611
  197DOPC   C2524399   1.256   0.600   4.859 -0.2771 -0.1695  0.0639
  197DOPC   H5R24400   1.262   0.491   4.841  0.2202 -0.0121 -0.7574
  197DOPC   H5S24401   1.150   0.628   4.872 -0.4470 -0.5117 -0.5519
  197DOPC   C2624402   1.346   0.641   4.986  0.6094  0.3062 -0.8766
  197DOPC   H6R24403   1.338   0.751   5.001  0.9393 -0.0147  2.2460
  197DOPC   H6S24404   1.451   0.610   4.970  1.0824  0.8891  0.9263
  197DOPC   C2724405   1.299   0.565   5.110  0.2978 -0.5314  0.4355
  197DOPC   H7R24406   1.293   0.457   5.083 -1.8819 -0.2266 -0.5021
  197DOPC   H7S24407   1.200   0.605   5.138  0.5223  0.5824 -0.2880
  197DOPC   C2824408   1.392   0.582   5.233  0.1840  0.1073 -0.7675
  197DOPC   H8R24409   1.381   0.687   5.265 -0.6813 -0.6656  1.7164
  197DOPC   H8S24410   1.493   0.556   5.196  0.5476 -2.3586  1.6382
  197DOPC   C2924411   1.344   0.490   5.338  0.2949  0.0939 -0.0308
  197DOPC   H9R24412   1.354   0.383   5.315  0.3957 -0.0632  0.7348
  197DOPC  C21024413   1.285   0.523   5.450 -0.0427  0.1920  0.2374
  197DOPC  H10R24414   1.256   0.436   5.510 -1.0236  0.0095 -0.4929
  197DOPC  C21124415   1.264   0.662   5.510  0.2572 -0.1296  0.2654
  197DOPC  H11R24416   1.274   0.735   5.427  1.5608  0.0137  0.5194
  197DOPC  H11S24417   1.341   0.686   5.588 -0.2556 -0.5292  0.9032
  197DOPC  C21224418   1.142   0.670   5.599  0.5214 -0.7999 -0.3465
  197DOPC  H12R24419   1.053   0.637   5.542  0.7802 -0.2371 -1.0867
  197DOPC  H12S24420   1.116   0.777   5.617 -2.3241 -0.7042 -3.9017
  197DOPC  C21324421   1.159   0.589   5.726 -0.2985  0.1605  0.5245
  197DOPC  H13R24422   1.256   0.609   5.777 -0.8115 -1.0558  2.0867
  197DOPC  H13S24423   1.171   0.481   5.701  0.4750  0.6407 -1.3031
  197DOPC  C21424424   1.034   0.591   5.830 -0.4231 -1.6033  0.3914
  197DOPC  H14R24425   0.945   0.570   5.767 -0.5867  0.7814 -0.2615
  197DOPC  H14S24426   1.028   0.692   5.877 -1.8710 -0.8499 -1.2778
  197DOPC  C21524427   1.045   0.488   5.938 -0.2701 -0.3447  0.1776
  197DOPC  H15R24428   1.151   0.496   5.970  0.0893  0.2159 -1.0884
  197DOPC  H15S24429   1.035   0.390   5.888  1.9246 -0.0597 -0.8954
  197DOPC  C21624430   0.955   0.503   6.068  0.0760 -0.2466 -0.7395
  197DOPC  H16R24431   0.848   0.484   6.044 -0.3803 -0.6221  1.3945
  197DOPC  H16S24432   0.959   0.607   6.106 -1.6067 -0.2148 -0.5682
  197DOPC  C21724433   0.997   0.411   6.189  0.1076 -0.3912 -0.0995
  197DOPC  H17R24434   0.922   0.440   6.265  0.7325 -0.0936  0.4121
  197DOPC  H17S24435   1.094   0.442   6.234 -0.4815 -0.3745  1.1913
  197DOPC  C21824436   1.010   0.258   6.163  0.5676 -0.0333 -0.2173
  197DOPC  H18R24437   1.019   0.196   6.255 -1.8928  0.0039  0.1195
  197DOPC  H18S24438   1.083   0.224   6.086  0.3921  0.6892 -0.7204
  197DOPC  H18T24439   0.916   0.217   6.120 -0.5813  0.0697  2.0694
  197DOPC   C3324440   1.922   1.153   4.811 -0.4469 -0.8062  0.4322
  197DOPC   H3X24441   2.031   1.141   4.792 -0.9289 -1.9712 -1.8767
  197DOPC   H3Y24442   1.878   1.052   4.824  0.2170 -1.3287 -1.1936
  197DOPC   C3424443   1.903   1.231   4.937 -0.3488  0.3322 -0.4247
  197DOPC   H4X24444   1.798   1.264   4.951  0.5077  3.8612 -1.2163
  197DOPC   H4Y24445   1.964   1.324   4.932 -0.0121  0.0664 -1.6189
  197DOPC   C3524446   1.945   1.161   5.060  0.0443 -0.1480 -0.7263
  197DOPC   H5X24447   2.054   1.144   5.058 -0.2335 -2.2534 -0.7151
  197DOPC   H5Y24448   1.903   1.059   5.071  1.0530 -0.4679  0.3227
  197DOPC   C3624449   1.917   1.232   5.192  0.0028 -0.8167  0.2709
  197DOPC   H6X24450   1.958   1.335   5.197 -2.3000  0.1756  0.1600
  197DOPC   H6Y24451   1.806   1.240   5.203  0.0140 -0.9898  0.5168
  197DOPC   C3724452   1.974   1.150   5.313 -0.5770 -0.1020 -0.5770
  197DOPC   H7X24453   1.930   1.048   5.323 -0.1443 -0.3483 -1.0929
  197DOPC   H7Y24454   2.081   1.129   5.292  0.0671  1.6682  0.7303
  197DOPC   C3824455   1.971   1.217   5.455 -0.3099 -0.2524  0.4101
  197DOPC   H8X24456   2.026   1.313   5.465 -0.4694 -0.0571 -0.4924
  197DOPC   H8Y24457   2.010   1.149   5.533  0.7023 -0.5196 -0.3097
  197DOPC   C3924458   1.839   1.268   5.504  0.6520 -0.2132 -0.4504
  197DOPC   H9X24459   1.792   1.328   5.425  0.1378  0.8004  0.5931
  197DOPC  C31024460   1.764   1.253   5.615 -0.0193  0.6463  0.5254
  197DOPC  H10X24461   1.666   1.302   5.630 -0.1887  0.2348  0.7746
  197DOPC  C31124462   1.805   1.178   5.739 -0.4712 -0.3623 -0.5474
  197DOPC  H11X24463   1.813   1.075   5.698  0.4737  0.1768 -1.7984
  197DOPC  H11Y24464   1.719   1.179   5.810  0.5066  3.1002  0.8056
  197DOPC  C31224465   1.926   1.217   5.820  0.2111 -1.0512  0.6180
  197DOPC  H12X24466   1.919   1.314   5.874 -0.4406 -0.6534 -0.1706
  197DOPC  H12Y24467   2.016   1.229   5.756  0.2457 -1.3839  0.6038
  197DOPC  C31324468   1.963   1.114   5.926 -0.1637 -0.0212 -0.1191
  197DOPC  H13X24469   1.877   1.118   5.996 -1.9359 -1.9764 -2.0442
  197DOPC  H13Y24470   1.957   1.012   5.883 -0.6078 -0.4387  0.8835
  197DOPC  C31424471   2.101   1.149   5.990  0.3552 -0.0896 -0.0649
  197DOPC  H14X24472   2.102   1.249   6.039  2.0260 -0.3766  0.5289
  197DOPC  H14Y24473   2.108   1.074   6.071  1.7991 -0.6681 -0.7056
  197DOPC  C31524474   2.218   1.145   5.889 -0.1059  0.6103 -0.3365
  197DOPC  H15X24475   2.216   1.238   5.828  1.3490  0.9078  0.0343
  197DOPC  H15Y24476   2.200   1.063   5.816  0.8030 -0.8834  1.0643
  197DOPC  C31624477   2.350   1.123   5.970  0.4979  0.4216 -0.0932
  197DOPC  H16X24478   2.364   1.210   6.038  1.2565  0.5172 -0.3625
  197DOPC  H16Y24479   2.342   1.036   6.039  0.4163  0.7883  0.3614
  197DOPC  C31724480   2.474   1.118   5.883  0.4721 -0.5905  0.3506
  197DOPC  H17X24481   2.465   1.029   5.818  1.0040 -0.7913  0.5508
  197DOPC  H17Y24482   2.480   1.210   5.822  2.4324 -0.2419  0.9975
  197DOPC  C31824483   2.601   1.105   5.977  0.6550  0.1003  0.0308
  197DOPC  H18X24484   2.692   1.084   5.916 -1.3808  0.3481 -3.3789
  197DOPC  H18Y24485   2.619   1.201   6.029  0.1140  0.4154 -0.3493
  197DOPC  H18Z24486   2.600   1.016   6.043 -2.9140 -1.2807 -1.6092
  198DOPC     N24487   6.642   6.685   3.357  0.3550 -0.0057 -0.2139
  198DOPC   C1224488   6.601   6.737   3.491 -0.6773 -1.2813  1.1475
  198DOPC  H12A24489   6.586   6.651   3.555 -1.6963 -1.7374  0.3325
  198DOPC  H12B24490   6.514   6.795   3.465  1.0339  1.2829  0.7925
  198DOPC   C1324491   6.760   6.594   3.376  0.0073  0.8868 -0.2181
  198DOPC  H13A24492   6.835   6.653   3.426 -0.8945  0.2993  1.9490
  198DOPC  H13B24493   6.735   6.507   3.435  2.1267 -1.2247 -2.1807
  198DOPC  H13C24494   6.797   6.559   3.280 -0.7513  2.8698 -1.2771
  198DOPC   C1424495   6.672   6.800   3.268  0.3170 -0.2144  0.1044
  198DOPC  H14A24496   6.762   6.857   3.284  1.7225 -1.5945 -2.3203
  198DOPC  H14B24497   6.678   6.770   3.165 -0.8681  0.7424 -0.2713
  198DOPC  H14C24498   6.590   6.870   3.269  1.8551  1.6646 -0.5050
  198DOPC   C1524499   6.531   6.600   3.302  0.4202 -0.4322 -0.4877
  198DOPC  H15A24500   6.441   6.659   3.311  2.0184  2.5288 -2.2413
  198DOPC  H15B24501   6.527   6.501   3.345  1.2418 -1.2630 -2.2028
  198DOPC  H15C24502   6.555   6.599   3.196  0.0104 -0.3498 -0.5837
  198DOPC   C1124503   6.705   6.829   3.555  0.3004  0.2869 -0.4599
  198DOPC  H11A24504   6.745   6.911   3.492 -1.1121  2.3443  1.1558
  198DOPC  H11B24505   6.645   6.884   3.630 -0.5933 -0.6540 -0.4564
  198DOPC     P24506   6.809   6.681   3.742 -0.1999 -0.3543  0.9180
  198DOPC   O1324507   6.943   6.639   3.784 -0.6627  0.1318  0.1134
  198DOPC   O1424508   6.707   6.575   3.732 -0.0509 -0.1729  0.1113
  198DOPC   O1224509   6.818   6.752   3.607  0.2086  0.0008  0.2255
  198DOPC   O1124510   6.758   6.800   3.836 -0.0563 -0.5248 -0.2528
  198DOPC    C124511   6.859   6.878   3.904  0.0839 -0.3146 -0.1060
  198DOPC    HA24512   6.836   6.986   3.911  1.6146 -0.0634  2.6957
  198DOPC    HB24513   6.959   6.883   3.856 -0.6672 -0.4764 -1.7387
  198DOPC    C224514   6.889   6.818   4.044  0.2846  0.1786  0.7590
  198DOPC    HS24515   6.917   6.712   4.027  0.1952  0.5198 -2.1225
  198DOPC   O2124516   6.772   6.844   4.119  0.2572 -0.1778 -0.4363
  198DOPC   C2124517   6.744   6.749   4.205 -0.2778  0.0007 -0.3852
  198DOPC   O2224518   6.780   6.633   4.209 -0.4202 -0.2098  0.2510
  198DOPC   C2224519   6.658   6.811   4.312 -0.4410  0.0169  0.0102
  198DOPC   H2R24520   6.563   6.846   4.267  0.8230  1.1433 -1.9385
  198DOPC   H2S24521   6.714   6.904   4.337  1.0945 -0.8435 -0.0543
  198DOPC    C324522   7.003   6.895   4.111 -0.5294 -0.4052 -0.2083
  198DOPC    HX24523   6.975   7.003   4.109 -1.6393 -0.6880 -0.6041
  198DOPC    HY24524   7.094   6.895   4.048 -2.1903  0.1328 -2.7488
  198DOPC   O3124525   7.023   6.844   4.242  0.1272 -0.2051 -0.2753
  198DOPC   C3124526   7.102   6.742   4.245  0.6243  0.3498  0.0411
  198DOPC   O3224527   7.142   6.676   4.151  0.3391  0.0587  0.0533
  198DOPC   C3224528   7.134   6.716   4.394  1.3308 -0.1481  0.3124
  198DOPC   H2X24529   7.244   6.727   4.407  1.5881  1.3839 -2.3386
  198DOPC   H2Y24530   7.095   6.805   4.448 -1.4773 -0.8064 -0.4964
  198DOPC   C2324531   6.648   6.710   4.432  0.1314  0.0723  0.2814
  198DOPC   H3R24532   6.748   6.662   4.436 -0.9158 -2.3194  0.0459
  198DOPC   H3S24533   6.581   6.624   4.408 -1.1022  1.2599 -0.7015
  198DOPC   C2424534   6.602   6.781   4.567  0.3226 -0.0626  0.5987
  198DOPC   H4R24535   6.502   6.828   4.555  0.2238 -0.6507 -1.2836
  198DOPC   H4S24536   6.674   6.861   4.593  0.8651 -1.1240  2.5067
  198DOPC   C2524537   6.610   6.690   4.684 -0.1611 -0.6749  0.1986
  198DOPC   H5R24538   6.713   6.667   4.721 -0.7777 -0.6714  2.0149
  198DOPC   H5S24539   6.570   6.588   4.668  0.2668 -0.6928 -0.8176
  198DOPC   C2624540   6.532   6.744   4.807 -0.1909  0.7909  0.0949
  198DOPC   H6R24541   6.425   6.738   4.777 -0.5774 -1.1564  1.6241
  198DOPC   H6S24542   6.545   6.851   4.830 -0.9828  0.7807  0.6443
  198DOPC   C2724543   6.556   6.665   4.928  0.6992  0.2242  0.3906
  198DOPC   H7R24544   6.665   6.662   4.949  0.4601  1.1313  1.9403
  198DOPC   H7S24545   6.523   6.562   4.905 -3.1255  1.6595 -1.3994
  198DOPC   C2824546   6.464   6.714   5.044 -0.2839  0.5983 -0.2342
  198DOPC   H8R24547   6.466   6.639   5.126 -0.0549  0.2913 -0.5142
  198DOPC   H8S24548   6.361   6.702   5.003  0.0677 -1.0887 -0.7176
  198DOPC   C2924549   6.495   6.849   5.091 -0.5004 -1.9908 -0.3253
  198DOPC   H9R24550   6.597   6.884   5.070 -0.1647 -2.5500  0.3504
  198DOPC  C21024551   6.416   6.921   5.174 -0.1762 -0.5703  0.1646
  198DOPC  H10R24552   6.446   7.023   5.205 -0.7771 -0.3414  0.0084
  198DOPC  C21124553   6.284   6.870   5.230 -0.5170 -0.5520 -0.3496
  198DOPC  H11R24554   6.249   6.781   5.173  0.5440 -1.6100  0.5947
  198DOPC  H11S24555   6.212   6.955   5.222 -2.0043 -1.8333 -1.2650
  198DOPC  C21224556   6.302   6.841   5.378  0.4067 -0.1301  0.1803
  198DOPC  H12R24557   6.381   6.902   5.425  1.6867 -1.8969  0.4507
  198DOPC  H12S24558   6.330   6.734   5.393 -2.5166 -1.0443 -0.0675
  198DOPC  C21324559   6.167   6.855   5.453  0.9321  0.0587 -0.2899
  198DOPC  H13R24560   6.091   6.783   5.416  0.5457 -0.4035  1.2972
  198DOPC  H13S24561   6.123   6.955   5.431 -0.6954 -0.2549  1.3046
  198DOPC  C21424562   6.191   6.852   5.605  0.7321  0.5248  0.5958
  198DOPC  H14R24563   6.266   6.932   5.621  0.6639  0.7914 -0.3500
  198DOPC  H14S24564   6.249   6.760   5.630  0.5147  0.0964 -0.4045
  198DOPC  C21524565   6.064   6.859   5.690  0.1056  0.1242 -0.5550
  198DOPC  H15R24566   6.002   6.772   5.662 -3.4141  2.4951 -0.8207
  198DOPC  H15S24567   6.012   6.955   5.670  2.5474  1.6689  0.0558
  198DOPC  C21624568   6.104   6.840   5.838 -0.7542  0.1905 -0.6064
  198DOPC  H16R24569   6.186   6.910   5.862  0.0827 -0.0948 -2.4641
  198DOPC  H16S24570   6.140   6.737   5.856  0.6000  0.3605 -2.0766
  198DOPC  C21724571   5.981   6.859   5.930  0.2850  0.4471  0.1020
  198DOPC  H17R24572   5.891   6.827   5.873 -0.0251  1.9662 -0.2963
  198DOPC  H17S24573   5.967   6.969   5.932  1.9275  0.6852 -0.6341
  198DOPC  C21824574   5.990   6.791   6.067  0.6065 -0.2265  0.4786
  198DOPC  H18R24575   5.905   6.824   6.131  1.5051 -3.2874  3.5182
  198DOPC  H18S24576   6.084   6.810   6.123 -0.0775  0.4161  1.4362
  198DOPC  H18T24577   5.970   6.684   6.048 -0.2692 -0.1574  0.9864
  198DOPC   C3324578   7.074   6.578   4.450  0.1139 -0.0700 -0.0857
  198DOPC   H3X24579   7.091   6.493   4.381  0.4111 -0.2033  0.1497
  198DOPC   H3Y24580   6.966   6.602   4.459  0.4412  1.4264  0.1322
  198DOPC   C3424581   7.133   6.535   4.589  0.3956  0.1816  0.7990
  198DOPC   H4X24582   7.230   6.490   4.560  0.9232  2.6360 -1.8362
  198DOPC   H4Y24583   7.072   6.448   4.620 -0.1729  0.1556 -0.3124
  198DOPC   C3524584   7.148   6.647   4.694  0.1970  0.0951 -0.2301
  198DOPC   H5X24585   7.210   6.730   4.654  0.3594 -0.3111 -0.8359
  198DOPC   H5Y24586   7.221   6.609   4.768  2.1318  3.0471 -0.4553
  198DOPC   C3624587   7.021   6.700   4.763 -0.3885  0.4784  0.3827
  198DOPC   H6X24588   6.950   6.735   4.686  0.4287  0.4323 -0.4168
  198DOPC   H6Y24589   6.969   6.623   4.824 -1.9026  2.1610  1.2876
  198DOPC   C3724590   7.053   6.819   4.855 -0.5237 -0.0587  0.1988
  198DOPC   H7X24591   7.133   6.797   4.929  0.2912 -0.0102 -0.6488
  198DOPC   H7Y24592   7.105   6.904   4.807  0.6223 -0.1355  1.2528
  198DOPC   C3824593   6.922   6.872   4.914  0.4443 -0.0065  0.3685
  198DOPC   H8X24594   6.872   6.785   4.961  3.0756 -1.6305  0.3359
  198DOPC   H8Y24595   6.862   6.921   4.834  0.3745  0.3143  0.6167
  198DOPC   C3924596   6.931   6.979   5.024  0.9832 -0.1753 -0.0045
  198DOPC   H9X24597   6.912   7.083   4.994  1.9239  0.8815  2.7207
  198DOPC  C31024598   6.940   6.946   5.154 -0.0639 -0.3398 -0.0708
  198DOPC  H10X24599   6.948   7.025   5.230  0.3720 -2.4149  2.1735
  198DOPC  C31124600   6.958   6.809   5.212  0.6361 -0.6878  0.2137
  198DOPC  H11X24601   7.050   6.792   5.272 -1.3327  0.5370  3.8674
  198DOPC  H11Y24602   6.966   6.731   5.134  0.0096 -0.5306 -0.0169
  198DOPC  C31224603   6.841   6.767   5.307 -0.2885 -0.6702  0.2333
  198DOPC  H12X24604   6.848   6.656   5.312  3.1781 -0.5679  0.2811
  198DOPC  H12Y24605   6.743   6.803   5.270  0.2651  0.1066 -0.5000
  198DOPC  C31324606   6.863   6.822   5.445 -0.0511  0.4185 -0.5758
  198DOPC  H13X24607   6.952   6.769   5.486  0.4939 -0.5197 -2.7906
  198DOPC  H13Y24608   6.885   6.930   5.428 -0.2133  0.5775  0.2131
  198DOPC  C31424609   6.750   6.786   5.544  0.2061  0.0550  0.4993
  198DOPC  H14X24610   6.660   6.803   5.482  0.2853 -1.7327 -0.1393
  198DOPC  H14Y24611   6.749   6.677   5.561 -2.1655 -0.1570 -0.6064
  198DOPC  C31524612   6.757   6.864   5.683  0.0281 -0.6399 -0.2233
  198DOPC  H15X24613   6.663   6.842   5.738  0.0839  2.0223  1.0931
  198DOPC  H15Y24614   6.773   6.974   5.679 -2.3588 -0.1460  1.8192
  198DOPC  C31624615   6.856   6.801   5.782  0.5447 -0.0592 -0.0860
  198DOPC  H16X24616   6.847   6.690   5.786  1.9959 -0.1665  3.1974
  198DOPC  H16Y24617   6.958   6.818   5.741  0.5075  0.0030 -0.1537
  198DOPC  C31724618   6.842   6.862   5.928  0.1374 -0.7028  0.5021
  198DOPC  H17X24619   6.862   6.969   5.908 -1.5798 -0.0346  1.9689
  198DOPC  H17Y24620   6.738   6.851   5.968 -0.0776 -2.6099 -0.4599
  198DOPC  C31824621   6.949   6.816   6.030  0.1371 -0.2188  0.7410
  198DOPC  H18X24622   6.935   6.862   6.130 -1.5166 -2.8051  1.8212
  198DOPC  H18Y24623   6.935   6.706   6.038 -0.5549 -0.0797  1.6015
  198DOPC  H18Z24624   7.042   6.854   5.984 -1.4119  0.9781 -1.5731
  199DOPC     N24625   6.038   0.902   3.337 -0.4781  0.0377 -0.2490
  199DOPC   C1224626   5.927   0.912   3.435 -0.2177  0.3757  0.6578
  199DOPC  H12A24627   5.828   0.920   3.394  0.7350 -0.3456 -1.9625
  199DOPC  H12B24628   5.939   1.006   3.488  0.5134  0.6709 -0.0116
  199DOPC   C1324629   6.166   0.944   3.396 -0.0524 -0.1615 -0.3663
  199DOPC  H13A24630   6.248   0.936   3.325  1.4220 -0.9898  1.3392
  199DOPC  H13B24631   6.168   1.048   3.424  0.7618 -0.2320 -0.1368
  199DOPC  H13C24632   6.191   0.891   3.487 -1.8201 -2.1989 -0.9760
  199DOPC   C1424633   6.007   0.997   3.230 -0.1163  0.0040  0.1299
  199DOPC  H14A24634   6.076   0.986   3.147 -0.4111 -0.0275 -0.1146
  199DOPC  H14B24635   5.909   0.975   3.190  0.2912 -0.2940 -0.7331
  199DOPC  H14C24636   5.997   1.098   3.266  1.9105 -0.1703  1.3039
  199DOPC   C1524637   6.056   0.779   3.271  0.1637  0.9170  0.4747
  199DOPC  H15A24638   5.964   0.724   3.259  0.3411  1.0447 -1.9226
  199DOPC  H15B24639   6.115   0.713   3.333 -0.0319 -0.0009 -0.3032
  199DOPC  H15C24640   6.092   0.792   3.170 -0.8976 -0.0995 -0.0607
  199DOPC   C1124641   5.928   0.802   3.548  1.0111  0.2914  0.3364
  199DOPC  H11A24642   6.022   0.774   3.599 -0.2861 -4.5898  0.5521
  199DOPC  H11B24643   5.876   0.855   3.630  0.3212 -1.3605  1.0074
  199DOPC     P24644   5.707   0.669   3.494 -0.0707 -0.0587 -0.3183
  199DOPC   O1324645   5.667   0.532   3.478 -0.0011 -0.7648  0.0800
  199DOPC   O1424646   5.652   0.770   3.399 -0.3297 -0.4119 -0.2157
  199DOPC   O1224647   5.865   0.683   3.491 -0.2825 -0.1396  0.3837
  199DOPC   O1124648   5.654   0.713   3.640  0.2182  0.0652  0.1367
  199DOPC    C124649   5.708   0.644   3.753  0.0317  0.3718  0.8593
  199DOPC    HA24650   5.810   0.683   3.771  0.6056 -1.1303  0.9758
  199DOPC    HB24651   5.722   0.537   3.729 -0.3591  0.8152 -1.6967
  199DOPC    C224652   5.617   0.659   3.884  0.3329  0.2328  0.2165
  199DOPC    HS24653   5.524   0.600   3.865  2.1472 -2.8860  0.4126
  199DOPC   O2124654   5.574   0.789   3.918 -0.5783 -0.1469  0.2759
  199DOPC   C2124655   5.457   0.800   3.976  0.2935  0.9384  0.2806
  199DOPC   O2224656   5.378   0.710   4.010 -0.2576  0.3733  0.4358
  199DOPC   C2224657   5.413   0.948   3.979 -0.0446  0.0881 -0.1063
  199DOPC   H2R24658   5.362   0.972   3.884  0.7701  1.0392 -0.3243
  199DOPC   H2S24659   5.504   1.012   3.975  0.1075 -0.1624 -0.8796
  199DOPC    C324660   5.700   0.601   3.998  0.0602 -0.5713  0.2053
  199DOPC    HX24661   5.784   0.673   3.988 -1.4250  0.9014 -3.3682
  199DOPC    HY24662   5.741   0.499   3.980  0.9059 -0.7378  2.6454
  199DOPC   O3124663   5.631   0.609   4.126 -0.4225 -0.0510 -1.2782
  199DOPC   C3124664   5.545   0.502   4.151  0.5059 -0.0111  0.3841
  199DOPC   O3224665   5.511   0.429   4.065  0.6327  0.2590  0.0136
  199DOPC   C3224666   5.483   0.499   4.289 -0.4375 -0.4952  0.2491
  199DOPC   H2X24667   5.423   0.592   4.288 -1.2283 -0.9557  1.7782
  199DOPC   H2Y24668   5.420   0.409   4.300  0.2141 -0.8099  1.6429
  199DOPC   C2324669   5.308   0.983   4.089 -0.4803 -0.0825 -0.2267
  199DOPC   H3R24670   5.214   0.927   4.069 -1.7692  0.2920  3.7958
  199DOPC   H3S24671   5.306   1.094   4.087  2.5167  0.1201  1.3740
  199DOPC   C2424672   5.361   0.950   4.229 -0.2674  0.2012  0.3968
  199DOPC   H4R24673   5.464   0.993   4.234 -0.2018  0.1028 -0.0131
  199DOPC   H4S24674   5.360   0.840   4.245  0.8547 -0.2192 -1.9708
  199DOPC   C2524675   5.279   1.019   4.328 -0.7158 -1.1185 -0.1512
  199DOPC   H5R24676   5.174   0.982   4.316 -0.1487 -3.7047  1.8099
  199DOPC   H5S24677   5.284   1.129   4.316  1.4345 -0.8568  2.2321
  199DOPC   C2624678   5.335   1.003   4.474  0.0897  0.2973  0.7435
  199DOPC   H6R24679   5.433   1.055   4.478  1.7434 -2.5236 -0.1626
  199DOPC   H6S24680   5.350   0.893   4.486  1.4416  0.2917 -0.6985
  199DOPC   C2724681   5.241   1.066   4.575  0.1755 -0.5820  0.5689
  199DOPC   H7R24682   5.146   1.009   4.573  0.0738 -0.4766 -2.0666
  199DOPC   H7S24683   5.215   1.169   4.542 -1.8961 -1.0588  0.5871
  199DOPC   C2824684   5.301   1.060   4.710 -0.7585  0.0611  0.4430
  199DOPC   H8R24685   5.341   0.959   4.733  0.8261  0.5071 -0.1834
  199DOPC   H8S24686   5.227   1.071   4.792 -0.3437  0.1450  0.8084
  199DOPC   C2924687   5.419   1.154   4.733  0.1432  0.1885  0.8335
  199DOPC   H9R24688   5.481   1.170   4.643 -0.9104  0.2666  0.1113
  199DOPC  C21024689   5.436   1.236   4.839 -0.5506  0.1200 -0.8644
  199DOPC  H10R24690   5.515   1.312   4.840  0.7772 -1.1529 -2.3655
  199DOPC  C21124691   5.353   1.238   4.967  0.3401 -0.2543  0.0885
  199DOPC  H11R24692   5.244   1.222   4.949  0.7280 -1.6388 -1.2056
  199DOPC  H11S24693   5.372   1.338   5.012 -0.7402  1.0763 -2.2487
  199DOPC  C21224694   5.405   1.137   5.064 -0.4946 -0.0192  0.5956
  199DOPC  H12R24695   5.385   1.035   5.025  1.2793  0.7050 -2.5666
  199DOPC  H12S24696   5.358   1.148   5.164 -1.0119  0.9905  0.2530
  199DOPC  C21324697   5.556   1.142   5.093  0.1124  0.3744 -1.0454
  199DOPC  H13R24698   5.594   1.246   5.106  0.8194  0.3270 -2.4842
  199DOPC  H13S24699   5.605   1.108   4.999  3.2630 -2.2016  1.3092
  199DOPC  C21424700   5.602   1.044   5.213 -0.5354 -0.0748 -0.0489
  199DOPC  H14R24701   5.712   1.032   5.201 -0.5200  0.3414 -0.3911
  199DOPC  H14S24702   5.560   0.942   5.206 -1.2107  0.0887  1.3850
  199DOPC  C21524703   5.566   1.090   5.356 -0.1814  0.5200 -0.3242
  199DOPC  H15R24704   5.456   1.105   5.360 -0.1455  0.5215  1.4373
  199DOPC  H15S24705   5.614   1.186   5.386 -1.6996  1.4091 -0.6538
  199DOPC  C21624706   5.604   1.000   5.468 -0.7308  0.9373 -0.0871
  199DOPC  H16R24707   5.714   0.987   5.462 -0.8553 -1.1373  1.0074
  199DOPC  H16S24708   5.552   0.902   5.462 -1.2478  1.1640  0.5000
  199DOPC  C21724709   5.583   1.076   5.598 -0.2020  0.7157 -0.1570
  199DOPC  H17R24710   5.474   1.097   5.606 -0.2551 -0.2824  3.3151
  199DOPC  H17S24711   5.629   1.178   5.596  0.8177  0.2821  0.3450
  199DOPC  C21824712   5.645   1.010   5.721  0.5958  0.5391  0.3933
  199DOPC  H18R24713   5.752   0.990   5.699  0.2558 -1.2630  0.2380
  199DOPC  H18S24714   5.584   0.917   5.732  0.4958  0.5088 -0.4225
  199DOPC  H18T24715   5.637   1.079   5.808 -0.8420  1.5432 -0.4943
  199DOPC   C3324716   5.581   0.499   4.407  0.0872 -0.4060 -0.1213
  199DOPC   H3X24717   5.638   0.405   4.416 -0.3378 -0.5669  1.0610
  199DOPC   H3Y24718   5.518   0.498   4.498 -2.2297  0.5667 -1.5911
  199DOPC   C3424719   5.683   0.614   4.420 -0.0538 -0.2399  0.2037
  199DOPC   H4X24720   5.633   0.711   4.395  1.6867  0.8169  0.7159
  199DOPC   H4Y24721   5.747   0.589   4.332 -1.7038  0.6389 -1.3249
  199DOPC   C3524722   5.754   0.610   4.552 -0.4009  0.3316 -1.2148
  199DOPC   H5X24723   5.834   0.687   4.557 -0.5588  0.4056  1.1574
  199DOPC   H5Y24724   5.817   0.520   4.573 -2.3097 -0.6944  0.4558
  199DOPC   C3624725   5.666   0.631   4.679 -0.5341 -0.2519  0.1875
  199DOPC   H6X24726   5.598   0.717   4.661 -0.5187 -0.3851 -0.5259
  199DOPC   H6Y24727   5.596   0.548   4.703 -1.7492  0.8535  0.6150
  199DOPC   C3724728   5.749   0.661   4.805  0.0802 -0.0091  0.9796
  199DOPC   H7X24729   5.808   0.569   4.828  1.0780  0.2331 -0.5031
  199DOPC   H7Y24730   5.820   0.744   4.785 -0.8318  0.2967 -1.2020
  199DOPC   C3824731   5.667   0.696   4.930  0.5595 -0.1058 -0.1530
  199DOPC   H8X24732   5.597   0.776   4.898 -1.3789 -1.8079 -0.3591
  199DOPC   H8Y24733   5.723   0.747   5.011 -0.9546 -0.9001  1.4441
  199DOPC   C3924734   5.583   0.578   4.992 -0.0927  0.1453 -0.2873
  199DOPC   H9X24735   5.503   0.530   4.933 -0.6464 -1.4331  1.6283
  199DOPC  C31024736   5.592   0.530   5.122  0.3853  0.7428 -0.8132
  199DOPC  H10X24737   5.520   0.451   5.149  1.7661 -0.4861 -0.5947
  199DOPC  C31124738   5.683   0.566   5.235  0.0089 -0.4926 -0.2499
  199DOPC  H11X24739   5.737   0.661   5.214 -0.3187  0.2897  2.1961
  199DOPC  H11Y24740   5.761   0.487   5.242 -0.3927 -1.2856 -3.1258
  199DOPC  C31224741   5.602   0.566   5.364  0.0373 -0.7284 -0.7379
  199DOPC  H12X24742   5.542   0.472   5.365 -0.6750 -0.2745  0.2194
  199DOPC  H12Y24743   5.545   0.660   5.352  1.2260  0.1567  0.3622
  199DOPC  C31324744   5.692   0.583   5.488 -0.0113  0.5958  0.2190
  199DOPC  H13X24745   5.768   0.502   5.498 -1.8278 -1.1851  0.2898
  199DOPC  H13Y24746   5.738   0.684   5.494  0.3752  0.3507  1.9259
  199DOPC  C31424747   5.598   0.581   5.610 -1.0437 -0.3864 -0.0394
  199DOPC  H14X24748   5.520   0.659   5.596 -0.6802 -0.1940 -1.0536
  199DOPC  H14Y24749   5.551   0.482   5.630  2.0552 -1.8562  0.5103
  199DOPC  C31524750   5.668   0.611   5.744 -0.7136 -0.3106 -0.7135
  199DOPC  H15X24751   5.731   0.702   5.739 -0.7722 -0.3026 -1.3181
  199DOPC  H15Y24752   5.736   0.527   5.767 -0.0261  0.8873  2.2279
  199DOPC  C31624753   5.574   0.638   5.860 -0.1728 -0.4116 -0.1160
  199DOPC  H16X24754   5.494   0.708   5.826 -0.4397 -1.6741 -2.3028
  199DOPC  H16Y24755   5.523   0.541   5.873 -2.0979  0.5257 -0.2283
  199DOPC  C31724756   5.647   0.689   5.986  0.4812  0.0486  0.6220
  199DOPC  H17X24757   5.655   0.800   5.989 -2.2331  0.4311 -2.0341
  199DOPC  H17Y24758   5.578   0.671   6.071  0.6410  0.7683  0.9109
  199DOPC  C31824759   5.765   0.604   6.013 -0.6115  0.0616  0.3619
  199DOPC  H18X24760   5.794   0.614   6.120  1.2684  0.6246 -0.1699
  199DOPC  H18Y24761   5.742   0.499   5.984  0.7665  0.4123 -2.3349
  199DOPC  H18Z24762   5.846   0.647   5.950  0.2546 -1.6308  0.2824
  200DOPC     N24763   0.752   1.211   3.354  0.0660 -0.7769 -0.2915
  200DOPC   C1224764   0.640   1.241   3.452  0.1617 -0.2706 -0.3259
  200DOPC  H12A24765   0.667   1.331   3.505 -0.7685  1.4341 -2.5534
  200DOPC  H12B24766   0.637   1.161   3.525  0.1618 -0.3686 -0.4317
  200DOPC   C1324767   0.712   1.094   3.267 -0.3052  0.1968 -0.5518
  200DOPC  H13A24768   0.629   1.125   3.206  0.2720  0.8280 -1.0325
  200DOPC  H13B24769   0.799   1.073   3.207  2.1566  0.5222  2.6242
  200DOPC  H13C24770   0.695   1.003   3.323  1.0906 -0.0507 -0.4988
  200DOPC   C1424771   0.872   1.180   3.429 -0.5120 -0.4728 -0.0061
  200DOPC  H14A24772   0.949   1.171   3.354 -0.5782 -0.1127 -0.1219
  200DOPC  H14B24773   0.904   1.260   3.494 -1.3349  0.8514 -1.1583
  200DOPC  H14C24774   0.864   1.081   3.471  1.6220 -1.1102 -0.9764
  200DOPC   C1524775   0.760   1.336   3.265 -0.9288 -0.3184 -0.5451
  200DOPC  H15A24776   0.829   1.318   3.184  0.9642  1.1491  0.6632
  200DOPC  H15B24777   0.785   1.428   3.317 -0.2091 -1.3889  1.0982
  200DOPC  H15C24778   0.662   1.360   3.227 -1.6826  1.2436  2.0747
  200DOPC   C1124779   0.497   1.271   3.389 -0.1221 -0.4349 -0.1026
  200DOPC  H11A24780   0.475   1.203   3.303  0.1374 -1.3207  0.5215
  200DOPC  H11B24781   0.418   1.244   3.462 -2.0536  2.1725 -1.0465
  200DOPC     P24782   0.464   1.526   3.445 -0.0286 -0.0598 -0.0192
  200DOPC   O1324783   0.320   1.531   3.486 -0.3360 -0.2676 -0.5525
  200DOPC   O1424784   0.520   1.642   3.377  0.5072 -0.2945 -0.6503
  200DOPC   O1224785   0.482   1.402   3.351 -0.3600 -0.2060 -0.4173
  200DOPC   O1124786   0.553   1.484   3.571  0.7098  0.1008  0.7996
  200DOPC    C124787   0.489   1.437   3.695  0.2216  0.4553 -0.3392
  200DOPC    HA24788   0.555   1.370   3.755 -0.1662 -0.8175 -1.2987
  200DOPC    HB24789   0.398   1.376   3.677 -0.7043  1.7382 -0.1120
  200DOPC    C224790   0.463   1.557   3.790  0.1567  0.1354 -0.2709
  200DOPC    HS24791   0.403   1.635   3.737 -2.4256 -2.6378 -1.7491
  200DOPC   O2124792   0.590   1.606   3.834  0.3309  0.5694 -0.2581
  200DOPC   C2124793   0.592   1.717   3.905  0.5002  0.3253 -0.2377
  200DOPC   O2224794   0.501   1.794   3.927  0.6033 -0.4019  0.3169
  200DOPC   C2224795   0.737   1.754   3.937  0.3661  0.3260  0.3446
  200DOPC   H2R24796   0.798   1.763   3.844 -1.6243  0.4790 -0.9965
  200DOPC   H2S24797   0.773   1.670   4.000 -3.8936 -1.8509  0.2276
  200DOPC    C324798   0.376   1.508   3.906  0.2083 -0.3193 -0.1327
  200DOPC    HX24799   0.277   1.479   3.864  0.0384 -1.2325  0.8433
  200DOPC    HY24800   0.366   1.596   3.972  0.5031  0.5505 -1.2268
  200DOPC   O3124801   0.425   1.383   3.970  0.0244  0.4095  0.1100
  200DOPC   C3124802   0.517   1.400   4.067  0.1451 -0.0831 -0.0835
  200DOPC   O3224803   0.553   1.506   4.115 -0.1172  0.1714  0.4943
  200DOPC   C3224804   0.540   1.269   4.130  0.6158 -0.0640 -0.0389
  200DOPC   H2X24805   0.534   1.184   4.060 -0.9556 -0.4166  0.4939
  200DOPC   H2Y24806   0.644   1.258   4.169 -0.3094 -2.4418  1.9824
  200DOPC   C2324807   0.745   1.887   4.003  0.6422 -0.0225 -0.1866
  200DOPC   H3R24808   0.703   1.964   3.935 -0.0261 -0.8156 -0.6999
  200DOPC   H3S24809   0.843   1.936   4.018  0.4149  0.6778 -0.9290
  200DOPC   C2424810   0.673   1.876   4.144 -0.5861 -0.1480 -0.0023
  200DOPC   H4R24811   0.592   1.800   4.132  0.6924 -1.3806 -1.3473
  200DOPC   H4S24812   0.648   1.982   4.166  2.5877  0.6899  0.0692
  200DOPC   C2524813   0.770   1.837   4.252 -0.5190 -0.4097  0.1165
  200DOPC   H5R24814   0.849   1.915   4.252 -1.1252  0.2035  0.7658
  200DOPC   H5S24815   0.811   1.739   4.219 -0.6093 -0.0315 -1.2068
  200DOPC   C2624816   0.694   1.821   4.388  0.5075  0.5330  0.3242
  200DOPC   H6R24817   0.608   1.752   4.371 -0.0241  1.4307 -0.7247
  200DOPC   H6S24818   0.645   1.914   4.423 -1.6043 -0.1133 -0.7627
  200DOPC   C2724819   0.778   1.756   4.501 -0.5185 -0.3822 -0.2355
  200DOPC   H7R24820   0.873   1.814   4.503 -0.8378  0.2014 -1.3514
  200DOPC   H7S24821   0.814   1.653   4.479  0.2885  0.1335 -1.4805
  200DOPC   C2824822   0.707   1.746   4.640  0.0105  0.0509 -0.0356
  200DOPC   H8R24823   0.772   1.684   4.705 -1.3527 -2.5456 -0.9796
  200DOPC   H8S24824   0.618   1.682   4.619 -0.5710 -0.1768  2.7143
  200DOPC   C2924825   0.652   1.866   4.721 -0.1051  0.6253  0.1663
  200DOPC   H9R24826   0.548   1.892   4.698 -0.7483 -2.6019 -1.1896
  200DOPC  C21024827   0.714   1.943   4.821  0.8439 -0.1190  0.0536
  200DOPC  H10R24828   0.658   2.004   4.892  1.9368 -0.9854  1.7221
  200DOPC  C21124829   0.856   1.925   4.863  0.2042 -0.0592  0.5910
  200DOPC  H11R24830   0.906   2.022   4.882  0.6211 -0.1793  0.1304
  200DOPC  H11S24831   0.912   1.876   4.781 -0.6026  1.2591 -0.8038
  200DOPC  C21224832   0.864   1.844   4.997  0.0820 -0.3534  0.4854
  200DOPC  H12R24833   0.969   1.814   5.015  0.4235  1.3996  1.6319
  200DOPC  H12S24834   0.810   1.747   4.984  0.0221 -0.7661  3.2930
  200DOPC  C21324835   0.804   1.920   5.122  0.4651 -0.4297  0.2987
  200DOPC  H13R24836   0.708   1.965   5.089  0.9990 -1.5708 -3.3156
  200DOPC  H13S24837   0.875   2.003   5.136  1.3126 -0.6530 -2.1648
  200DOPC  C21424838   0.785   1.840   5.256  0.2996 -0.9807 -0.1319
  200DOPC  H14R24839   0.872   1.772   5.273  0.9755 -0.6157 -1.9551
  200DOPC  H14S24840   0.697   1.773   5.244  0.5517 -1.1709 -1.0024
  200DOPC  C21524841   0.774   1.936   5.370  0.1077 -0.1225 -0.2449
  200DOPC  H15R24842   0.672   1.979   5.375 -0.5552 -1.5098 -1.1584
  200DOPC  H15S24843   0.848   2.018   5.352 -0.5295  0.2227 -1.4217
  200DOPC  C21624844   0.808   1.859   5.497  0.1304  0.7146 -1.0537
  200DOPC  H16R24845   0.914   1.827   5.486  0.9176  2.3135  1.0524
  200DOPC  H16S24846   0.740   1.772   5.507  1.7226 -0.5851 -1.1679
  200DOPC  C21724847   0.780   1.949   5.614 -0.0513 -0.1821 -0.7847
  200DOPC  H17R24848   0.670   1.956   5.630  0.1251 -0.5539  0.8541
  200DOPC  H17S24849   0.825   2.045   5.583  0.9077 -0.8878 -1.6546
  200DOPC  C21824850   0.854   1.888   5.742  0.2099 -0.0054  0.0211
  200DOPC  H18R24851   0.963   1.890   5.722  0.2052  3.8391 -0.4700
  200DOPC  H18S24852   0.828   1.783   5.767 -0.5284  0.1828  0.0622
  200DOPC  H18T24853   0.839   1.947   5.835  1.1757 -0.4280  0.4532
  200DOPC   C3324854   0.451   1.247   4.251 -0.4882  0.0365 -0.7819
  200DOPC   H3X24855   0.472   1.146   4.293 -1.4058  0.4886  0.8327
  200DOPC   H3Y24856   0.342   1.256   4.233 -0.6970 -2.1400 -0.8829
  200DOPC   C3424857   0.496   1.329   4.369 -0.8148 -0.1938  0.3752
  200DOPC   H4X24858   0.479   1.438   4.352  1.0413  0.0557 -0.1892
  200DOPC   H4Y24859   0.605   1.318   4.391 -0.6433 -2.2301 -1.1613
  200DOPC   C3524860   0.425   1.279   4.499  0.3418  0.2531 -0.3044
  200DOPC   H5X24861   0.442   1.170   4.510 -1.7298 -0.1494 -0.6336
  200DOPC   H5Y24862   0.317   1.298   4.481  0.0909 -2.2229 -1.9102
  200DOPC   C3624863   0.472   1.346   4.618  0.1805  0.2030 -0.0801
  200DOPC   H6X24864   0.524   1.439   4.589 -0.3691  0.5334 -0.0180
  200DOPC   H6Y24865   0.385   1.371   4.683  1.6514  1.2276  1.5879
  200DOPC   C3724866   0.571   1.257   4.700  0.0702  0.0206 -0.4224
  200DOPC   H7X24867   0.531   1.158   4.730  2.3982 -1.0800 -0.7003
  200DOPC   H7Y24868   0.652   1.231   4.628  1.7307  2.0744  0.5770
  200DOPC   C3824869   0.626   1.331   4.821 -0.0761 -0.7160 -0.4691
  200DOPC   H8X24870   0.662   1.430   4.785 -3.3487  0.2527 -1.4635
  200DOPC   H8Y24871   0.707   1.261   4.849 -0.2740 -0.9688 -0.5287
  200DOPC   C3924872   0.526   1.369   4.928 -0.1156  0.4445 -0.3599
  200DOPC   H9X24873   0.423   1.378   4.891 -0.5475 -0.2286  0.6431
  200DOPC  C31024874   0.545   1.356   5.062  1.0448  0.3548 -0.0689
  200DOPC  H10X24875   0.463   1.387   5.128  0.4373 -1.1421 -0.0837
  200DOPC  C31124876   0.674   1.302   5.123 -0.0517  0.3820 -0.3765
  200DOPC  H11X24877   0.762   1.311   5.056 -0.2716 -1.7119 -1.0116
  200DOPC  H11Y24878   0.659   1.195   5.151  1.5919  0.2310 -0.0031
  200DOPC  C31224879   0.718   1.372   5.257 -0.3168 -0.8977 -0.3067
  200DOPC  H12X24880   0.734   1.481   5.243 -1.6782 -0.2157  2.6247
  200DOPC  H12Y24881   0.805   1.317   5.297 -0.0868 -1.1430 -1.1261
  200DOPC  C31324882   0.604   1.372   5.363 -0.9768  0.1856  0.2254
  200DOPC  H13X24883   0.521   1.441   5.338 -0.1798  1.2584  0.4794
  200DOPC  H13Y24884   0.564   1.268   5.372 -0.2975  0.0353  1.8678
  200DOPC  C31424885   0.647   1.407   5.506  0.3507 -0.4304  0.3800
  200DOPC  H14X24886   0.741   1.354   5.534  1.3155  2.4193  3.0185
  200DOPC  H14Y24887   0.667   1.516   5.513 -1.0926 -0.1547  0.6048
  200DOPC  C31524888   0.543   1.369   5.610  0.0398 -0.3429  0.8006
  200DOPC  H15X24889   0.514   1.262   5.605  1.1189 -0.6606  1.1029
  200DOPC  H15Y24890   0.458   1.429   5.571 -0.6915 -0.7777  1.6931
  200DOPC  C31624891   0.592   1.403   5.749  0.4874  0.5692 -0.4763
  200DOPC  H16X24892   0.694   1.360   5.754  0.7921  1.4094  2.2993
  200DOPC  H16Y24893   0.601   1.514   5.749  1.2730  0.5244  0.9344
  200DOPC  C31724894   0.500   1.354   5.865  0.2702  0.3063  0.3386
  200DOPC  H17X24895   0.397   1.395   5.861  0.3998  0.7057  0.9861
  200DOPC  H17Y24896   0.481   1.245   5.851 -1.7609  0.7059 -0.4137
  200DOPC  C31824897   0.569   1.378   5.998  0.3151 -0.3385 -0.1706
  200DOPC  H18X24898   0.619   1.477   5.996 -0.8390  0.2725 -2.6022
  200DOPC  H18Y24899   0.494   1.362   6.079  0.6830 -1.8875 -0.0979
  200DOPC  H18Z24900   0.651   1.306   6.018  0.4880 -0.0024  0.3715
  201SOD    SOD24901   6.227   2.552   9.333  0.2443  0.1762  0.2483
  202SOD    SOD24902   4.605   3.483   1.717  0.2478 -0.2109  0.5383
  203SOD    SOD24903   6.051   3.904   8.455  0.3890  0.0057  0.1020
  204SOD    SOD24904   2.452   4.309   1.172  0.1999  0.5251  0.3065
  205SOD    SOD24905   5.319   5.529   9.552  0.0211  0.2885 -0.1713
  206SOD    SOD24906   5.695   1.571   3.003 -0.0889 -0.9706  0.0020
  207SOD    SOD24907   5.782   2.831   1.584  0.0476 -0.2737 -0.2865
  208SOD    SOD24908   4.072   3.686  10.531  0.2259 -0.1968  0.3430
  209SOD    SOD24909   1.505   6.134   4.184  0.0939  0.0667  0.6641
  210SOD    SOD24910   3.739   0.199  10.566  0.2090 -0.1825 -0.2321
  211SOD    SOD24911   0.040   6.620   8.572 -0.0908 -0.7530 -0.1985
  212SOD    SOD24912   1.083   1.738  10.021  0.4215  0.1272 -0.0438
  213SOD    SOD24913   4.106   1.635   2.140  0.5638  0.2575  0.0628
  214SOD    SOD24914   4.618   3.285  11.537 -0.2897  0.1353  0.0790
  215SOD    SOD24915   6.011   5.853  10.494  0.4372  0.3186  0.2378
  216SOD    SOD24916   1.485   5.837   9.109 -0.4725 -0.0355  0.5778
  217SOD    SOD24917   5.536   6.088   3.844  0.1196 -0.2672  0.0547
  218SOD    SOD24918   3.091   5.783  11.161  0.4507 -0.8020  0.3186
  219SOD    SOD24919   2.664   5.836  10.785 -0.2922  0.1986 -0.8949
  220SOD    SOD24920   2.242   0.869   1.268 -0.7212  0.0483 -0.1011
  221SOD    SOD24921   0.727   1.391   2.057  0.0520  0.0314  0.0879
  222SOD    SOD24922   0.316   2.772   9.820 -0.5135  0.5291 -0.2911
  223SOD    SOD24923   1.934   5.216   3.711 -0.0455  0.2786  0.9735
  224SOD    SOD24924   5.825   0.017   1.262  0.0466 -0.0440 -0.0572
  225SOD    SOD24925   2.380   0.089   4.750 -0.2390  0.1588  0.1631
  226SOD    SOD24926   3.344   3.439  11.372 -0.0386  0.0858 -0.5345
  227CLA    CLA24927   4.298   3.520   2.994 -0.0732  0.1439 -0.0971
  228CLA    CLA24928   1.285   0.875   3.240 -0.3452  0.1554 -0.1263
  229CLA    CLA24929   2.689   2.519   1.705  0.2372  0.0843 -0.4783
  230CLA    CLA24930   3.908   2.634   9.754 -0.2045  0.3031 -0.1053
  231CLA    CLA24931   6.478   2.810  11.200 -0.3533  0.0963 -0.3388
  232CLA    CLA24932   3.101   0.641  10.473  0.3220 -0.4681  0.3072
  233CLA    CLA24933   1.511   5.504   9.476  0.0587 -0.1007  0.2850
  234CLA    CLA24934   4.204   5.414  10.323 -0.3436  0.1071  0.3695
  235CLA    CLA24935   0.498   4.163   1.201 -0.3268 -0.1527 -0.5934
  236CLA    CLA24936   2.536   5.356  10.958 -0.1724 -0.1492 -0.0957
  237CLA    CLA24937   3.535   5.974  11.298  0.6506  0.3421  0.0666
  238CLA    CLA24938   5.008   5.231   1.510  0.1477  0.0705  0.1677
  239CLA    CLA24939   3.387   5.852   2.654  0.6508  0.1994 -0.4889
  240CLA    CLA24940   3.877   2.105  11.430  0.2778 -0.0347  0.1913
  241CLA    CLA24941   1.325   1.987   1.131  0.0596  0.3673  0.0205
  242CLA    CLA24942   5.294   4.105  10.538  0.2516 -0.1434 -0.4798
  243CLA    CLA24943   3.140   0.039   1.296 -0.5379  0.3732  0.4573
  244CLA    CLA24944   5.133   3.214   1.141 -0.0998  0.1331  0.1785
  245CLA    CLA24945   6.302   1.500   2.880  0.1985  0.6986  0.3225
  246CLA    CLA24946   3.048   5.631  11.662  0.2918  0.1913  0.4623
  247CLA    CLA24947   3.763   2.514   2.877  0.1927 -0.0897 -0.0016
  248CLA    CLA24948   0.120   6.151   1.563 -0.0260 -0.1664 -0.3551
  249CLA    CLA24949   2.373   3.973   3.734  0.0447 -0.3908 -0.0886
  250CLA    CLA24950   4.841   6.610  10.382 -0.1381 -0.1640 -0.1139
  251CLA    CLA24951   6.523   2.688   9.684  0.3903  0.3996 -0.3291
  252CLA    CLA24952   6.155   2.114   2.038 -0.5462  0.3783  0.1080
  253TIP3   OH224953   3.236   0.974  10.455  0.1160 -0.4012 -0.4746
  253TIP3    H124954   3.255   0.992  10.363 -2.1483 -1.1978 -1.1725
  253TIP3    H224955   3.245   0.879  10.464  1.2669 -0.2296  0.4010
  254TIP3   OH224956   6.564   1.585   8.944 -0.0410 -0.5869 -0.0395
  254TIP3    H124957   6.496   1.614   8.882  1.0247 -1.1124 -1.5042
  254TIP3    H224958   6.620   1.527   8.893  1.6210 -0.0408  1.0902
  255TIP3   OH224959   2.909   4.120  11.829  0.0856 -0.1442 -0.3936
  255TIP3    H124960   2.932   4.126  11.736  1.2421 -1.3000 -0.2116
  255TIP3    H224961   2.820   4.085  11.830  0.3511 -0.8634 -1.0630
  256TIP3   OH224962   1.093   3.148  11.712  0.0890 -0.3522 -0.4720
  256TIP3    H124963   1.175   3.192  11.735  0.1275 -0.5226 -0.2738
  256TIP3    H224964   1.120   3.071  11.661  0.0637 -0.4944 -0.2736
  257TIP3   OH224965   6.018   5.550  10.099 -0.2827 -0.0823  0.5008
  257TIP3    H124966   6.033   5.463  10.136  0.1467  0.0127  0.5555
  257TIP3    H224967   5.984   5.534  10.011  0.4115 -0.3071  0.2668
  258TIP3   OH224968   6.455   1.817  12.361 -0.3391 -0.4983 -0.5334
  258TIP3    H124969   6.392   1.801  12.291  0.6186 -2.5514 -0.9841
  258TIP3    H224970   6.464   1.733  12.406 -0.8622  0.7238  2.0659
  259TIP3   OH224971   6.531   3.813  10.049  0.2448 -0.4116  0.3758
  259TIP3    H124972   6.544   3.729  10.093  0.7756 -0.5964 -0.1306
  259TIP3    H224973   6.487   3.790   9.967  2.4259 -0.4684 -0.8471
  260TIP3   OH224974   1.776   2.032  10.104  0.5499  0.0067  0.1377
  260TIP3    H124975   1.695   2.082  10.115  0.1342 -0.7153  0.4081
  260TIP3    H224976   1.747   1.943  10.088  1.2828 -0.0665 -0.8134
  261TIP3   OH224977   2.684   2.200  11.328 -0.1017  0.0795  0.3527
  261TIP3    H124978   2.768   2.246  11.338  0.2787 -0.1278 -1.4792
  261TIP3    H224979   2.698   2.115  11.369  1.2269 -0.6465 -1.5104
  262TIP3   OH224980   3.448   0.845   9.923  0.2012  0.6037 -0.0480
  262TIP3    H124981   3.409   0.889   9.847  1.7979  1.0856 -0.6168
  262TIP3    H224982   3.478   0.917   9.979 -1.4313  0.2729  1.3461
  263TIP3   OH224983   5.132   2.910   8.959  0.3427 -0.0955  0.0068
  263TIP3    H124984   5.205   2.947   9.009  0.4978  0.2882 -0.4966
  263TIP3    H224985   5.120   2.971   8.887 -1.6462  0.8309  1.0527
  264TIP3   OH224986   1.277   1.638   8.673 -0.4074  0.5726 -0.5400
  264TIP3    H124987   1.352   1.692   8.700  0.8599 -1.5594  0.4553
  264TIP3    H224988   1.314   1.576   8.610 -1.1409 -0.9677  0.4918
  265TIP3   OH224989   2.822   5.746   9.877 -0.0042 -0.4696 -0.2893
  265TIP3    H124990   2.906   5.736   9.921 -0.0831  1.4622  0.4074
  265TIP3    H224991   2.843   5.743   9.783  0.6162 -1.3557 -0.1377
  266TIP3   OH224992   3.007   1.206   8.464 -0.5076 -0.1077  0.0340
  266TIP3    H124993   2.911   1.213   8.458 -0.4018  2.4995  0.0689
  266TIP3    H224994   3.036   1.194   8.374 -0.8179  0.9769 -0.2300
  267TIP3   OH224995   4.299   0.529   9.827  0.2042 -0.2326  0.0036
  267TIP3    H124996   4.248   0.609   9.812  0.3084 -0.0075  0.8182
  267TIP3    H224997   4.234   0.462   9.847  0.2011 -0.0261  0.6971
  268TIP3   OH224998   5.659   2.985   9.554 -0.1029  0.3412  0.1195
  268TIP3    H124999   5.751   2.989   9.528  0.0064  0.7425  0.5398
  268TIP3    H225000   5.643   2.892   9.571 -0.6254 -0.1909 -2.8306
  269TIP3   OH225001   3.834   4.934  10.183  0.2319  0.3505  0.2802
  269TIP3    H125002   3.791   4.851  10.202 -0.2456  0.8092  1.2694
  269TIP3    H225003   3.928   4.914  10.188  0.1276 -0.2124  0.0725
  270TIP3   OH225004   5.034   6.345   9.705 -0.0379 -0.1314 -0.0043
  270TIP3    H125005   4.975   6.406   9.748  1.1297  1.0670 -0.0351
  270TIP3    H225006   5.006   6.344   9.613  0.2943  0.8442 -0.1302
  271TIP3   OH225007   6.556   2.444   9.098  0.4735 -0.4209  0.7308
  271TIP3    H125008   6.624   2.467   9.161  1.4855  0.8985 -0.7678
  271TIP3    H225009   6.550   2.520   9.040 -1.4654 -0.9839  0.1003
  272TIP3   OH225010   1.643   1.157  11.116 -0.3386 -0.0446 -0.1212
  272TIP3    H125011   1.700   1.187  11.045 -0.7175 -0.6510 -0.6949
  272TIP3    H225012   1.678   1.070  11.139 -1.7114 -0.9473 -1.2845
  273TIP3   OH225013   1.553   4.553  11.720  0.2762  0.2696  0.0294
  273TIP3    H125014   1.546   4.607  11.799  0.0625  0.9171 -0.4246
  273TIP3    H225015   1.647   4.555  11.699  0.4440 -0.4955  0.6664
  274TIP3   OH225016   0.104   4.418  12.198 -0.0841  0.4106  0.4889
  274TIP3    H125017   0.137   4.384  12.115  1.6702 -1.9244  1.9807
  274TIP3    H225018   0.042   4.352  12.228 -2.9492  2.6284 -0.1909
  275TIP3   OH225019   1.053   1.977  10.045 -0.2178 -0.4656 -0.0074
  275TIP3    H125020   1.064   1.986  10.139  1.1791 -0.9737 -0.0973
  275TIP3    H225021   1.086   2.059  10.008  1.7378 -1.2754 -0.1738
  276TIP3   OH225022   6.008   0.208   8.538  0.4017  0.2104 -0.2104
  276TIP3    H125023   6.028   0.116   8.552  1.1357  0.4416  0.3636
  276TIP3    H225024   5.915   0.211   8.518  0.5910 -0.7638 -1.3271
  277TIP3   OH225025   5.223   1.333   9.274 -0.4261 -0.7862  0.1028
  277TIP3    H125026   5.163   1.338   9.348  3.0321  2.0469  3.0871
  277TIP3    H225027   5.249   1.241   9.270 -1.8192 -1.2776  1.3906
  278TIP3   OH225028   4.912   5.953  10.680  0.1990  0.0051 -0.6134
  278TIP3    H125029   4.950   5.971  10.766 -1.4917 -0.4147  0.2624
  278TIP3    H225030   4.924   6.034  10.631  3.7870 -0.6354 -1.0705
  279TIP3   OH225031   0.187   5.914  10.895  0.1203  0.5986  0.2014
  279TIP3    H125032   0.189   5.908  10.991  1.7575  1.3394  0.2521
  279TIP3    H225033   0.155   5.829  10.866 -2.0044  0.9062  1.4284
  280TIP3   OH225034   5.983   5.297   9.897 -0.2206  0.0731  0.3506
  280TIP3    H125035   5.962   5.381   9.858  1.0451 -0.3533 -1.4076
  280TIP3    H225036   6.079   5.296   9.901 -0.1806 -1.5291 -0.3082
  281TIP3   OH225037   2.042   1.013   9.060  0.3671  0.0031 -0.8586
  281TIP3    H125038   2.014   1.002   8.969  1.3733 -0.0797 -1.1627
  281TIP3    H225039   2.116   0.953   9.070  0.1749 -0.1037  0.0656
  282TIP3   OH225040   6.389   4.796  11.295 -0.1601  0.0884  0.2431
  282TIP3    H125041   6.311   4.814  11.243 -1.4472 -0.4067  1.9130
  282TIP3    H225042   6.386   4.702  11.311 -0.2997  0.3484  1.9159
  283TIP3   OH225043   6.506   4.356  10.066 -0.5761 -0.3452 -0.7649
  283TIP3    H125044   6.572   4.403  10.116 -0.5725  0.5232 -1.5430
  283TIP3    H225045   6.546   4.272  10.045 -0.2652 -0.3796 -0.0321
  284TIP3   OH225046   4.411   3.726   2.109  0.1360  0.1094 -0.2455
  284TIP3    H125047   4.498   3.763   2.090  0.4097  0.2978  1.2781
  284TIP3    H225048   4.429   3.650   2.164 -0.6665  0.0517 -0.0535
  285TIP3   OH225049   2.901   5.208   2.060 -0.4431 -0.3944  0.2917
  285TIP3    H125050   2.846   5.141   2.020 -1.3716  0.1050  0.7126
  285TIP3    H225051   2.966   5.159   2.111 -0.4953 -0.9837 -0.2027
  286TIP3   OH225052   4.002   4.502   3.584 -0.1869  0.2271 -0.4002
  286TIP3    H125053   3.991   4.569   3.517  0.7522  0.4591 -0.3406
  286TIP3    H225054   4.087   4.522   3.623 -1.2168  0.8208  1.6696
  287TIP3   OH225055   0.045   3.930   2.248  0.2224 -0.1806  0.1862
  287TIP3    H125056  -0.025   3.920   2.313  1.0136  0.8209  1.2523
  287TIP3    H225057   0.009   3.990   2.183 -0.4883 -0.9782 -0.1662
  288TIP3   OH225058   3.987   6.682   2.822  0.1397  0.1391  0.5982
  288TIP3    H125059   3.920   6.619   2.848 -1.2792  1.9432  1.6060
  288TIP3    H225060   4.070   6.639   2.841 -0.7397 -1.8214  0.1894
  289TIP3   OH225061   5.527   0.081   2.739  0.0496  0.4723 -0.4104
  289TIP3    H125062   5.445   0.056   2.695 -0.7673 -0.1800  1.3764
  289TIP3    H225063   5.586   0.007   2.725 -0.3506  0.0855 -0.0942
  290TIP3   OH225064   1.318   3.342   0.591  0.0865  0.5462  0.0517
  290TIP3    H125065   1.314   3.426   0.636  1.8413  0.3732  0.6241
  290TIP3    H225066   1.227   3.317   0.578 -0.4645  2.4248  0.0565
  291TIP3   OH225067   4.093   2.106   1.030 -0.2133  0.0917 -0.0276
  291TIP3    H125068   4.188   2.112   1.031 -0.1763 -0.5569  0.9230
  291TIP3    H225069   4.063   2.188   1.070 -0.0280 -0.1736  0.6622
  292TIP3   OH225070   3.491   1.269   2.992 -0.1874 -0.0043 -0.3213
  292TIP3    H125071   3.439   1.281   3.071  1.4831 -1.2224  1.0463
  292TIP3    H225072   3.576   1.237   3.023  1.1207  1.0912 -2.5015
  293TIP3   OH225073   4.697   0.884   1.821  0.0058  0.0958  0.7490
  293TIP3    H125074   4.758   0.849   1.756  0.4849  1.4184  0.4698
  293TIP3    H225075   4.736   0.860   1.905  1.5098  1.8154  0.5959
  294TIP3   OH225076   4.337   0.504   2.166 -0.1591 -0.2332 -0.0249
  294TIP3    H125077   4.390   0.533   2.093  0.1652 -0.0879  0.2641
  294TIP3    H225078   4.320   0.583   2.217  0.3473 -0.4608  0.5183
  295TIP3   OH225079   4.543   6.138   3.394 -0.1460  0.4115 -0.1925
  295TIP3    H125080   4.495   6.107   3.316 -0.9910  0.8321  0.1460
  295TIP3    H225081   4.506   6.225   3.411  1.6310  1.3048 -0.6551
  296TIP3   OH225082   4.651   4.884   2.729  0.8879 -0.1438 -0.3380
  296TIP3    H125083   4.651   4.812   2.792 -0.8666 -0.0811 -0.2099
  296TIP3    H225084   4.682   4.845   2.648 -0.5177 -1.2005 -0.3980
  297TIP3   OH225085   6.119   4.974   4.031  0.3669 -0.3321  0.5401
  297TIP3    H125086   6.188   5.040   4.022 -0.7756  1.0047  1.2856
  297TIP3    H225087   6.049   5.018   4.078 -0.9784 -1.6915 -0.1037
  298TIP3   OH225088   1.450   2.648   3.330  0.0401 -0.3319  0.1134
  298TIP3    H125089   1.409   2.573   3.373 -0.7024 -0.9397 -1.5647
  298TIP3    H225090   1.480   2.703   3.402 -3.7511  0.2023  1.5223
  299TIP3   OH225091   0.662   6.283   1.236 -0.1150  0.1399  0.5179
  299TIP3    H125092   0.749   6.305   1.267  0.6343 -0.0083 -1.3428
  299TIP3    H225093   0.637   6.205   1.285 -0.2933  1.5971  2.8666
  300TIP3   OH225094   1.675   3.613   3.165  0.1672  0.5690 -0.2369
  300TIP3    H125095   1.656   3.621   3.259  0.5723  1.4666 -0.2217
  300TIP3    H225096   1.592   3.631   3.122  0.0491  0.4529 -0.0599
  301TIP3   OH225097   1.692   3.002   2.630  0.1115 -0.3919 -0.0670
  301TIP3    H125098   1.703   3.087   2.672 -0.3203  0.3123 -1.3483
  301TIP3    H225099   1.638   3.019   2.553 -0.0109 -1.8323 -0.3384
  302TIP3   OH225100   2.430   0.439   3.554  0.4366  0.6018  0.2086
  302TIP3    H125101   2.369   0.497   3.509  0.6929 -0.2939 -1.3724
  302TIP3    H225102   2.512   0.449   3.505  0.5699 -0.8073  0.1146
  303TIP3   OH225103   4.703   1.839   1.557  0.3908  0.6141 -0.2888
  303TIP3    H125104   4.699   1.866   1.649 -0.1455  1.7597 -0.6420
  303TIP3    H225105   4.745   1.753   1.560 -0.7889  0.0470  1.1452
  304TIP3   OH225106   1.773   1.000   2.100 -0.6833 -0.3872  0.0645
  304TIP3    H125107   1.763   0.912   2.135 -0.5120  0.0618  1.2724
  304TIP3    H225108   1.813   1.050   2.171 -0.2515  0.5313 -0.7979
  305TIP3   OH225109   1.524   1.124   2.886 -0.6223  0.3540  0.0582
  305TIP3    H125110   1.500   1.216   2.879 -2.4444 -0.1562 -1.3756
  305TIP3    H225111   1.441   1.078   2.896  0.3247 -1.0796  2.2001
  306TIP3   OH225112   2.349   0.754   1.469 -0.1091  0.0383 -0.1921
  306TIP3    H125113   2.322   0.804   1.545  0.1783  1.8971 -1.2655
  306TIP3    H225114   2.428   0.797   1.437  1.0747 -2.0517 -0.2735
  307TIP3   OH225115   0.409   0.697   3.326  0.2198 -0.5165  0.7343
  307TIP3    H125116   0.317   0.675   3.319  0.1600  0.0694 -0.6387
  307TIP3    H225117   0.443   0.688   3.238  0.8105  2.0403  0.6039
  308TIP3   OH225118   0.118   2.839   0.412 -0.6003 -0.2532  0.1793
  308TIP3    H125119   0.027   2.865   0.394 -0.0989  0.9330 -0.7478
  308TIP3    H225120   0.129   2.857   0.506 -1.2993 -0.3904  0.3000
  309TIP3   OH225121   2.815   0.206   0.942 -0.1712  0.3412 -0.1236
  309TIP3    H125122   2.753   0.154   0.994  0.7660 -0.9613 -0.2598
  309TIP3    H225123   2.881   0.234   1.005 -0.6057  1.2838 -0.0766
  310TIP3   OH225124   4.298   5.016   1.858  0.2529 -0.5657 -0.7547
  310TIP3    H125125   4.262   4.980   1.777 -0.7943 -0.3007 -0.4284
  310TIP3    H225126   4.271   4.955   1.926  0.5876 -0.4589 -0.5236
  311TIP3   OH225127   2.606   1.886   3.996  0.2323 -0.0379 -0.0309
  311TIP3    H125128   2.694   1.855   4.016  0.4355  0.2171 -0.4999
  311TIP3    H225129   2.587   1.950   4.064  0.9312  0.8574 -0.6459
  312TIP3   OH225130   1.496   5.004   4.238 -0.1808 -0.9559  0.5173
  312TIP3    H125131   1.517   4.954   4.159 -0.6135  1.5088 -1.2840
  312TIP3    H225132   1.401   5.017   4.233  0.1086  1.4831 -0.1168
  313TIP3   OH225133   0.021   0.629   1.857 -0.5181 -0.2633  0.0776
  313TIP3    H125134   0.070   0.581   1.924  0.8144  1.6611  0.5590
  313TIP3    H225135   0.079   0.632   1.781 -1.0132 -0.2799 -0.3120
  314TIP3   OH225136   3.261   2.096   0.687  0.0857 -0.6626  0.0939
  314TIP3    H125137   3.237   2.013   0.728 -1.2681  0.0417  0.7900
  314TIP3    H225138   3.182   2.149   0.692  1.2031  1.0371  0.5686
  315TIP3   OH225139   2.007   2.920   1.883  0.3022 -0.3153  0.7629
  315TIP3    H125140   1.919   2.899   1.854  0.1094  0.9148  0.4124
  315TIP3    H225141   2.021   3.011   1.856  2.7544 -1.2866 -1.8946
  316TIP3   OH225142   0.049   4.680   3.452  0.4965  0.7406 -0.6119
  316TIP3    H125143   0.114   4.631   3.504 -0.4694 -0.4506 -0.4881
  316TIP3    H225144  -0.030   4.679   3.506 -0.9169 -1.5654 -2.5371
  317TIP3   OH225145   0.670   4.387   1.098  0.6494 -0.3566  0.3593
  317TIP3    H125146   0.602   4.324   1.123 -1.0474  0.9422 -0.7153
  317TIP3    H225147   0.731   4.388   1.172 -0.1623 -2.0118  1.1087
  318TIP3   OH225148   2.214   2.287   0.536  0.7112 -1.0290 -0.0255
  318TIP3    H125149   2.227   2.381   0.545  0.0434 -0.8118 -1.1368
  318TIP3    H225150   2.119   2.275   0.541  0.7863 -1.6272  0.0268
  319TIP3   OH225151   4.397   6.372   2.221  0.6121 -0.4374  0.4662
  319TIP3    H125152   4.402   6.281   2.191  0.0544 -0.2563 -0.1985
  319TIP3    H225153   4.309   6.382   2.256 -0.2828  0.5383 -1.8668
  320TIP3   OH225154   6.436   0.112   0.416  0.0339 -0.2781  0.5548
  320TIP3    H125155   6.390   0.136   0.497  1.0432  1.6898  0.6059
  320TIP3    H225156   6.421   0.186   0.358 -0.0954 -1.3733 -0.8417
  321TIP3   OH225157   5.262   6.317   2.839  0.0079  0.7013 -0.4356
  321TIP3    H125158   5.355   6.324   2.863  0.0407 -0.8856 -0.0076
  321TIP3    H225159   5.262   6.320   2.744  0.5867 -0.0878 -0.4710
  322TIP3   OH225160   1.062   1.589   1.612 -0.2805  0.0260 -0.3711
  322TIP3    H125161   1.120   1.655   1.573 -1.5861  1.2531 -0.3141
  322TIP3    H225162   0.976   1.631   1.615 -1.1778 -1.7226 -0.3865
  323TIP3   OH225163   2.769   0.742  11.368  0.3767  0.1624  0.4481
  323TIP3    H125164   2.853   0.781  11.392  0.4979  0.0419  0.2197
  323TIP3    H225165   2.745   0.688  11.444 -0.6176  1.9708  1.5236
  324TIP3   OH225166   5.875   1.891  10.056 -0.4010  0.1356 -0.3033
  324TIP3    H125167   5.875   1.841  10.138 -0.8727  1.4641  0.5350
  324TIP3    H225168   5.886   1.825   9.988  0.5943 -0.9372  0.8556
  325TIP3   OH225169   5.396   4.155  11.952 -0.0098  0.3860  0.2471
  325TIP3    H125170   5.367   4.174  11.863  0.9701 -0.2236 -0.2182
  325TIP3    H225171   5.333   4.201  12.008 -0.6730  0.7257 -0.7500
  326TIP3   OH225172   2.834   6.587  11.648 -0.0971  0.2342  0.1101
  326TIP3    H125173   2.883   6.668  11.664 -0.8765  0.9210 -0.8382
  326TIP3    H225174   2.881   6.546  11.575 -0.5671  0.6044 -0.4132
  327TIP3   OH225175   3.444   1.655  11.020 -0.0291 -0.0545  0.1535
  327TIP3    H125176   3.489   1.740  11.023 -1.3013  0.6489  0.3395
  327TIP3    H225177   3.364   1.670  11.071 -2.1465 -0.2023 -2.8914
  328TIP3   OH225178   2.366   2.946  10.840 -0.0836  0.1491  0.3070
  328TIP3    H125179   2.405   2.858  10.840  0.7928  0.5262  0.0399
  328TIP3    H225180   2.411   2.992  10.910 -1.8218 -0.1426  1.6795
  329TIP3   OH225181   1.061   1.607  10.593  0.5456  0.5138  0.0610
  329TIP3    H125182   1.021   1.642  10.673 -0.7801 -2.6543  0.9510
  329TIP3    H225183   1.136   1.556  10.624 -0.0443 -0.8372 -0.6519
  330TIP3   OH225184   1.983   3.368   8.438  0.1178  0.0199 -0.3839
  330TIP3    H125185   1.955   3.406   8.521  0.4482 -1.2582  0.3375
  330TIP3    H225186   2.058   3.421   8.412  0.5861 -0.1349  0.6121
  331TIP3   OH225187   3.504   5.999  10.011  0.2574  0.0014  0.1577
  331TIP3    H125188   3.527   6.079   9.965  0.1962 -0.5424 -0.8428
  331TIP3    H225189   3.585   5.947  10.011 -0.1371 -0.6282 -0.6707
  332TIP3   OH225190   2.516   2.960  11.068  0.6895  1.0070 -0.3104
  332TIP3    H125191   2.491   2.955  11.161  0.7029  0.8105 -0.3183
  332TIP3    H225192   2.577   2.887  11.056 -0.1341  0.3750 -0.7367
  333TIP3   OH225193   2.428   2.713  12.156  0.5932 -0.4220  0.5122
  333TIP3    H125194   2.472   2.629  12.169 -0.7911 -1.6890 -2.2168
  333TIP3    H225195   2.338   2.698  12.188  0.0050 -0.4215 -1.0490
  334TIP3   OH225196   1.013   4.836  11.042  0.0196  0.6525 -0.3895
  334TIP3    H125197   0.989   4.929  11.042 -0.3273  0.5827  0.5597
  334TIP3    H225198   0.930   4.790  11.054  0.1772  0.2085 -0.9664
  335TIP3   OH225199   5.360   3.849   9.582  0.1350  0.4378 -0.1723
  335TIP3    H125200   5.339   3.782   9.647 -0.4651  0.1963 -0.6136
  335TIP3    H225201   5.299   3.920   9.600 -0.3319  0.1914 -0.7422
  336TIP3   OH225202   6.020   5.541   8.727 -0.0687 -0.5010  0.1779
  336TIP3    H125203   5.954   5.594   8.682 -0.1174 -0.8251 -0.1408
  336TIP3    H225204   6.070   5.501   8.656  0.9394  0.3102  0.4111
  337TIP3   OH225205   0.189   5.167  11.259 -0.4031  0.1373 -0.3258
  337TIP3    H125206   0.123   5.205  11.202 -0.4131 -0.7703 -0.9440
  337TIP3    H225207   0.253   5.237  11.271 -1.2113  0.8601 -0.1250
  338TIP3   OH225208   4.029   4.880  11.671 -0.6743  0.3369 -0.1034
  338TIP3    H125209   3.952   4.827  11.650 -0.1945 -0.2497 -0.4184
  338TIP3    H225210   4.005   4.927  11.751 -2.0615  1.6046 -1.1961
  339TIP3   OH225211   0.547   6.050  11.265 -0.0677 -0.3715  0.1080
  339TIP3    H125212   0.533   6.134  11.222 -1.9062 -1.1979 -1.0122
  339TIP3    H225213   0.477   6.043  11.329 -0.3717 -1.3584 -0.3176
  340TIP3   OH225214   0.971   4.762  10.650 -0.0188  0.6957 -0.1550
  340TIP3    H125215   1.003   4.831  10.592  0.7046  0.3544 -0.1738
  340TIP3    H225216   1.050   4.715  10.677 -0.6409 -1.6704 -2.0717
  341TIP3   OH225217   0.612   1.906   9.670 -0.4848 -0.5626 -0.1434
  341TIP3    H125218   0.554   1.966   9.716 -0.6317 -0.6500 -0.2165
  341TIP3    H225219   0.641   1.954   9.593  1.2377  0.3034  0.9690
  342TIP3   OH225220   6.128   2.788   8.786  0.3076  0.0385  0.4123
  342TIP3    H125221   6.137   2.820   8.876  0.5116 -0.3244  0.5225
  342TIP3    H225222   6.189   2.714   8.780 -2.1656 -2.1964  1.0366
  343TIP3   OH225223   5.376   3.126  10.409  0.4318 -0.6372 -0.3262
  343TIP3    H125224   5.412   3.129  10.320  1.0466 -0.1330 -0.0652
  343TIP3    H225225   5.283   3.104  10.396  0.5473 -0.7303 -1.0793
  344TIP3   OH225226   1.969   5.052   9.233  0.3576  0.0501  0.1837
  344TIP3    H125227   2.056   5.023   9.205  0.5069 -0.5536  1.2382
  344TIP3    H225228   1.945   5.120   9.169  1.3129 -0.2410 -0.5074
  345TIP3   OH225229   5.439   4.533   9.673  0.5665 -0.3348  0.2701
  345TIP3    H125230   5.346   4.535   9.697  0.3915  1.9373 -0.4176
  345TIP3    H225231   5.443   4.469   9.601 -0.8342  0.8244 -0.9202
  346TIP3   OH225232   5.922   2.888   9.297  0.1729  0.1761  0.2543
  346TIP3    H125233   5.974   2.968   9.288  0.1355  0.1470 -0.2624
  346TIP3    H225234   5.986   2.820   9.319  0.0291  0.5977  2.1374
  347TIP3   OH225235   2.191   1.933  11.009 -0.3264 -0.2165 -0.2694
  347TIP3    H125236   2.130   1.940  10.935 -0.9693 -0.0869  0.2680
  347TIP3    H225237   2.173   2.010  11.062  0.8448  0.2321 -0.4921
  348TIP3   OH225238   0.726   2.562  11.817 -0.0214 -0.3034  0.2986
  348TIP3    H125239   0.631   2.563  11.832  0.0365  0.8949  0.6971
  348TIP3    H225240   0.737   2.509  11.738 -1.1271  0.4247 -0.3638
  349TIP3   OH225241   0.244   2.996  11.121  0.3132  0.0845 -0.3501
  349TIP3    H125242   0.339   2.985  11.129  0.3651  1.6430  2.2930
  349TIP3    H225243   0.207   2.925  11.172  0.0386 -0.2865 -1.0527
  350TIP3   OH225244   0.369   2.748   8.452  0.4617  0.3869 -0.7319
  350TIP3    H125245   0.339   2.743   8.361 -1.5241  0.1432 -0.1183
  350TIP3    H225246   0.422   2.827   8.455  0.4053  0.5000 -2.0651
  351TIP3   OH225247   6.191   5.397   9.625 -0.1814  0.4289 -0.0971
  351TIP3    H125248   6.252   5.337   9.581 -0.1112 -1.2878  2.1410
  351TIP3    H225249   6.104   5.366   9.598 -0.1282 -0.1607  0.3913
  352TIP3   OH225250   2.894   0.777  10.255  0.1221 -0.1531 -0.4464
  352TIP3    H125251   2.960   0.759  10.321  0.5888 -0.0224 -0.8627
  352TIP3    H225252   2.883   0.872  10.258  0.8363 -0.0308 -1.1810
  353TIP3   OH225253   4.641   0.515  11.128 -0.4031 -0.0956 -0.2449
  353TIP3    H125254   4.700   0.471  11.066 -1.0175  0.1918 -1.0587
  353TIP3    H225255   4.695   0.585  11.166  0.4287 -1.2109  0.6833
  354TIP3   OH225256   0.818   5.515  11.851 -0.2368  0.2985  0.2475
  354TIP3    H125257   0.875   5.592  11.859  1.0058 -0.6618  0.8771
  354TIP3    H225258   0.733   5.551  11.827  0.4205  1.8414  0.1150
  355TIP3   OH225259   5.332   3.409  10.389 -0.0115  0.0980  0.1204
  355TIP3    H125260   5.286   3.334  10.427 -0.7678  0.5708  0.1754
  355TIP3    H225261   5.318   3.400  10.295  0.9337 -0.4821  0.0273
  356TIP3   OH225262   1.855   5.462  10.498 -0.4552  0.6671 -0.1448
  356TIP3    H125263   1.794   5.394  10.467  1.1961 -1.1435  0.3385
  356TIP3    H225264   1.931   5.454  10.441 -0.4040  2.4755 -0.3590
  357TIP3   OH225265   6.174   5.064  10.468  0.3376  0.2087 -0.1744
  357TIP3    H125266   6.155   5.006  10.394 -1.1987 -0.3265  0.5904
  357TIP3    H225267   6.127   5.145  10.447 -0.5727 -0.1392  0.4320
  358TIP3   OH225268   3.315   4.184   9.489  0.5299  0.1227  0.2677
  358TIP3    H125269   3.266   4.172   9.407  1.1845 -2.0534  0.1096
  358TIP3    H225270   3.350   4.273   9.484  0.6722  0.0001 -1.9103
  359TIP3   OH225271   4.141   4.113   9.447 -0.0616 -0.9210 -0.3000
  359TIP3    H125272   4.083   4.163   9.504 -0.3093  0.3751 -1.6222
  359TIP3    H225273   4.218   4.095   9.501  0.0792  1.0098  0.2108
  360TIP3   OH225274   3.597   3.253  10.465  0.0396  0.1280  0.3456
  360TIP3    H125275   3.550   3.300  10.396 -0.0543  0.2393  0.4851
  360TIP3    H225276   3.634   3.176  10.422  0.4822  0.5072  0.0337
  361TIP3   OH225277   0.809   6.096  10.841  0.4925 -0.5362  0.0545
  361TIP3    H125278   0.834   6.166  10.781  0.4442 -1.2351 -0.7945
  361TIP3    H225279   0.849   6.018  10.805  1.0402 -0.8693  1.3164
  362TIP3   OH225280   6.424   5.325  11.317  0.8525  0.6974  0.5137
  362TIP3    H125281   6.331   5.343  11.305  0.7255 -0.5983 -0.6011
  362TIP3    H225282   6.466   5.411  11.310 -0.1888  1.2122  0.4226
  363TIP3   OH225283   1.941   4.999   9.507  0.3742  0.2238 -0.1308
  363TIP3    H125284   1.917   4.907   9.518 -0.7566  0.6722  1.4119
  363TIP3    H225285   1.958   5.008   9.413  0.7320 -1.5921 -0.2846
  364TIP3   OH225286   5.682   5.837  10.198 -0.4159 -0.0076 -0.1536
  364TIP3    H125287   5.652   5.923  10.227 -0.0124  0.4418 -1.0399
  364TIP3    H225288   5.680   5.842  10.102  1.0258 -0.4750 -0.2337
  365TIP3   OH225289   1.350   2.191  12.044  0.4730 -0.4520 -0.4726
  365TIP3    H125290   1.392   2.117  12.000  0.5639 -0.4789 -0.3397
  365TIP3    H225291   1.421   2.240  12.083  0.4721  0.0835 -1.1267
  366TIP3   OH225292   6.091   0.819   9.024  0.3303 -0.0358  0.0417
  366TIP3    H125293   6.179   0.857   9.024  0.3617 -0.1005 -0.4160
  366TIP3    H225294   6.052   0.850   8.943 -0.0914  0.0331  0.2694
  367TIP3   OH225295   1.675   6.317  11.784  0.1570 -0.6924  0.1422
  367TIP3    H125296   1.764   6.319  11.820  0.5746 -1.9598 -0.7382
  367TIP3    H225297   1.666   6.229  11.748 -1.1248 -0.2706 -0.6243
  368TIP3   OH225298   5.950   4.037  10.248  0.1714  0.0670  0.5087
  368TIP3    H125299   6.041   4.044  10.278  0.5402 -1.4778 -0.1801
  368TIP3    H225300   5.949   3.960  10.191 -1.2674  0.8873 -0.6389
  369TIP3   OH225301   0.046   1.459   8.806  0.0529  0.3954  0.1224
  369TIP3    H125302   0.039   1.413   8.722 -1.5663  0.7131  0.0429
  369TIP3    H225303   0.139   1.459   8.826  0.3567 -0.6501 -1.1397
  370TIP3   OH225304   0.559   4.491   9.428 -0.2664 -0.2409 -0.1902
  370TIP3    H125305   0.572   4.531   9.342 -0.8062 -0.9207 -0.6050
  370TIP3    H225306   0.638   4.512   9.477 -0.4996  1.2450 -0.4079
  371TIP3   OH225307   6.608   4.825  10.532 -0.1929 -1.1033 -0.6475
  371TIP3    H125308   6.629   4.917  10.546 -0.5163 -0.7303 -2.3568
  371TIP3    H225309   6.666   4.797  10.462 -1.2847 -1.6839 -1.3601
  372TIP3   OH225310   3.801   1.958  10.620  0.1307 -0.0905  0.4887
  372TIP3    H125311   3.807   1.877  10.670 -1.3669 -1.5844 -1.5415
  372TIP3    H225312   3.792   2.027  10.686 -0.3574 -1.7699  2.2712
  373TIP3   OH225313   5.886   6.223   9.903  0.0016  0.1549 -0.3638
  373TIP3    H125314   5.923   6.284   9.966 -2.0006  0.0507  1.0304
  373TIP3    H225315   5.958   6.164   9.881  1.0443  0.8634  0.9899
  374TIP3   OH225316   6.597   6.595   8.382  0.2615  0.3372  0.8431
  374TIP3    H125317   6.569   6.678   8.344 -3.1573 -0.1838  1.8700
  374TIP3    H225318   6.538   6.530   8.344  1.7407 -1.3863  1.3478
  375TIP3   OH225319   0.030   1.176   9.310 -0.2707  0.0311  0.1682
  375TIP3    H125320   0.016   1.143   9.399  0.7458  0.5536  0.5417
  375TIP3    H225321  -0.055   1.167   9.268 -1.6752  2.6629  2.1408
  376TIP3   OH225322   2.305   4.313  10.777  0.1962 -0.2920  0.6315
  376TIP3    H125323   2.225   4.324  10.828 -1.5562 -1.8139 -1.5754
  376TIP3    H225324   2.340   4.401  10.767 -0.1148  0.1882  3.2374
  377TIP3   OH225325   3.890   6.694   9.991 -0.0768 -0.2572  0.6784
  377TIP3    H125326   3.875   6.605  10.025  2.1722 -0.8794  0.1820
  377TIP3    H225327   3.952   6.733  10.053 -0.7696  0.8619  0.6907
  378TIP3   OH225328   3.283   0.514  12.225  0.0981  0.2456  0.0039
  378TIP3    H125329   3.321   0.598  12.253  0.1467  0.7659 -1.5330
  378TIP3    H225330   3.193   0.536  12.200  0.3893  0.0431 -1.2868
  379TIP3   OH225331   4.362   1.115   8.580  0.1091 -0.0550  0.5536
  379TIP3    H125332   4.398   1.172   8.648  1.7407 -3.1191  2.4702
  379TIP3    H225333   4.434   1.103   8.518 -0.5956  0.7992 -0.4653
  380TIP3   OH225334   4.532   3.578  12.099  0.2162 -0.3072 -0.1471
  380TIP3    H125335   4.515   3.592  12.006  3.5892 -0.4347 -0.9132
  380TIP3    H225336   4.522   3.665  12.138 -0.1179 -0.0349 -0.8199
  381TIP3   OH225337   5.382   5.905  11.655 -0.3522  0.0020 -0.1677
  381TIP3    H125338   5.353   5.909  11.564  0.0012 -0.5190 -0.3130
  381TIP3    H225339   5.467   5.860  11.651  0.6593  1.7903  0.1952
  382TIP3   OH225340   5.468   6.108  11.098 -0.1035 -0.4916  0.3864
  382TIP3    H125341   5.377   6.131  11.114 -0.1479 -0.6541  0.3695
  382TIP3    H225342   5.482   6.127  11.006  0.1232  0.3474  0.5853
  383TIP3   OH225343   3.562   0.147  11.918  0.3029 -0.7175  0.7903
  383TIP3    H125344   3.658   0.145  11.925  0.3173  0.1094  0.8579
  383TIP3    H225345   3.535   0.220  11.974 -0.2304  0.2568 -0.7083
  384TIP3   OH225346   6.561   2.387   9.651  0.2830 -0.1595  0.0557
  384TIP3    H125347   6.543   2.477   9.677  1.2789  0.0548  0.0420
  384TIP3    H225348   6.643   2.392   9.602 -0.2720 -0.9054 -1.0002
  385TIP3   OH225349   5.521   2.576  10.760 -0.3351  0.0106 -0.4486
  385TIP3    H125350   5.584   2.644  10.783 -0.8337  0.6360 -0.8998
  385TIP3    H225351   5.516   2.577  10.665 -1.7869  0.6974 -0.3973
  386TIP3   OH225352   4.877   4.729  10.214  0.3674 -0.1986  0.0785
  386TIP3    H125353   4.956   4.733  10.160  0.9967  2.6142  1.0350
  386TIP3    H225354   4.892   4.655  10.272  1.3078 -1.0229 -1.1496
  387TIP3   OH225355   1.300   2.851  11.051 -0.5301 -0.7117 -0.6690
  387TIP3    H125356   1.356   2.922  11.083 -0.3996 -0.4343 -1.4995
  387TIP3    H225357   1.250   2.890  10.980 -1.6650 -1.0093 -0.0564
  388TIP3   OH225358   6.674   4.830   8.469  0.1613 -0.8146 -0.0112
  388TIP3    H125359   6.731   4.874   8.405  1.6659 -1.8960  0.5238
  388TIP3    H225360   6.691   4.737   8.457 -0.4341 -1.0962  1.1491
  389TIP3   OH225361   2.051   2.034  10.122 -0.6647 -0.4704 -1.1730
  389TIP3    H125362   1.956   2.031  10.118 -0.7159 -1.3702  0.1872
  389TIP3    H225363   2.080   1.994  10.040 -1.4658 -1.4626 -0.9933
  390TIP3   OH225364   1.681   1.522  10.207  0.2322 -0.0352 -0.2779
  390TIP3    H125365   1.726   1.606  10.216 -1.9754  1.0932  0.8978
  390TIP3    H225366   1.720   1.483  10.129  1.7234  1.8111 -0.5406
  391TIP3   OH225367   0.867   0.854  11.101 -0.3670  0.1729  0.4443
  391TIP3    H125368   0.843   0.883  11.013  0.8149  1.7549  0.5836
  391TIP3    H225369   0.903   0.766  11.089  0.0726  0.4894 -0.7257
  392TIP3   OH225370   3.341   3.671   9.653 -0.0975 -0.2528 -0.0595
  392TIP3    H125371   3.332   3.576   9.659 -1.1850 -0.1445  0.1154
  392TIP3    H225372   3.398   3.695   9.727 -0.2033 -0.7169  0.1726
  393TIP3   OH225373   0.661   6.509   8.907  0.2009  0.6231  1.0541
  393TIP3    H125374   0.683   6.591   8.863  0.7637  0.4042  0.9134
  393TIP3    H225375   0.571   6.521   8.936  0.1261  1.1227  0.6453
  394TIP3   OH225376   0.892   2.635   9.915  0.1268  0.2430 -0.2007
  394TIP3    H125377   0.864   2.578   9.842 -0.6085  1.0697 -0.5836
  394TIP3    H225378   0.837   2.609   9.988 -0.2122  0.4508 -0.3776
  395TIP3   OH225379   2.341   6.557  10.670 -0.0362 -0.0829  0.6408
  395TIP3    H125380   2.397   6.625  10.635 -0.5778  0.4793  0.8553
  395TIP3    H225381   2.283   6.602  10.731  1.7600 -1.2296  3.3526
  396TIP3   OH225382   0.114   4.093  10.175 -0.5742  0.3982 -0.3242
  396TIP3    H125383   0.149   4.173  10.214  1.8167 -0.9477  0.4824
  396TIP3    H225384   0.021   4.095  10.197  0.0377  1.3185  2.7124
  397TIP3   OH225385   6.428   1.721  10.695 -0.1794 -0.0203  0.1510
  397TIP3    H125386   6.401   1.717  10.787  1.7961 -2.0330  0.7331
  397TIP3    H225387   6.394   1.805  10.664 -0.8731  0.7509  2.7173
  398TIP3   OH225388   0.665   1.992  10.363 -0.1355  0.1629 -0.3400
  398TIP3    H125389   0.719   2.043  10.303  2.1595  0.8885  2.1356
  398TIP3    H225390   0.694   1.902  10.350  2.5143  0.6265  1.5509
  399TIP3   OH225391   4.930   1.618  11.434 -0.4570 -0.2340  0.3840
  399TIP3    H125392   5.001   1.598  11.373 -0.4160  2.9132 -0.7516
  399TIP3    H225393   4.855   1.639  11.379 -1.3988 -0.5128  1.5141
  400TIP3   OH225394   5.623   4.169  11.459 -0.0725 -0.1195  0.0120
  400TIP3    H125395   5.528   4.177  11.455 -0.3668 -0.8994  3.1875
  400TIP3    H225396   5.654   4.210  11.378 -3.0388  0.9450 -0.6899
  401TIP3   OH225397   4.357   3.738  11.591 -0.5844 -0.2286 -0.3092
  401TIP3    H125398   4.288   3.804  11.594  0.0107  0.3903  0.6172
  401TIP3    H225399   4.409   3.761  11.514  0.0232  0.8437  0.3897
  402TIP3   OH225400   3.700   2.756  10.740  0.3985 -0.1039  0.2376
  402TIP3    H125401   3.673   2.691  10.805  1.2719 -0.3717  0.3488
  402TIP3    H225402   3.788   2.729  10.715  1.8249  2.3889  2.0845
  403TIP3   OH225403   0.479   4.890  11.763 -0.5182 -0.2446 -0.2388
  403TIP3    H125404   0.572   4.876  11.743 -0.8057 -1.4147 -0.8324
  403TIP3    H225405   0.435   4.876  11.679 -1.2927 -0.2941  0.1767
  404TIP3   OH225406   5.099   3.191  11.887  0.0405 -0.9321 -0.5723
  404TIP3    H125407   5.075   3.255  11.954 -1.9219 -0.6948 -1.4088
  404TIP3    H225408   5.183   3.221  11.853  0.3966 -0.2871  0.8045
  405TIP3   OH225409   1.401   0.702   9.835  0.0660 -0.5398  0.0512
  405TIP3    H125410   1.388   0.772   9.771 -0.1570 -0.9703 -0.3842
  405TIP3    H225411   1.459   0.640   9.791  0.4310 -0.5288  0.5104
  406TIP3   OH225412   2.777   3.740  11.164  0.1942 -0.5059  0.6702
  406TIP3    H125413   2.818   3.809  11.217  2.4708 -0.2317 -1.2912
  406TIP3    H225414   2.773   3.776  11.076  2.2446 -3.0707 -0.6194
  407TIP3   OH225415   0.503   5.227   8.206 -0.1885  0.5953 -0.0185
  407TIP3    H125416   0.503   5.167   8.280  0.3935  0.9891  0.3048
  407TIP3    H225417   0.536   5.176   8.132 -2.0656 -0.2066 -0.3608
  408TIP3   OH225418   4.401   3.417  10.329 -0.5784 -0.2167  0.0609
  408TIP3    H125419   4.433   3.498  10.290  1.0627  0.0798  1.8318
  408TIP3    H225420   4.459   3.349  10.293 -0.1810 -0.1830  0.6137
  409TIP3   OH225421   0.823   1.515  10.792  0.5568 -0.8592 -0.1797
  409TIP3    H125422   0.885   1.444  10.806  2.0327  0.2462 -0.7927
  409TIP3    H225423   0.777   1.523  10.875  1.1851 -1.7734  0.2755
  410TIP3   OH225424   4.407   1.764  10.512  0.4496  0.3986  0.1371
  410TIP3    H125425   4.354   1.800  10.441  0.6254 -0.9999 -0.7485
  410TIP3    H225426   4.344   1.719  10.568  0.2623  1.8050  1.1062
  411TIP3   OH225427   6.477   1.857  11.303 -0.2795  0.3199 -0.4225
  411TIP3    H125428   6.561   1.818  11.326 -1.4547 -0.7858  2.4776
  411TIP3    H225429   6.473   1.851  11.208  2.3733 -0.7023 -0.5456
  412TIP3   OH225430   5.322   6.485  10.580  0.5651  0.0783  0.3518
  412TIP3    H125431   5.367   6.447  10.655 -0.0666 -0.2785  0.5648
  412TIP3    H225432   5.229   6.478  10.602  0.1997 -2.4213 -1.5241
  413TIP3   OH225433   0.064   0.491   9.939 -0.1543 -0.0850 -0.4475
  413TIP3    H125434   0.038   0.540  10.017 -1.5597  2.1448 -2.1933
  413TIP3    H225435   0.157   0.511   9.928  0.1761 -0.7862  0.8452
  414TIP3   OH225436   1.288   5.841   9.777  0.1799 -0.5240  0.1811
  414TIP3    H125437   1.247   5.927   9.790 -0.3880 -0.9119  0.9896
  414TIP3    H225438   1.256   5.787   9.849  3.4565 -0.3864  1.9378
  415TIP3   OH225439   4.121   3.249   9.559  0.2630 -0.1563 -0.0230
  415TIP3    H125440   4.129   3.280   9.469  0.9957 -0.0214  0.0801
  415TIP3    H225441   4.069   3.169   9.553 -0.0559  0.0821 -0.5099
  416TIP3   OH225442   2.152   6.241  12.053  0.4169 -0.1076  0.3003
  416TIP3    H125443   2.244   6.263  12.067  0.6407 -0.4733 -0.5922
  416TIP3    H225444   2.153   6.152  12.019  0.0371  1.1985 -3.5610
  417TIP3   OH225445   5.436   4.405  10.541  0.1303  0.8898 -0.1006
  417TIP3    H125446   5.398   4.317  10.532  0.4969  0.6394  0.7387
  417TIP3    H225447   5.393   4.442  10.618  0.8870  0.9624  0.2995
  418TIP3   OH225448   2.292   3.779  10.722  0.3824 -0.2528 -0.4960
  418TIP3    H125449   2.297   3.833  10.801 -2.3615 -0.4823 -0.0717
  418TIP3    H225450   2.376   3.794  10.678  1.5013  0.8506  1.8120
  419TIP3   OH225451   6.058   2.135  11.296  0.2362  0.6633 -0.4896
  419TIP3    H125452   6.007   2.070  11.345  0.6617  1.2017  0.6978
  419TIP3    H225453   5.998   2.208  11.283 -0.3799 -0.0801 -2.1962
  420TIP3   OH225454   1.246   1.562   9.964 -0.0960 -0.4506  0.3058
  420TIP3    H125455   1.271   1.543  10.054 -0.0793 -0.4769  0.2954
  420TIP3    H225456   1.329   1.562   9.915 -0.0816 -0.2138  0.3292
  421TIP3   OH225457   1.460   5.804  11.765 -0.2281  0.3868  0.0149
  421TIP3    H125458   1.516   5.881  11.772  1.5397 -0.1683 -4.5154
  421TIP3    H225459   1.502   5.737  11.819  1.6108  0.9569 -0.6560
  422TIP3   OH225460   2.676   0.672   8.978  0.3767 -0.1284 -0.3434
  422TIP3    H125461   2.644   0.678   8.888  0.2343 -0.7886 -0.3405
  422TIP3    H225462   2.614   0.725   9.029 -0.4714 -1.0351 -0.4034
  423TIP3   OH225463   5.553   2.348   8.174  0.1692 -0.1116 -0.0252
  423TIP3    H125464   5.643   2.338   8.141 -0.3438 -2.3315 -0.8936
  423TIP3    H225465   5.539   2.271   8.229 -1.2596  0.1423 -0.0020
  424TIP3   OH225466   4.633   0.832  10.930  0.3172  0.2803  0.2213
  424TIP3    H125467   4.707   0.847  10.988  0.2890  0.2304  0.2708
  424TIP3    H225468   4.575   0.774  10.979  0.0338  0.6794  0.3625
  425TIP3   OH225469   5.041   0.501   9.121 -0.4840  0.6859 -0.4469
  425TIP3    H125470   5.092   0.426   9.153 -1.4774  0.3113  0.3047
  425TIP3    H225471   5.073   0.514   9.031 -1.6221 -1.9210 -1.3423
  426TIP3   OH225472   2.637   4.826  11.063  0.0839 -0.2899  0.0492
  426TIP3    H125473   2.579   4.876  11.006  0.4154  0.2755  0.2056
  426TIP3    H225474   2.679   4.892  11.119 -0.3921 -0.8464  1.0932
  427TIP3   OH225475   3.177   2.970   9.234 -0.1229  0.0102 -0.6030
  427TIP3    H125476   3.179   2.988   9.140  1.4686  0.5325 -0.4909
  427TIP3    H225477   3.123   3.040   9.270  1.1230  1.1650 -0.8852
  428TIP3   OH225478   0.505   2.947  11.191 -0.8276 -0.2669  0.1798
  428TIP3    H125479   0.449   2.898  11.251 -0.8545  0.5005  0.7930
  428TIP3    H225480   0.591   2.906  11.200 -1.6333 -2.9214 -2.3801
  429TIP3   OH225481   4.564   1.981  12.188 -0.3411  0.5805  0.3351
  429TIP3    H125482   4.497   1.999  12.122  0.3739  3.2756  0.2507
  429TIP3    H225483   4.535   1.899  12.229 -2.1490  0.1776 -1.5809
  430TIP3   OH225484   2.768   4.956  10.706  0.0090  0.5958 -0.7334
  430TIP3    H125485   2.819   5.013  10.764  0.2466  0.5276 -0.8745
  430TIP3    H225486   2.681   4.954  10.745  0.3479 -0.0165  0.0338
  431TIP3   OH225487   1.860   5.956   9.361 -0.0866 -0.6523  0.4347
  431TIP3    H125488   1.771   5.925   9.348  0.0360 -0.6959 -0.3002
  431TIP3    H225489   1.884   5.997   9.279  0.3729 -0.1327  0.8195
  432TIP3   OH225490   3.847   2.610  11.319 -0.2057 -0.1701  0.4623
  432TIP3    H125491   3.857   2.518  11.343  0.1268 -0.6201 -1.2764
  432TIP3    H225492   3.843   2.656  11.403 -0.9354 -1.8034  1.3862
  433TIP3   OH225493   5.875   4.893   9.524  0.2530  0.9655  0.2808
  433TIP3    H125494   5.910   4.927   9.441  0.3203 -0.0921 -0.1419
  433TIP3    H225495   5.845   4.971   9.571 -0.4461  1.5420 -1.0411
  434TIP3   OH225496   6.165   2.766  12.053  0.3212 -0.3282 -0.2701
  434TIP3    H125497   6.097   2.832  12.034  0.9599  0.4177 -0.0251
  434TIP3    H225498   6.245   2.818  12.066  0.5996 -1.0760  1.0785
  435TIP3   OH225499   0.738   4.984   8.476 -0.2423  0.3985  0.2836
  435TIP3    H125500   0.645   4.997   8.461 -0.7421 -1.7966  1.1445
  435TIP3    H225501   0.771   5.071   8.501 -1.5898  1.6798 -2.0072
  436TIP3   OH225502   6.537   4.915   9.803  0.2608  0.6978 -0.2463
  436TIP3    H125503   6.455   4.964   9.803  1.5126  2.9454  0.1244
  436TIP3    H225504   6.566   4.916   9.712  0.2066  0.4881 -0.2664
  437TIP3   OH225505   4.874   5.623   9.189 -0.5443 -0.0048  0.2221
  437TIP3    H125506   4.828   5.706   9.198 -0.3222  0.1549 -0.0896
  437TIP3    H225507   4.831   5.565   9.252 -0.9121  0.2513  0.2129
  438TIP3   OH225508   1.911   4.668  10.064 -0.1114  0.4417 -0.5542
  438TIP3    H125509   1.943   4.715  10.142 -0.8135 -0.0532  0.0383
  438TIP3    H225510   1.851   4.729  10.022 -1.0639  0.0666  0.2451
  439TIP3   OH225511   2.296   1.322   8.534  0.1893 -0.3587  0.0673
  439TIP3    H125512   2.357   1.340   8.463 -1.5492  0.7610 -1.2213
  439TIP3    H225513   2.232   1.261   8.496 -0.9819  0.5528  0.5132
  440TIP3   OH225514   0.350   1.535  10.593  0.0028  0.2418  0.8362
  440TIP3    H125515   0.316   1.471  10.530  2.2854  1.0090 -1.3370
  440TIP3    H225516   0.306   1.617  10.569 -0.7346  0.1119  1.7020
  441TIP3   OH225517   3.437   5.011  11.507  0.1099 -0.6119 -0.4074
  441TIP3    H125518   3.360   4.954  11.500  0.4844 -1.3280  0.9018
  441TIP3    H225519   3.402   5.094  11.539 -0.1332 -0.8921  0.0601
  442TIP3   OH225520   4.916   1.461  10.965 -0.0926  0.4092 -0.5161
  442TIP3    H125521   4.893   1.423  11.050  1.3952  1.5790  0.4627
  442TIP3    H225522   4.850   1.528  10.949 -1.5652 -1.1513 -1.3024
  443TIP3   OH225523   4.349   3.904  11.890 -0.0334 -0.3795  0.5133
  443TIP3    H125524   4.422   3.957  11.858 -0.9982  0.6465 -0.0173
  443TIP3    H225525   4.369   3.890  11.983  0.4360  0.5761  0.5616
  444TIP3   OH225526   2.083   2.326  10.883 -0.0864 -0.1823 -0.1588
  444TIP3    H125527   2.062   2.292  10.796  1.0291 -1.2701 -0.0269
  444TIP3    H225528   1.999   2.326  10.929 -0.4942 -0.6755 -0.8757
  445TIP3   OH225529   4.232   0.417   9.087  0.1758  0.5832 -0.1307
  445TIP3    H125530   4.275   0.502   9.093 -0.0589  0.6370  1.2227
  445TIP3    H225531   4.262   0.370   9.165 -1.1965  0.1558  0.1788
  446TIP3   OH225532   0.169   3.251  11.086 -0.0866 -0.0646 -0.3530
  446TIP3    H125533   0.163   3.273  10.993  0.8702 -0.2244 -0.4631
  446TIP3    H225534   0.169   3.156  11.089 -0.3323 -0.0597 -0.1709
  447TIP3   OH225535   1.468   0.696  10.673  0.6608 -0.0035  0.3387
  447TIP3    H125536   1.502   0.739  10.594 -0.4250  0.2345 -0.0235
  447TIP3    H225537   1.542   0.646  10.707  2.1546  2.5034  1.0581
  448TIP3   OH225538   0.373   2.236  10.382 -0.0114 -0.3546  0.5580
  448TIP3    H125539   0.389   2.225  10.476  0.9702  0.3114  0.4877
  448TIP3    H225540   0.361   2.330  10.370  3.2013  0.0730 -0.3872
  449TIP3   OH225541   0.232   2.778   9.614 -0.0420  0.2778  0.3855
  449TIP3    H125542   0.261   2.844   9.551  0.2861  1.0508  1.3283
  449TIP3    H225543   0.142   2.758   9.589  0.2553  0.1697 -0.6521
  450TIP3   OH225544   6.408   0.664   9.018 -0.2360  0.5518  0.0012
  450TIP3    H125545   6.383   0.636   9.106  0.4721 -0.2531 -0.0476
  450TIP3    H225546   6.435   0.584   8.974  1.0653  1.1819 -0.3941
  451TIP3   OH225547   6.155   4.068   9.472 -0.3950 -0.5370  0.6512
  451TIP3    H125548   6.149   3.973   9.478 -1.5391 -0.4363  1.4343
  451TIP3    H225549   6.248   4.087   9.483  0.0044 -1.6160 -0.6473
  452TIP3   OH225550   1.655   4.522  10.606 -0.0149 -0.5595  0.2544
  452TIP3    H125551   1.620   4.611  10.605  1.3649  0.0047  0.0293
  452TIP3    H225552   1.629   4.487  10.691 -1.8889 -0.5166 -0.2624
  453TIP3   OH225553   4.399   0.819  10.667 -0.4187  0.0044  0.0167
  453TIP3    H125554   4.367   0.771  10.591 -0.4124 -1.3268  0.8260
  453TIP3    H225555   4.493   0.800  10.669 -0.5472 -0.5848  0.7711
  454TIP3   OH225556   4.080   0.831   8.401 -0.4022 -0.7016 -0.4417
  454TIP3    H125557   4.159   0.806   8.353 -0.2556 -1.1307  0.0129
  454TIP3    H225558   4.082   0.927   8.401 -1.0711 -0.6376 -2.3676
  455TIP3   OH225559   0.010   2.741  11.006  0.0737 -0.5089  0.6217
  455TIP3    H125560   0.051   2.714  11.087 -0.2249  0.0330  0.9607
  455TIP3    H225561  -0.063   2.796  11.033 -1.4760 -2.1859  0.0971
  456TIP3   OH225562   1.878   3.767   9.938  0.3215  0.2476  0.1007
  456TIP3    H125563   1.970   3.770   9.912  0.0160 -0.0880 -1.1044
  456TIP3    H225564   1.831   3.742   9.858 -0.7118 -0.6368  0.9366
  457TIP3   OH225565   4.055   5.212  11.337  0.3058 -0.5152 -0.5061
  457TIP3    H125566   3.976   5.172  11.299 -0.3759  1.2182 -1.0309
  457TIP3    H225567   4.036   5.220  11.430  0.3189 -1.1297 -0.4517
  458TIP3   OH225568   2.285   2.902  11.575 -0.2186  0.0684  0.3958
  458TIP3    H125569   2.300   2.810  11.595  0.1700 -0.1500 -0.8280
  458TIP3    H225570   2.220   2.901  11.505 -0.9821  0.7714  1.0804
  459TIP3   OH225571   0.377   2.291   9.926 -0.5973  0.4954  0.4965
  459TIP3    H125572   0.285   2.313   9.944 -1.0730 -0.3353 -0.7640
  459TIP3    H225573   0.405   2.239  10.002 -1.0939  0.9434  0.9958
  460TIP3   OH225574   3.490   0.082   9.760 -0.1951 -0.2887 -0.7259
  460TIP3    H125575   3.571   0.031   9.764 -0.6501 -1.2747 -2.6942
  460TIP3    H225576   3.486   0.113   9.670 -1.0373  1.4285 -0.1303
  461TIP3   OH225577   0.856   6.555  12.240  0.2035  0.1292 -0.5548
  461TIP3    H125578   0.831   6.493  12.308 -1.6610  2.6026  1.2340
  461TIP3    H225579   0.948   6.573  12.257  0.9140 -2.3597 -1.3954
  462TIP3   OH225580   0.199   1.290  11.729  0.1170 -0.1007 -0.4041
  462TIP3    H125581   0.123   1.323  11.681 -0.1391 -1.8326 -1.2970
  462TIP3    H225582   0.164   1.259  11.812  0.4976  2.5392  0.8260
  463TIP3   OH225583   3.727   6.634   9.758  0.1028 -0.3170  0.1664
  463TIP3    H125584   3.777   6.687   9.696 -1.1738  1.2595  0.4327
  463TIP3    H225585   3.770   6.650   9.842  0.1564 -0.2801  0.1330
  464TIP3   OH225586   6.085   2.370  12.223  0.3118 -0.2474  0.3554
  464TIP3    H125587   6.131   2.444  12.184  0.0824 -0.5363 -0.4716
  464TIP3    H225588   6.155   2.311  12.252  0.5178 -1.4431 -2.3417
  465TIP3   OH225589   5.639   3.408  11.098  0.1896  0.0870 -0.5552
  465TIP3    H125590   5.652   3.346  11.027  1.5347  0.6612 -0.8378
  465TIP3    H225591   5.711   3.389  11.159  0.3483  1.0742 -0.4329
  466TIP3   OH225592   5.395   6.346  10.812 -0.2282  0.2684  0.7704
  466TIP3    H125593   5.396   6.371  10.904 -0.0324 -1.5057  1.2920
  466TIP3    H225594   5.434   6.258  10.811 -0.0335  0.3420 -1.0293
  467TIP3   OH225595   0.288   4.354  10.680 -0.5007  0.2863 -0.8681
  467TIP3    H125596   0.379   4.363  10.651 -0.5199  0.4990 -0.8686
  467TIP3    H225597   0.281   4.414  10.754 -0.5019 -0.1184 -0.5441
  468TIP3   OH225598   1.564   5.502   9.782  0.0544 -0.9348 -0.3746
  468TIP3    H125599   1.646   5.463   9.811  0.5151 -0.3764 -0.9067
  468TIP3    H225600   1.575   5.514   9.687 -0.1338  0.3163 -0.2570
  469TIP3   OH225601   2.446   3.279  11.586  0.1680  0.1598  0.4212
  469TIP3    H125602   2.461   3.373  11.581 -2.2548  0.6535  1.1207
  469TIP3    H225603   2.454   3.249  11.495 -0.1758  1.2574  0.0051
  470TIP3   OH225604   2.761   5.439  11.127 -0.7087 -0.0026 -0.3227
  470TIP3    H125605   2.704   5.390  11.068 -0.4167  0.9518 -1.4183
  470TIP3    H225606   2.713   5.442  11.210 -0.7237 -2.1281 -0.2084
  471TIP3   OH225607   4.713   1.832  11.735 -0.4578 -0.3404 -0.7296
  471TIP3    H125608   4.652   1.874  11.795  1.4444  1.0059  0.3697
  471TIP3    H225609   4.740   1.902  11.675 -0.0208 -0.9087 -1.2180
  472TIP3   OH225610   3.089   0.413  10.672  0.1510  0.1251 -0.3290
  472TIP3    H125611   3.154   0.344  10.666  0.6487  0.5895 -0.3073
  472TIP3    H225612   3.118   0.480  10.610 -0.3225  0.3227 -0.3469
  473TIP3   OH225613   1.187   3.160  10.492 -0.3787 -0.3926  0.1165
  473TIP3    H125614   1.154   3.240  10.533 -0.4514  0.1596 -0.9765
  473TIP3    H225615   1.255   3.128  10.551 -1.3431 -0.3301  1.2961
  474TIP3   OH225616   0.336   3.747  12.240  0.2627 -0.4519 -0.4315
  474TIP3    H125617   0.245   3.763  12.216  1.1694  1.5456 -2.9964
  474TIP3    H225618   0.353   3.811  12.311  0.1444  0.5407 -1.2717
  475TIP3   OH225619   5.398   3.111  11.171  0.0922 -0.5817 -0.2657
  475TIP3    H125620   5.476   3.119  11.225 -0.9301  1.0993  1.0487
  475TIP3    H225621   5.346   3.043  11.214 -0.5074  0.4277  0.6627
  476TIP3   OH225622   2.068   0.281  12.224  0.1536  0.2782  0.6550
  476TIP3    H125623   2.085   0.365  12.182 -1.1156  0.8694  1.2614
  476TIP3    H225624   2.155   0.244  12.239  0.8567  2.2009  1.7846
  477TIP3   OH225625   6.211   5.324   9.227  0.4853 -0.3304  0.2185
  477TIP3    H125626   6.137   5.383   9.212  0.9576  0.6992  1.6847
  477TIP3    H225627   6.249   5.310   9.140  0.5594  1.8167 -0.1430
  478TIP3   OH225628   0.030   6.482   8.759 -0.1561  0.0934 -0.1107
  478TIP3    H125629   0.069   6.493   8.846 -0.6265  1.5023 -0.0585
  478TIP3    H225630  -0.061   6.459   8.776  0.0467 -0.8868 -0.2510
  479TIP3   OH225631   3.269   3.144   9.506 -0.2777  0.0405 -0.2469
  479TIP3    H125632   3.193   3.102   9.466 -0.3354 -0.4554  0.3660
  479TIP3    H225633   3.285   3.221   9.452 -0.8917 -0.1364 -0.6933
  480TIP3   OH225634   6.424   3.072  10.318  0.1171  0.2066 -0.6383
  480TIP3    H125635   6.449   2.989  10.358 -2.0140 -1.2959 -2.1669
  480TIP3    H225636   6.370   3.115  10.384 -0.0683 -0.3903 -0.3893
  481TIP3   OH225637   1.923   3.803   9.300 -0.7334 -0.2995  0.1700
  481TIP3    H125638   1.882   3.889   9.298  0.3127  0.2424  1.0166
  481TIP3    H225639   1.935   3.780   9.207  1.6025  1.8057 -0.1537
  482TIP3   OH225640   6.457   2.494  11.675 -0.1415  0.2785  0.4974
  482TIP3    H125641   6.467   2.564  11.610  2.1947  0.7027  1.2425
  482TIP3    H225642   6.406   2.427  11.630  0.9307  0.7986 -1.6072
  483TIP3   OH225643   6.598   1.763  10.033  0.6487 -0.5020  0.0978
  483TIP3    H125644   6.625   1.839  10.085 -0.5467  0.4479 -0.6051
  483TIP3    H225645   6.677   1.735   9.988  0.9143  0.9695 -0.3908
  484TIP3   OH225646   1.526   2.864  11.338 -0.0614  0.2807  0.7363
  484TIP3    H125647   1.533   2.931  11.270  0.2564  1.5424  1.9617
  484TIP3    H225648   1.554   2.783  11.296 -0.3785  0.9238 -0.7591
  485TIP3   OH225649   2.684   4.436  11.329  0.2051 -0.3615 -0.0410
  485TIP3    H125650   2.634   4.486  11.265  0.1711  0.2254  0.4359
  485TIP3    H225651   2.632   4.357  11.343  0.5618 -0.8333 -1.2468
  486TIP3   OH225652   4.769   3.494  10.924  0.0706  0.1356  0.3835
  486TIP3    H125653   4.856   3.493  10.885 -0.0573  2.4736 -0.1637
  486TIP3    H225654   4.730   3.576  10.891 -2.2305 -0.7160  0.8093
  487TIP3   OH225655   3.176   5.467  10.399  0.3373  0.0506 -0.2478
  487TIP3    H125656   3.163   5.380  10.362 -0.8785  0.2521 -0.3392
  487TIP3    H225657   3.104   5.519  10.364 -0.1479  0.5639  1.3928
  488TIP3   OH225658   2.070   2.985  11.419  0.0367 -0.7802 -0.4062
  488TIP3    H125659   1.988   2.994  11.468 -0.1221  0.3364 -0.8380
  488TIP3    H225660   2.054   3.030  11.336  1.3518  0.2342 -0.1555
  489TIP3   OH225661   3.430   2.742  10.011 -0.1601 -0.0333  0.1718
  489TIP3    H125662   3.453   2.834  10.028  1.7350 -0.6211  1.0349
  489TIP3    H225663   3.421   2.737   9.916  0.5433  0.8734  0.0407
  490TIP3   OH225664   0.590   1.602  12.037  0.3393  0.0894 -0.1689
  490TIP3    H125665   0.647   1.613  12.113  1.9093 -0.6534 -1.1892
  490TIP3    H225666   0.509   1.565  12.072  0.8335  0.2403  1.1875
  491TIP3   OH225667   0.464   3.357  11.490  0.1094  0.1951  0.1461
  491TIP3    H125668   0.456   3.264  11.514 -2.2263  0.3396  0.1332
  491TIP3    H225669   0.539   3.360  11.430 -1.2419 -2.1162 -1.8318
  492TIP3   OH225670   2.374   1.089  12.497 -0.0289  0.1884 -0.4278
  492TIP3    H125671   2.295   1.105  12.446  0.9861 -0.4889 -2.3165
  492TIP3    H225672   2.408   1.176  12.518 -0.0312  0.4926 -1.6445
  493TIP3   OH225673   3.557   4.031   9.955  0.6609 -0.4450 -0.7618
  493TIP3    H125674   3.563   4.087   9.878  1.0264 -0.1853 -0.5477
  493TIP3    H225675   3.473   3.987   9.946  1.0447 -1.0149 -1.7122
  494TIP3   OH225676   4.973   2.923  10.478  0.0103 -0.2108 -0.3172
  494TIP3    H125677   4.950   2.832  10.497  0.7593 -0.3304  0.0294
  494TIP3    H225678   4.985   2.963  10.564  1.6429 -0.2995 -0.4711
  495TIP3   OH225679   4.505   5.371   9.525  0.2622  0.2470 -0.0806
  495TIP3    H125680   4.436   5.383   9.460 -0.4512  1.3940  0.8533
  495TIP3    H225681   4.459   5.351   9.606  0.9561  1.9900  0.7772
  496TIP3   OH225682   6.586   3.222  10.654  0.0133  0.0494 -0.1002
  496TIP3    H125683   6.654   3.266  10.704 -0.0711 -1.6996  1.6916
  496TIP3    H225684   6.542   3.292  10.606  0.1241  1.8662  2.2737
  497TIP3   OH225685   2.298   4.771   9.723 -0.1417  0.1094  0.2062
  497TIP3    H125686   2.258   4.684   9.722 -0.9575  0.4548 -2.3651
  497TIP3    H225687   2.390   4.754   9.700 -0.6094 -0.0002 -1.7465
  498TIP3   OH225688   1.039   6.359  10.547  0.1289 -0.1387 -0.2887
  498TIP3    H125689   1.002   6.402  10.624 -2.0187 -1.1212 -0.7131
  498TIP3    H225690   1.052   6.430  10.484 -2.4982  0.1019 -0.6492
  499TIP3   OH225691   5.672   4.822   8.542 -0.2061 -0.7077 -0.0967
  499TIP3    H125692   5.766   4.825   8.563  0.0701 -0.9133 -1.2503
  499TIP3    H225693   5.630   4.864   8.617  0.4620 -4.0978  2.4410
  500TIP3   OH225694   3.622   0.421  10.522  0.1202 -0.3852 -0.0268
  500TIP3    H125695   3.556   0.455  10.462  1.1046  1.8929  0.0376
  500TIP3    H225696   3.596   0.454  10.608  0.8597 -0.1576  0.1248
  501TIP3   OH225697   6.369   2.196  12.247  0.3591 -0.0279  0.3036
  501TIP3    H125698   6.373   2.168  12.156 -3.4847 -1.0683  0.3058
  501TIP3    H225699   6.424   2.133  12.294  1.4290 -0.1901 -1.1173
  502TIP3   OH225700   4.397   0.916   9.900  0.3425  0.1414 -0.3621
  502TIP3    H125701   4.328   0.849   9.905  1.0538 -0.6424 -0.7730
  502TIP3    H225702   4.351   0.999   9.914 -0.5386 -0.4388  0.2879
  503TIP3   OH225703   1.823   2.082  11.867  0.1139 -0.1644  0.3274
  503TIP3    H125704   1.786   2.166  11.838 -0.0699  0.6130  2.5771
  503TIP3    H225705   1.872   2.104  11.947  2.5480 -1.7470 -0.6137
  504TIP3   OH225706   5.843   1.163   8.524 -0.1416 -0.2583 -0.3513
  504TIP3    H125707   5.771   1.099   8.530  0.4577 -0.8380  1.4448
  504TIP3    H225708   5.913   1.125   8.577  1.2827  0.6003 -1.5326
  505TIP3   OH225709   4.342   1.959   9.892  0.2512 -0.1848  0.1301
  505TIP3    H125710   4.331   2.009   9.973  0.8291  1.8505 -1.0038
  505TIP3    H225711   4.311   2.017   9.823 -0.2390 -1.8923 -1.1407
  506TIP3   OH225712   4.548   0.233  11.548 -0.0127 -0.1482 -0.0856
  506TIP3    H125713   4.483   0.163  11.538 -0.4018 -0.1290  1.9758
  506TIP3    H225714   4.513   0.306  11.496 -0.8216 -0.6699 -0.2830
  507TIP3   OH225715   5.022   4.546  10.574 -0.1571 -0.3880  0.5845
  507TIP3    H125716   5.072   4.472  10.609  1.0475  0.1297  0.0322
  507TIP3    H225717   5.089   4.611  10.550 -0.9823 -0.2252 -1.5083
  508TIP3   OH225718   6.265   1.723  10.278 -0.0656 -0.1617  0.1949
  508TIP3    H125719   6.257   1.802  10.224 -0.3614 -0.1608  0.2410
  508TIP3    H225720   6.216   1.743  10.358  0.0176 -0.3223  0.2872
  509TIP3   OH225721   3.951   2.667  10.702 -0.1757  0.2120 -0.0539
  509TIP3    H125722   3.999   2.617  10.636 -0.2296  0.9843 -0.6895
  509TIP3    H225723   4.016   2.685  10.770  0.3258  0.8406 -0.6826
  510TIP3   OH225724   4.400   4.683  10.835 -0.6263  0.3776  0.5056
  510TIP3    H125725   4.305   4.690  10.821 -0.6936 -1.3497 -0.2261
  510TIP3    H225726   4.438   4.700  10.749 -0.1203  2.6122  1.1130
  511TIP3   OH225727   3.288   0.768  12.092  0.2300 -0.3059 -0.1426
  511TIP3    H125728   3.256   0.705  12.027  0.3167 -0.4808 -0.0145
  511TIP3    H225729   3.365   0.807  12.050  0.5828 -0.7796  0.0592
  512TIP3   OH225730   6.035   1.297  10.587 -0.2134 -0.0722  0.0143
  512TIP3    H125731   5.973   1.368  10.603  1.3593  1.4972 -0.5432
  512TIP3    H225732   6.098   1.302  10.658  1.5548  1.0155 -1.5328
  513TIP3   OH225733   6.137   6.121  10.165  0.3187 -0.0828 -0.2997
  513TIP3    H125734   6.098   6.176  10.097  1.4765 -1.1289 -1.8944
  513TIP3    H225735   6.231   6.127  10.150  0.6190 -0.2535  1.3177
  514TIP3   OH225736   0.773   5.326  12.044 -0.5885 -0.1254 -0.3151
  514TIP3    H125737   0.844   5.273  12.007 -0.0154  0.5186 -0.1503
  514TIP3    H225738   0.763   5.398  11.982 -2.0001 -0.8994 -1.0324
  515TIP3   OH225739   4.438   2.122  10.122  0.1195 -0.1440  0.6014
  515TIP3    H125740   4.512   2.168  10.161  0.1179  0.6116 -0.2520
  515TIP3    H225741   4.364   2.181  10.133 -0.3969 -0.9420  1.5444
  516TIP3   OH225742   4.765   5.304   8.809 -0.4796  0.2755  0.3215
  516TIP3    H125743   4.699   5.237   8.829 -1.6203  0.8178 -1.4677
  516TIP3    H225744   4.746   5.375   8.870 -1.4056  0.3215 -0.0081
  517TIP3   OH225745   3.222   0.072  10.279  0.3277 -0.5206 -0.2627
  517TIP3    H125746   3.163   0.001  10.306 -0.3137  0.5160  1.1807
  517TIP3    H225747   3.276   0.033  10.210 -1.2707 -1.8374 -0.8329
  518TIP3   OH225748   3.368   1.251  10.672 -0.6499 -0.5920 -0.2896
  518TIP3    H125749   3.370   1.340  10.707 -2.6735 -1.4235  2.1839
  518TIP3    H225750   3.297   1.253  10.608 -0.6722 -0.4288 -0.2630
  519TIP3   OH225751   1.191   5.959   9.468 -0.1536 -0.2973  0.2601
  519TIP3    H125752   1.097   5.942   9.464 -0.2704  0.1987  0.8245
  519TIP3    H225753   1.211   6.004   9.386 -0.3032 -0.8830 -0.1021
  520TIP3   OH225754   1.907   4.735   9.400  0.3330 -0.1017 -0.3811
  520TIP3    H125755   1.884   4.645   9.379 -0.1278 -0.4467  1.4632
  520TIP3    H225756   1.865   4.787   9.331 -0.2015 -1.2150 -0.9225
  521TIP3   OH225757   5.291   3.056   9.867 -0.3636  0.0092 -0.5255
  521TIP3    H125758   5.260   3.146   9.854 -0.8868 -0.0472  0.2115
  521TIP3    H225759   5.210   3.004   9.871 -0.1494 -0.2779  0.4974
  522TIP3   OH225760   1.692   3.088  10.098  0.5780 -0.1415  0.0611
  522TIP3    H125761   1.762   3.051  10.151 -0.1685 -0.4813  0.8421
  522TIP3    H225762   1.636   3.134  10.160  0.2202  0.3060 -0.5747
  523TIP3   OH225763   2.311   0.172  10.562 -0.7123  0.3121  0.3068
  523TIP3    H125764   2.380   0.237  10.569  0.0107 -0.4007 -0.0578
  523TIP3    H225765   2.235   0.221  10.530 -0.7888  1.3558  2.0104
  524TIP3   OH225766   2.632   3.424  10.356 -0.0836 -0.6065 -0.3855
  524TIP3    H125767   2.702   3.467  10.307 -2.2870  1.6436 -1.7457
  524TIP3    H225768   2.554   3.434  10.301 -2.2577  0.1232  2.5722
  525TIP3   OH225769   0.329   2.295  12.403  0.3056  0.9803 -0.2025
  525TIP3    H125770   0.420   2.315  12.423  0.4559  1.4593 -1.2693
  525TIP3    H225771   0.278   2.357  12.455  0.5996  0.9684  0.0984
  526TIP3   OH225772   3.013   1.769  11.656  0.1238  0.2752 -0.2455
  526TIP3    H125773   2.984   1.679  11.642  0.3366  0.2621 -0.6114
  526TIP3    H225774   2.994   1.813  11.573 -0.3061  0.6543  0.0495
  527TIP3   OH225775   4.166   4.548  11.215  0.2960 -0.2079 -0.3870
  527TIP3    H125776   4.161   4.641  11.237  1.4985 -0.1538 -0.2545
  527TIP3    H225777   4.180   4.505  11.299 -0.4502 -0.5396 -0.4254
  528TIP3   OH225778   4.035   3.208  11.535 -0.0650  0.7887 -0.1782
  528TIP3    H125779   4.052   3.229  11.627  0.7357 -0.6809  0.0399
  528TIP3    H225780   4.030   3.113  11.533 -0.3168  0.8153 -1.6291
  529TIP3   OH225781   2.452   3.401  10.790  0.7002  0.8286 -0.4576
  529TIP3    H125782   2.503   3.461  10.735  1.7104 -0.5819 -1.1166
  529TIP3    H225783   2.452   3.318  10.742 -1.9354  0.6541 -0.2956
  530TIP3   OH225784   5.625   3.195  10.498 -0.4933 -0.1482 -0.2435
  530TIP3    H125785   5.536   3.192  10.464 -0.6396 -1.2499  0.1897
  530TIP3    H225786   5.676   3.143  10.435 -0.5052 -1.0174  0.4447
  531TIP3   OH225787   3.684   5.425  10.205  0.1352  0.0762 -0.1440
  531TIP3    H125788   3.624   5.391  10.271  0.0730  0.3619 -0.0507
  531TIP3    H225789   3.761   5.369  10.210  0.0140 -0.0809 -0.0300
  532TIP3   OH225790   5.456   5.990   9.820  0.2052  0.1986  0.2792
  532TIP3    H125791   5.546   6.020   9.836  0.4134 -1.0211  1.5576
  532TIP3    H225792   5.406   6.071   9.813  1.2417  0.8899  0.5229
  533TIP3   OH225793   5.786   5.405  11.702 -0.6605 -0.0272  0.3471
  533TIP3    H125794   5.783   5.490  11.747 -0.1951  0.3663 -0.3469
  533TIP3    H225795   5.759   5.342  11.769  0.9469  0.4195  1.4672
  534TIP3   OH225796   1.768   0.818  10.996 -0.2317  0.0102  0.4648
  534TIP3    H125797   1.761   0.750  11.063 -2.5641  0.2977  0.5954
  534TIP3    H225798   1.766   0.770  10.913  0.2153 -0.1946  0.5687
  535TIP3   OH225799   5.640   3.770   9.788 -0.0436 -0.0045  0.1584
  535TIP3    H125800   5.721   3.755   9.837  0.3753 -0.1041 -0.5488
  535TIP3    H225801   5.617   3.861   9.809  0.3042  0.0582  0.2874
  536TIP3   OH225802   4.159   0.771   9.887  0.0562  0.3040  0.3572
  536TIP3    H125803   4.112   0.821   9.819 -0.9369 -0.4631  0.4562
  536TIP3    H225804   4.090   0.739   9.944  0.8810  0.8961  1.7249
  537TIP3   OH225805   3.213   2.403   8.950 -0.1793  0.4444 -0.2927
  537TIP3    H125806   3.232   2.391   8.857 -0.2806  0.4522 -0.3144
  537TIP3    H225807   3.121   2.379   8.959 -0.7259  2.2680 -0.5421
  538TIP3   OH225808   3.215   5.061  11.814  0.0521  0.5852 -1.2884
  538TIP3    H125809   3.158   5.002  11.863 -1.2703  0.7968 -2.4823
  538TIP3    H225810   3.194   5.148  11.847  1.2734  0.5017 -0.2317
  539TIP3   OH225811   3.768   3.060  10.345  0.3769  0.1471  0.1808
  539TIP3    H125812   3.727   2.973  10.348  0.7707 -0.0274  0.7397
  539TIP3    H225813   3.756   3.089  10.255 -1.4043  0.3281  0.4413
  540TIP3   OH225814   1.860   1.916  11.663  0.5363 -0.0190 -0.3105
  540TIP3    H125815   1.871   1.967  11.744 -0.2638 -0.2090 -0.0724
  540TIP3    H225816   1.875   1.825  11.690 -0.8909 -0.2206 -0.0997
  541TIP3   OH225817   4.247   0.014  10.444  0.3845 -0.5717 -0.1716
  541TIP3    H125818   4.341  -0.002  10.431  0.5636  0.3494 -0.0865
  541TIP3    H225819   4.233   0.002  10.538  0.4477 -0.5346 -0.1576
  542TIP3   OH225820   4.204   5.186  11.019 -0.6441 -0.0851  0.6218
  542TIP3    H125821   4.263   5.131  11.071 -1.2746 -1.1901  0.1997
  542TIP3    H225822   4.254   5.266  11.003  1.1177 -1.3546 -0.5160
  543TIP3   OH225823   4.274   2.919  11.438 -0.1672 -0.6734 -0.1625
  543TIP3    H125824   4.237   2.865  11.369 -0.4886 -1.2919  0.4900
  543TIP3    H225825   4.207   2.921  11.506 -0.0110  0.2417 -0.0210
  544TIP3   OH225826   3.182   2.596  11.404  0.4661 -0.0289 -0.2724
  544TIP3    H125827   3.100   2.585  11.356  0.6996  0.5756 -0.8391
  544TIP3    H225828   3.179   2.686  11.437  1.0764  0.1557 -0.6812
  545TIP3   OH225829   5.348   2.753   9.177 -0.2551  0.1611 -0.0241
  545TIP3    H125830   5.387   2.725   9.260 -0.2853 -0.1849 -0.1275
  545TIP3    H225831   5.285   2.821   9.203 -0.0250  0.2915  0.2023
  546TIP3   OH225832   1.482   2.089  10.064  0.0694  0.4127  0.1602
  546TIP3    H125833   1.487   2.090  10.159 -2.3678 -0.1207  0.3587
  546TIP3    H225834   1.441   2.172  10.041  0.0323  0.2527 -0.3730
  547TIP3   OH225835   5.909   6.580  11.138  0.1638  0.4681 -0.1183
  547TIP3    H125836   5.833   6.569  11.081  0.4115 -0.2481 -0.3301
  547TIP3    H225837   5.956   6.496  11.131  0.6528  0.6854  0.4691
  548TIP3   OH225838   3.096   5.658  10.963  0.9937  0.5456 -0.7813
  548TIP3    H125839   3.070   5.570  10.936 -0.1936  1.3133 -2.2823
  548TIP3    H225840   3.119   5.702  10.881 -0.0421  2.1362 -0.2470
  549TIP3   OH225841   6.391   3.987   8.902  0.5184 -0.8930  0.0827
  549TIP3    H125842   6.360   4.077   8.893 -2.8596 -1.7417  1.6270
  549TIP3    H225843   6.399   3.955   8.812 -0.4600  0.2780 -0.4435
  550TIP3   OH225844   0.572   3.680  11.836 -0.1233 -0.1987  0.1167
  550TIP3    H125845   0.494   3.704  11.886  0.0516  0.4860  0.0738
  550TIP3    H225846   0.550   3.595  11.797 -0.4614 -0.4850  0.9074
  551TIP3   OH225847   4.166   1.587  10.352  0.6499 -0.5736  0.1630
  551TIP3    H125848   4.212   1.663  10.316 -0.0266 -0.3441 -0.2371
  551TIP3    H225849   4.076   1.598  10.322  0.4091 -1.1920  0.6577
  552TIP3   OH225850   5.809   5.104  10.151 -0.6174 -0.1036  0.1877
  552TIP3    H125851   5.789   5.038  10.085 -0.0439  0.3294 -0.4397
  552TIP3    H225852   5.755   5.081  10.226 -2.1329  0.0272 -0.8244
  553TIP3   OH225853   3.894   6.507  11.063 -0.3168 -0.2677  0.6394
  553TIP3    H125854   3.971   6.453  11.049 -0.1682 -0.0267  0.5180
  553TIP3    H225855   3.823   6.462  11.018 -0.1941 -0.3597  0.5411
  554TIP3   OH225856   4.896   2.882  11.151  0.6635 -0.4183  0.0038
  554TIP3    H125857   4.843   2.959  11.128 -0.3310 -0.8920  0.6236
  554TIP3    H225858   4.912   2.891  11.245 -2.5922 -2.7000  0.9876
  555TIP3   OH225859   3.498   1.300   9.444  0.0858 -0.0700  0.0633
  555TIP3    H125860   3.403   1.309   9.451 -0.1222  1.8088 -2.9786
  555TIP3    H225861   3.513   1.206   9.435 -1.3532 -0.4813  1.5327
  556TIP3   OH225862   1.701   5.324  12.153 -0.2357 -0.7220 -0.1866
  556TIP3    H125863   1.634   5.392  12.155 -0.0701 -0.5243 -1.0584
  556TIP3    H225864   1.655   5.245  12.126 -0.1681 -0.6365 -0.5604
  557TIP3   OH225865   5.542   3.588  10.072  0.1835 -0.7380 -0.0317
  557TIP3    H125866   5.544   3.683  10.064 -0.1804 -0.7553 -0.3861
  557TIP3    H225867   5.627   3.559  10.037  0.4585 -0.5243  0.4487
  558TIP3   OH225868   6.065   6.348  10.357  0.3418  0.3817 -0.7056
  558TIP3    H125869   6.159   6.362  10.351  0.5019 -0.9709 -1.7270
  558TIP3    H225870   6.056   6.256  10.382 -0.7165  0.1840 -1.7414
  559TIP3   OH225871   1.870   6.360   9.163 -0.0960 -0.6120 -0.4279
  559TIP3    H125872   1.936   6.412   9.117 -0.8490  0.2092 -0.6230
  559TIP3    H225873   1.809   6.425   9.198 -0.0239 -1.2751  0.9771
  560TIP3   OH225874   5.742   4.661  10.498 -0.5291  0.6935  0.1099
  560TIP3    H125875   5.702   4.728  10.554  0.8615  1.6015  0.0764
  560TIP3    H225876   5.807   4.710  10.447  1.8885 -0.9991  1.4368
  561TIP3   OH225877   2.942   1.481   8.519 -0.3121 -0.4238  0.2964
  561TIP3    H125878   3.025   1.525   8.539  0.2664 -0.6550 -1.4349
  561TIP3    H225879   2.968   1.396   8.485 -1.1809 -0.0213 -1.4698
  562TIP3   OH225880   3.919   6.050   9.864  0.1525  0.3786 -0.0130
  562TIP3    H125881   3.905   5.995   9.941  1.1687  1.5919  1.0844
  562TIP3    H225882   3.953   5.990   9.797  2.2359 -0.1936  1.4615
  563TIP3   OH225883   5.134   2.372  11.723  0.2991 -0.1005  0.5048
  563TIP3    H125884   5.076   2.408  11.791 -0.7656 -0.2462 -0.2982
  563TIP3    H225885   5.094   2.288  11.701  1.5866 -0.8301  0.8794
  564TIP3   OH225886   0.846   3.466  10.747 -0.0495  0.5681 -0.2614
  564TIP3    H125887   0.778   3.401  10.765 -0.4096  1.0727  0.2182
  564TIP3    H225888   0.824   3.540  10.803  0.6754  0.8906 -0.3935
  565TIP3   OH225889   3.868   0.063   8.652 -0.3558 -0.1762 -0.0709
  565TIP3    H125890   3.930  -0.001   8.688  0.4685  0.7434  0.1829
  565TIP3    H225891   3.803   0.074   8.721  0.4285  0.5029  0.5817
  566TIP3   OH225892   5.942   4.598   9.274 -0.4538 -0.4220 -0.1276
  566TIP3    H125893   5.935   4.518   9.221 -0.3950 -1.1093  0.8834
  566TIP3    H225894   5.866   4.594   9.332 -0.2654  0.0994  0.1550
  567TIP3   OH225895   1.445   0.002  12.415 -0.1269  0.2539 -0.2847
  567TIP3    H125896   1.499  -0.005  12.336 -1.4541  2.3368 -1.4729
  567TIP3    H225897   1.451   0.094  12.440 -2.5032  0.4229 -0.0826
  568TIP3   OH225898   2.412   0.602  11.250  0.5333 -0.2815  0.2813
  568TIP3    H125899   2.358   0.679  11.268  1.0901  0.0676  0.4686
  568TIP3    H225900   2.496   0.638  11.221  0.6478 -0.8226 -0.0664
  569TIP3   OH225901   1.437   2.562  12.288 -0.1825  0.1501  0.6781
  569TIP3    H125902   1.488   2.642  12.273 -1.9652  1.3528  0.7110
  569TIP3    H225903   1.497   2.491  12.266  1.0690  1.5271 -0.5712
  570TIP3   OH225904   5.564   3.631   9.560  0.1551 -0.0277 -0.6128
  570TIP3    H125905   5.497   3.689   9.523 -1.9059 -1.4240  0.6919
  570TIP3    H225906   5.601   3.681   9.634 -1.4223 -0.2058  0.3447
  571TIP3   OH225907   2.983   2.234  10.664 -0.2678  0.9957 -0.5889
  571TIP3    H125908   3.077   2.217  10.665 -0.4781 -0.9367 -2.9504
  571TIP3    H225909   2.975   2.327  10.683  2.2227  1.5010 -1.5687
  572TIP3   OH225910   4.587   1.859   9.397  0.0722  0.0425 -0.3363
  572TIP3    H125911   4.539   1.931   9.439 -0.6477 -0.4170 -0.3584
  572TIP3    H225912   4.668   1.852   9.448 -1.5003 -1.6457  2.1672
  573TIP3   OH225913   2.654   1.653   9.059  0.0314  0.1577 -0.0293
  573TIP3    H125914   2.744   1.683   9.043  0.3569 -0.3260  0.8314
  573TIP3    H225915   2.599   1.716   9.013  0.7027  1.9874  1.5480
  574TIP3   OH225916   3.746   0.060   9.431 -0.2849 -0.0848 -0.3412
  574TIP3    H125917   3.736  -0.035   9.441 -1.9817  0.0243 -0.6172
  574TIP3    H225918   3.656   0.093   9.424  0.2287  1.6408  0.5110
  575TIP3   OH225919   4.372   0.705  10.434  0.3130 -0.2817  0.1038
  575TIP3    H125920   4.313   0.634  10.409 -0.7232  0.0924  1.3472
  575TIP3    H225921   4.386   0.754  10.353 -2.3792  0.5219  0.0206
  576TIP3   OH225922   3.609   4.332  10.506 -0.2653  0.4844  0.1139
  576TIP3    H125923   3.570   4.419  10.508 -1.3745  0.0243 -0.5100
  576TIP3    H225924   3.552   4.281  10.448 -0.4100 -1.0067  1.4838
  577TIP3   OH225925   5.904   0.812  10.755  0.2451  0.2729 -0.5389
  577TIP3    H125926   5.824   0.848  10.717 -0.9384 -1.1224  0.5525
  577TIP3    H225927   5.970   0.880  10.740 -1.2804  1.7506 -0.8500
  578TIP3   OH225928   5.080   6.700  10.202 -0.7115 -0.4629  0.0751
  578TIP3    H125929   5.012   6.663  10.259  0.9286  0.2249  2.6757
  578TIP3    H225930   5.035   6.766  10.150 -2.7372 -2.6741 -1.1436
  579TIP3   OH225931   0.208   4.898  11.304  0.1848  0.3628  0.4428
  579TIP3    H125932   0.205   4.990  11.277 -0.2109  0.5435  1.0743
  579TIP3    H225933   0.116   4.871  11.305  0.4084 -0.6980 -1.8699
  580TIP3   OH225934   4.119   1.109   9.712  0.5805  0.1702  0.4740
  580TIP3    H125935   4.082   1.068   9.790 -1.4219  0.0059 -0.5085
  580TIP3    H225936   4.095   1.050   9.641  0.2403  1.5281 -0.5676
  581TIP3   OH225937   1.838   0.082  10.118 -0.0341  0.0962  0.7344
  581TIP3    H125938   1.804   0.053  10.033 -2.0839  0.4259  1.3801
  581TIP3    H225939   1.892   0.008  10.147  0.1764 -0.2947 -0.5446
  582TIP3   OH225940   3.446   3.830  12.030 -0.3650 -0.3297  0.3261
  582TIP3    H125941   3.386   3.804  11.961 -0.1017 -1.8322  0.6156
  582TIP3    H225942   3.458   3.750  12.083  2.9800 -0.5630 -0.5336
  583TIP3   OH225943   6.660   4.737  11.252 -0.2198 -0.2748 -0.0770
  583TIP3    H125944   6.614   4.660  11.284 -1.9190  1.3977  1.8274
  583TIP3    H225945   6.594   4.806  11.253  1.4977  1.4592 -0.6423
  584TIP3   OH225946   6.376   1.974  10.565  0.1282  0.1987  0.1402
  584TIP3    H125947   6.346   2.024  10.641 -0.2456  1.1418 -0.6033
  584TIP3    H225948   6.298   1.966  10.509  0.3538 -0.6349 -0.0653
  585TIP3   OH225949   4.200   1.875   9.462 -0.2862  0.4252 -0.4861
  585TIP3    H125950   4.115   1.913   9.482 -1.1458 -1.4043 -0.4603
  585TIP3    H225951   4.185   1.780   9.464  1.5912  0.0723 -1.1869
  586TIP3   OH225952   1.568   1.714  11.284  0.7024 -0.6839 -0.4373
  586TIP3    H125953   1.491   1.694  11.337  0.7093 -1.8222 -0.8447
  586TIP3    H225954   1.618   1.633  11.283  1.6136 -0.1298 -0.6840
  587TIP3   OH225955   5.998   1.192  11.574  0.0888 -0.0105 -0.0989
  587TIP3    H125956   6.056   1.115  11.570  0.4482  0.2134 -4.6078
  587TIP3    H225957   5.910   1.155  11.565  0.0442 -0.0397  0.4651
  588TIP3   OH225958   5.454   1.618  10.688  0.1572  0.2386 -0.9128
  588TIP3    H125959   5.447   1.667  10.606 -0.9726  1.6004 -0.0644
  588TIP3    H225960   5.366   1.625  10.727  0.3696 -1.2889 -0.0823
  589TIP3   OH225961   6.384   1.519  11.584  0.1098 -0.1730  0.0355
  589TIP3    H125962   6.356   1.511  11.492 -2.1675  0.3965  0.6081
  589TIP3    H225963   6.336   1.450  11.629 -1.5107  1.6743  1.2914
  590TIP3   OH225964   5.190   3.833  11.311  0.5681 -0.0215 -0.0765
  590TIP3    H125965   5.151   3.868  11.231 -0.0696  0.8190  0.5778
  590TIP3    H225966   5.176   3.902  11.376  3.1405  0.3226  0.2059
  591TIP3   OH225967   2.564   0.818  12.075 -0.1124 -0.4712  0.1023
  591TIP3    H125968   2.550   0.870  12.154  1.3629  1.2367 -0.6945
  591TIP3    H225969   2.561   0.880  12.003 -0.3867 -1.8310 -1.1161
  592TIP3   OH225970   1.799   3.034  10.588 -0.2568  0.0788  0.0650
  592TIP3    H125971   1.859   3.089  10.537  0.8679  0.4283  1.6858
  592TIP3    H225972   1.738   2.998  10.523  2.3755 -1.2360 -1.8723
  593TIP3   OH225973   6.109   0.692  10.236  0.2835  0.1438 -0.1565
  593TIP3    H125974   6.036   0.631  10.219 -0.3295  0.8190 -0.0150
  593TIP3    H225975   6.186   0.647  10.202  0.0448 -1.2512  1.0486
  594TIP3   OH225976   0.795   2.754  12.106  0.2993  0.4950  0.3690
  594TIP3    H125977   0.721   2.772  12.048 -0.3840  0.5209  1.2240
  594TIP3    H225978   0.818   2.839  12.143  1.2811  0.6166 -0.4805
  595TIP3   OH225979   5.317   0.906   8.094  0.3595 -0.3376 -0.0899
  595TIP3    H125980   5.285   0.908   8.184 -1.7380 -1.7343 -0.7166
  595TIP3    H225981   5.310   0.814   8.068  0.5873  0.0886 -1.7696
  596TIP3   OH225982   1.145   6.103   9.809 -0.1657  0.0178 -0.2103
  596TIP3    H125983   1.145   6.141   9.896  1.3603  2.9541 -1.3560
  596TIP3    H225984   1.055   6.112   9.779  0.0589  2.7338 -0.3210
  597TIP3   OH225985   5.671   2.724  11.973 -0.3497  0.2075 -0.1650
  597TIP3    H125986   5.630   2.671  12.042  0.2578 -0.0567 -0.0033
  597TIP3    H225987   5.737   2.666  11.935  0.9254  1.1328  0.5892
  598TIP3   OH225988   6.226   5.795  10.381  0.1318 -0.6493 -0.4601
  598TIP3    H125989   6.285   5.720  10.380 -0.0325 -0.7922 -1.9447
  598TIP3    H225990   6.266   5.857  10.321 -0.2306  0.0708  0.0313
  599TIP3   OH225991   6.598   3.187  11.767 -0.0900 -0.2241 -0.9889
  599TIP3    H125992   6.520   3.203  11.820 -1.4610 -0.1556 -2.9017
  599TIP3    H225993   6.592   3.094  11.744  0.9179 -0.4462 -0.3830
  600TIP3   OH225994   2.627   5.170   9.864 -0.0387  0.1980 -0.3445
  600TIP3    H125995   2.606   5.125   9.945 -1.4076  1.8358  0.2706
  600TIP3    H225996   2.550   5.157   9.808  0.8600 -0.8643 -1.4102
  601TIP3   OH225997   6.183   1.760   9.482  0.3025  0.0212 -0.0648
  601TIP3    H125998   6.267   1.804   9.493  0.5940 -0.4465 -0.4042
  601TIP3    H225999   6.124   1.828   9.451  0.7825  0.1486 -0.7206
  602TIP3   OH226000   2.578   2.962   9.148 -0.0571 -0.3210  0.7720
  602TIP3    H126001   2.641   2.912   9.096  0.5135  2.4852 -1.4618
  602TIP3    H226002   2.504   2.902   9.159  0.8190 -1.8877 -1.1870
  603TIP3   OH226003   3.918   5.527   9.310  0.2797 -0.1912 -0.4699
  603TIP3    H126004   3.938   5.613   9.273  0.2687  0.0248  0.0183
  603TIP3    H226005   3.955   5.530   9.398 -0.7674 -0.2496 -0.0140
  604TIP3   OH226006   5.143   4.065  10.102  0.1280 -0.2201 -0.1985
  604TIP3    H126007   5.068   4.093  10.155 -0.5456 -2.8876  0.4484
  604TIP3    H226008   5.164   3.978  10.136  2.8240 -0.0150 -1.1465
  605TIP3   OH226009   1.513   4.225  10.626  0.4517 -0.5822 -0.4222
  605TIP3    H126010   1.445   4.291  10.615 -0.3872 -1.3495  0.1035
  605TIP3    H226011   1.578   4.246  10.559  1.5199  2.3698  1.3490
  606TIP3   OH226012   3.831   2.409  11.492 -0.5570 -0.7293 -0.2447
  606TIP3    H126013   3.827   2.314  11.501 -0.9421 -0.7693 -0.7537
  606TIP3    H226014   3.856   2.441  11.578  0.7408 -1.3695 -0.3693
  607TIP3   OH226015   5.010   3.829   9.686 -0.0690  0.5617 -0.2180
  607TIP3    H126016   5.080   3.887   9.715  0.9499 -0.7279  0.0269
  607TIP3    H226017   4.984   3.782   9.766 -1.2127  1.0012 -0.3138
  608TIP3   OH226018   3.507   0.531   9.955  0.0139 -0.0985  0.4549
  608TIP3    H126019   3.421   0.497   9.977 -1.0045  2.1594  0.2392
  608TIP3    H226020   3.490   0.619   9.920  2.3180  0.0083 -0.5914
  609TIP3   OH226021   1.331   5.831  10.191 -0.2133  0.4167 -0.2631
  609TIP3    H126022   1.391   5.896  10.154  0.0149 -0.5437 -1.6261
  609TIP3    H226023   1.384   5.782  10.253  0.4212 -0.3817 -1.4100
  610TIP3   OH226024   3.437   1.491  10.791 -0.1056  0.4844  0.3138
  610TIP3    H126025   3.531   1.471  10.794  0.1842  1.5933 -0.3581
  610TIP3    H226026   3.423   1.553  10.863  0.1832  2.0623 -0.9126
  611TIP3   OH226027   4.553   1.124  10.557  0.2783 -0.2554 -0.1937
  611TIP3    H126028   4.646   1.114  10.574  0.7289  1.5852 -1.2869
  611TIP3    H226029   4.534   1.057  10.491  0.7706 -0.7321  0.1341
  612TIP3   OH226030   1.358   6.122  10.512  0.3414 -0.3111  0.2654
  612TIP3    H126031   1.438   6.114  10.564 -0.2919 -0.4880  1.2414
  612TIP3    H226032   1.307   6.044  10.532 -1.0983  0.8675  1.4899
  613TIP3   OH226033   5.626   0.739  11.681  0.4776 -0.1167 -0.6350
  613TIP3    H126034   5.715   0.764  11.658  0.6421 -0.0952  0.0025
  613TIP3    H226035   5.594   0.690  11.605  1.4147 -1.0675 -0.4454
  614TIP3   OH226036   4.872   0.060   9.226 -0.3192  0.6380  0.1755
  614TIP3    H126037   4.930   0.065   9.150  0.7431 -0.7278  0.8564
  614TIP3    H226038   4.786   0.036   9.189  0.1349  0.1866 -0.6140
  615TIP3   OH226039   2.117   3.851   9.822 -0.1924 -0.2205 -0.2322
  615TIP3    H126040   2.155   3.859   9.734  1.2478  1.8133  0.5038
  615TIP3    H226041   2.128   3.937   9.861 -0.1391 -1.2681  2.2363
  616TIP3   OH226042   3.730   3.779  10.868 -0.0724 -0.3918  0.0414
  616TIP3    H126043   3.648   3.776  10.818  0.5119 -1.5189 -0.8969
  616TIP3    H226044   3.771   3.861  10.840 -0.0130 -0.7416 -0.9555
  617TIP3   OH226045   2.979   5.551  10.691  0.0387  0.0551 -0.1772
  617TIP3    H126046   2.999   5.482  10.755 -0.4094 -0.3993 -0.5157
  617TIP3    H226047   3.064   5.589  10.669  0.4588 -1.2859 -0.9725
  618TIP3   OH226048   1.946   0.809  12.106  0.0658  0.3160  0.4762
  618TIP3    H126049   1.886   0.816  12.032  1.9567 -0.4848 -1.2211
  618TIP3    H226050   1.896   0.842  12.181 -1.6427  1.9997 -1.2895
  619TIP3   OH226051   5.080   4.084  11.935  0.0397 -0.1524  0.0117
  619TIP3    H126052   5.127   4.155  11.979 -1.4431  0.9810 -0.1413
  619TIP3    H226053   5.122   4.004  11.966  1.5149  0.7663  0.4949
  620TIP3   OH226054   1.768   6.653  11.061  0.3405 -0.0821  0.4820
  620TIP3    H126055   1.835   6.587  11.038 -1.6208 -2.6660  1.6419
  620TIP3    H226056   1.739   6.626  11.148 -1.3126  1.7517  0.5334
  621TIP3   OH226057   5.546   1.638   8.924  0.3584  0.0940 -0.8973
  621TIP3    H126058   5.457   1.621   8.895  0.3690  0.2348 -1.0130
  621TIP3    H226059   5.597   1.645   8.843  1.1013 -3.2135 -0.8508
  622TIP3   OH226060   5.848   3.908  11.770 -0.2207  0.7642 -0.2337
  622TIP3    H126061   5.824   3.912  11.677 -0.7805 -0.2740 -0.1545
  622TIP3    H226062   5.765   3.901  11.816  0.0915 -1.5144  0.1403
  623TIP3   OH226063   2.071   0.742  11.095  0.2555  0.0278 -0.4490
  623TIP3    H126064   2.044   0.830  11.067  1.4584  1.0537  1.3791
  623TIP3    H226065   2.161   0.734  11.066  0.1843 -0.5805 -0.5235
  624TIP3   OH226066   1.868   3.793  10.974  0.2667  0.3887 -0.0442
  624TIP3    H126067   1.880   3.699  10.960  0.6663 -0.0974  2.9035
  624TIP3    H226068   1.797   3.799  11.038  0.8699  2.0468  0.5212
  625TIP3   OH226069   4.166   4.846  11.116 -0.5337 -0.5786 -0.0440
  625TIP3    H126070   4.238   4.881  11.168  0.5011 -0.3152 -1.5982
  625TIP3    H226071   4.087   4.883  11.157  0.3653  1.4106 -0.0057
  626TIP3   OH226072   6.118   1.359  10.818  0.6247 -0.1850 -0.0978
  626TIP3    H126073   6.065   1.392  10.891 -0.6598 -0.7356 -0.7453
  626TIP3    H226074   6.193   1.318  10.860 -0.9478 -2.0533  1.0654
  627TIP3   OH226075   4.548   2.334   8.988 -0.6754 -0.0741  0.1897
  627TIP3    H126076   4.498   2.285   8.923 -0.9809 -0.2593  0.5578
  627TIP3    H226077   4.531   2.289   9.070 -0.1439  0.0482  0.3715
  628TIP3   OH226078   1.384   0.099  11.919  0.2463 -0.2169 -0.2508
  628TIP3    H126079   1.457   0.152  11.952  0.0469  0.2048 -0.4806
  628TIP3    H226080   1.425   0.017  11.890  0.4880 -0.4021  0.5816
  629TIP3   OH226081   5.395   0.931  10.593 -0.0630 -0.4130  0.8052
  629TIP3    H126082   5.395   0.861  10.527  1.7192 -0.0288  0.3347
  629TIP3    H226083   5.361   0.890  10.672 -2.1403 -0.9263 -0.2750
  630TIP3   OH226084   0.646   4.153  12.446  0.4016  0.0088  0.0467
  630TIP3    H126085   0.623   4.194  12.363 -0.6629 -2.3404 -0.9096
  630TIP3    H226086   0.598   4.070  12.446  1.7841 -0.8833  2.2127
  631TIP3   OH226087   1.179   2.822  10.322  0.2193 -0.2256  0.3156
  631TIP3    H126088   1.197   2.791  10.411 -0.7616 -0.9625  0.2725
  631TIP3    H226089   1.110   2.887  10.333 -0.0553 -0.4748  0.0813
  632TIP3   OH226090   4.967   6.439   8.962  0.0142 -0.2729 -0.1054
  632TIP3    H126091   5.030   6.374   8.928  1.4470  0.4249  1.0993
  632TIP3    H226092   4.954   6.500   8.890  0.9119 -0.3135 -0.3149
  633TIP3   OH226093   4.041   5.719  11.039  0.0378 -0.6769  0.3511
  633TIP3    H126094   4.076   5.630  11.043  0.0541 -0.8066 -1.6289
  633TIP3    H226095   4.114   5.772  11.005 -0.7536 -0.4372 -1.0889
  634TIP3   OH226096   3.906   3.914   8.944  0.1626 -0.1803  0.5226
  634TIP3    H126097   3.953   3.947   8.868  1.5407 -1.5520  0.7129
  634TIP3    H226098   3.908   3.986   9.007  0.5641  0.3561 -0.0986
  635TIP3   OH226099   6.394   4.568   9.900  0.8655 -0.7204 -0.0481
  635TIP3    H126100   6.434   4.481   9.914 -2.5460 -2.6161 -0.9753
  635TIP3    H226101   6.377   4.571   9.805 -0.8126  0.0796  0.2436
  636TIP3   OH226102   2.820   3.070  10.267  0.4930  0.0531  0.6090
  636TIP3    H126103   2.750   3.124  10.231 -0.2004  0.2882  2.2261
  636TIP3    H226104   2.792   3.050  10.356  0.7385 -2.9412  0.1124
  637TIP3   OH226105   3.718   4.432  11.795 -0.5057  0.1452 -0.2757
  637TIP3    H126106   3.671   4.415  11.713 -0.6378  2.0086 -0.6369
  637TIP3    H226107   3.661   4.399  11.864 -1.3179  0.3507 -0.8397
  638TIP3   OH226108   3.100   2.668  10.692  0.4348 -0.3963  0.7027
  638TIP3    H126109   3.090   2.633  10.603 -0.1875  0.2076  0.5264
  638TIP3    H226110   3.192   2.690  10.699  0.7234 -1.5002  0.6087
  639TIP3   OH226111   1.387   1.555  10.231  0.1827  0.6366  0.4524
  639TIP3    H126112   1.476   1.524  10.213  0.3320  1.4206 -0.2399
  639TIP3    H226113   1.350   1.489  10.288  0.4380 -0.8862 -1.0609
  640TIP3   OH226114   5.860   3.301  12.194 -0.7941 -0.6236  0.4497
  640TIP3    H126115   5.945   3.257  12.204 -0.3375  0.2962  0.6944
  640TIP3    H226116   5.821   3.260  12.117  0.4348 -0.1622 -0.4498
  641TIP3   OH226117   4.686   1.638   8.058 -0.3275  0.3588 -0.0413
  641TIP3    H126118   4.609   1.679   8.021 -1.4644 -2.6489 -1.3161
  641TIP3    H226119   4.755   1.651   7.993 -0.1258  1.7369  0.4154
  642TIP3   OH226120   4.713   5.910  10.909  0.1850 -0.0732 -0.1725
  642TIP3    H126121   4.751   5.835  10.954  0.4823  0.0472 -0.2208
  642TIP3    H226122   4.758   5.913  10.825  2.2487  1.8342  0.9014
  643TIP3   OH226123   4.111   6.488  10.127 -0.4086  0.2420 -0.3622
  643TIP3    H126124   4.159   6.474  10.208 -0.7022  1.3457  0.0105
  643TIP3    H226125   4.050   6.414  10.122 -0.7326  0.4244  0.6823
  644TIP3   OH226126   0.109   1.468   9.597 -0.4645 -0.0640 -0.1289
  644TIP3    H126127   0.147   1.452   9.683 -0.4428 -2.4954 -0.5069
  644TIP3    H226128   0.183   1.463   9.536 -0.1733  3.3718 -0.2536
  645TIP3   OH226129   1.922   6.125  11.059  0.2567  0.1410 -0.2433
  645TIP3    H126130   1.926   6.175  11.141  0.5883 -1.5304  0.8062
  645TIP3    H226131   2.012   6.126  11.026  0.4698 -0.5296  0.2852
  646TIP3   OH226132   6.351   4.865   8.886  0.3107  0.2023  0.3295
  646TIP3    H126133   6.382   4.782   8.853 -0.1200 -0.0243  0.4817
  646TIP3    H226134   6.261   4.872   8.853  0.4101  0.6939  0.1531
  647TIP3   OH226135   2.782   5.451  10.385  0.6231 -0.8011  0.1630
  647TIP3    H126136   2.766   5.371  10.337 -0.8453  0.0346 -0.8108
  647TIP3    H226137   2.778   5.425  10.477 -0.0374 -1.8123 -0.1356
  648TIP3   OH226138   1.332   0.808  10.086 -0.2056  0.1039  0.0479
  648TIP3    H126139   1.391   0.749  10.041  0.7996 -1.7920  3.4944
  648TIP3    H226140   1.288   0.856  10.016  2.0131 -1.6922 -2.8039
  649TIP3   OH226141   3.892   1.145  10.151  0.2016 -0.1334 -0.0564
  649TIP3    H126142   3.947   1.082  10.196 -1.3852 -1.0663  0.6807
  649TIP3    H226143   3.901   1.226  10.202 -1.0205 -0.9834  1.6152
  650TIP3   OH226144   5.647   3.703  11.339  0.3131  0.4706  0.3414
  650TIP3    H126145   5.566   3.655  11.323 -0.2143  0.8756  1.6691
  650TIP3    H226146   5.714   3.654  11.291 -0.4534 -0.7836  0.5027
  651TIP3   OH226147   3.288   5.532  11.490 -0.0206 -0.0638  0.2126
  651TIP3    H126148   3.370   5.577  11.510 -0.7774  1.9771 -1.0237
  651TIP3    H226149   3.224   5.570  11.550 -0.6098  0.2991 -0.6290
  652TIP3   OH226150   1.825   3.789  10.702 -0.0569  0.0890  0.6111
  652TIP3    H126151   1.846   3.818  10.791 -0.6663  0.6577  0.5727
  652TIP3    H226152   1.788   3.701  10.715 -0.7870  0.4459  0.9859
  653TIP3   OH226153   3.305   2.291  10.259  0.2067  0.2836  0.2073
  653TIP3    H126154   3.374   2.227  10.278 -0.9440 -2.2754 -3.2155
  653TIP3    H226155   3.349   2.358  10.206  0.9089  1.1496  1.8048
  654TIP3   OH226156   1.685   1.767   9.174 -0.3670 -0.9412  0.7542
  654TIP3    H126157   1.624   1.829   9.135 -0.0500 -0.0557  1.6234
  654TIP3    H226158   1.634   1.687   9.187 -0.4520 -1.3354 -1.5516
  655TIP3   OH226159   2.963   1.121  11.149  0.5841  0.0079  0.2849
  655TIP3    H126160   2.930   1.201  11.110 -1.1580  0.5063  2.6065
  655TIP3    H226161   2.981   1.063  11.074  0.2146  1.9002 -1.3338
  656TIP3   OH226162   0.225   4.961   9.769 -0.7340  0.4371 -0.2360
  656TIP3    H126163   0.266   5.040   9.805 -0.5204  0.5624 -0.7437
  656TIP3    H226164   0.163   4.933   9.837 -0.8828  1.0949 -0.0926
  657TIP3   OH226165   3.513   4.587  10.166  0.1792  0.0843 -0.1202
  657TIP3    H126166   3.526   4.500  10.128  1.0286  0.1664 -0.0200
  657TIP3    H226167   3.601   4.622  10.179 -0.0343 -0.2487  2.6937
  658TIP3   OH226168   4.940   4.096  10.265  0.0039 -0.6606 -0.2738
  658TIP3    H126169   4.847   4.119  10.261 -0.0078 -0.5725  0.4375
  658TIP3    H226170   4.960   4.089  10.358  0.5135 -1.5164 -0.4357
  659TIP3   OH226171   4.002   1.959   8.187  0.0272  0.8156  0.3613
  659TIP3    H126172   4.069   2.009   8.140 -0.1080  0.9907  0.3542
  659TIP3    H226173   3.919   1.992   8.153 -0.0607  0.3180  0.0864
  660TIP3   OH226174   6.555   4.919   9.511 -0.2281  0.1422 -0.7304
  660TIP3    H126175   6.526   4.960   9.429  0.7457  0.8098 -0.7568
  660TIP3    H226176   6.650   4.907   9.500 -0.1863 -0.3343  0.0542
  661TIP3   OH226177   2.766   5.701  10.617 -0.4260  0.2940 -0.1699
  661TIP3    H126178   2.841   5.641  10.624 -0.9080 -0.1565  1.6124
  661TIP3    H226179   2.706   5.658  10.556  0.1441 -0.0151 -0.5196
  662TIP3   OH226180   2.162   0.883   9.391  0.2242 -1.0089  0.8738
  662TIP3    H126181   2.257   0.876   9.389  0.1363 -2.4710 -1.3098
  662TIP3    H226182   2.144   0.975   9.374  1.2278 -0.6657  1.5859
  663TIP3   OH226183   1.848   1.922   9.323  0.2357 -0.1782  0.9199
  663TIP3    H126184   1.798   1.883   9.252  1.9304 -0.2425 -0.3040
  663TIP3    H226185   1.916   1.973   9.280  1.2818 -0.1674  2.4828
  664TIP3   OH226186   1.579   1.324   8.754  0.3225  0.1146  0.0327
  664TIP3    H126187   1.533   1.345   8.672  0.9990 -0.9144 -0.6274
  664TIP3    H226188   1.511   1.285   8.809  0.1708 -0.4865 -0.5688
  665TIP3   OH226189   4.190   2.129  10.397  0.1150 -0.4046  0.0426
  665TIP3    H126190   4.183   2.220  10.368  0.2653 -0.3379  0.2173
  665TIP3    H226191   4.124   2.120  10.465  0.9478 -0.0782  0.9144
  666TIP3   OH226192   3.898   2.817  10.023 -0.1443 -0.5869 -0.4105
  666TIP3    H126193   3.871   2.784   9.937 -1.4198  2.9147 -1.5069
  666TIP3    H226194   3.842   2.771  10.085 -1.1495 -1.1796 -1.7148
  667TIP3   OH226195   3.210   4.370  10.052 -0.4396  0.0837  0.3185
  667TIP3    H126196   3.233   4.396  10.142  0.8017 -0.1316  0.0914
  667TIP3    H226197   3.153   4.440  10.021 -1.7620 -0.3766  1.6255
  668TIP3   OH226198   5.588   6.594  11.708  0.6894 -0.5134  0.4106
  668TIP3    H126199   5.567   6.554  11.623  1.9030  0.1574 -0.2464
  668TIP3    H226200   5.593   6.520  11.768 -1.3579 -0.8878  0.1827
  669TIP3   OH226201   6.700   4.789  12.178  0.0392 -0.2779  0.0805
  669TIP3    H126202   6.708   4.805  12.084 -0.5489 -1.9374 -0.2837
  669TIP3    H226203   6.750   4.860  12.219 -0.1925  0.8122 -1.4502
  670TIP3   OH226204   2.196   5.128  10.590 -0.0829 -0.3934 -0.4840
  670TIP3    H126205   2.222   5.139  10.682 -1.7066 -1.0086  0.0751
  670TIP3    H226206   2.199   5.217  10.554 -1.0791  0.1179  0.6360
  671TIP3   OH226207   3.857   0.248   8.993 -0.2682 -0.2700  0.0790
  671TIP3    H126208   3.909   0.184   9.042  1.0027  0.9413  0.4220
  671TIP3    H226209   3.799   0.197   8.938  0.4630 -1.6985  0.5949
  672TIP3   OH226210   6.424   4.355  12.351  0.6294 -0.1437 -0.0439
  672TIP3    H126211   6.469   4.439  12.345 -0.0991  0.2233 -0.6126
  672TIP3    H226212   6.397   4.336  12.261 -1.5672  0.3621  0.4293
  673TIP3   OH226213   5.359   0.668   9.388  0.0462  0.7970 -0.4969
  673TIP3    H126214   5.348   0.614   9.466  2.5675  0.7981 -0.0426
  673TIP3    H226215   5.359   0.758   9.421 -1.5818  0.9648 -0.9001
  674TIP3   OH226216   5.289   4.417  11.294 -0.6223  0.4496  0.5441
  674TIP3    H126217   5.358   4.466  11.340 -0.4323  0.3077  0.4126
  674TIP3    H226218   5.269   4.344  11.351  0.0646 -0.0855  0.1157
  675TIP3   OH226219   2.570   1.529  10.571 -0.3447  0.1592  0.4200
  675TIP3    H126220   2.544   1.561  10.485 -0.2598 -0.9903 -0.0500
  675TIP3    H226221   2.500   1.470  10.598  0.8564 -1.5982 -0.0894
  676TIP3   OH226222   4.843   4.647   9.102 -0.5269 -0.1266  0.7527
  676TIP3    H126223   4.859   4.740   9.090 -2.0438  0.0782 -0.0103
  676TIP3    H226224   4.845   4.611   9.013  0.4233 -0.8918  1.0729
  677TIP3   OH226225   1.899   5.429   9.352 -0.0990 -0.4350 -0.0177
  677TIP3    H126226   1.867   5.382   9.275  0.7357 -0.7165 -0.1996
  677TIP3    H226227   1.959   5.368   9.395 -1.4223 -0.7262  1.5124
  678TIP3   OH226228   6.254   0.287   9.595 -0.6626 -0.3037  0.1344
  678TIP3    H126229   6.264   0.362   9.653 -1.4066  0.5046 -0.7487
  678TIP3    H226230   6.185   0.234   9.634  0.0072 -0.6613  0.8696
  679TIP3   OH226231   3.792   4.514  10.966 -0.1857 -0.1298 -0.3722
  679TIP3    H126232   3.728   4.447  10.942 -0.4966  0.7223 -2.1113
  679TIP3    H226233   3.861   4.467  11.011 -0.4521 -1.6218 -1.4391
  680TIP3   OH226234   4.206   5.802  10.650  0.0225  0.4999  0.2763
  680TIP3    H126235   4.263   5.725  10.650 -1.6246 -0.8001 -1.5335
  680TIP3    H226236   4.199   5.826  10.742  1.0042 -1.1930  0.8401
  681TIP3   OH226237   6.491   5.054   9.288 -0.3472 -0.5877  0.2474
  681TIP3    H126238   6.419   5.038   9.228 -0.3125  0.6717 -0.1723
  681TIP3    H226239   6.566   5.073   9.231  0.6159 -2.8851  0.6527
  682TIP3   OH226240   4.416   2.036   9.531  0.1775 -0.2813  0.9959
  682TIP3    H126241   4.349   1.969   9.529 -0.8001  0.5976  2.4254
  682TIP3    H226242   4.368   2.119   9.525  1.3180  0.3517 -0.3650
  683TIP3   OH226243   1.510   1.259   9.460  0.5934  0.7017  0.0950
  683TIP3    H126244   1.605   1.262   9.476  0.6044  0.1458  0.1397
  683TIP3    H226245   1.499   1.191   9.393  0.2048  0.6065  0.2550
  684TIP3   OH226246   1.692   4.958  12.291 -0.2976  0.3051  0.1995
  684TIP3    H126247   1.751   5.029  12.264 -0.3674  0.5225  0.6113
  684TIP3    H226248   1.608   5.001  12.303 -0.4761  0.0457 -0.1015
  685TIP3   OH226249   0.830   3.095   9.023 -0.9058  0.3096  0.0839
  685TIP3    H126250   0.809   3.010   8.984 -2.1165  1.5579 -2.1400
  685TIP3    H226251   0.916   3.117   8.987 -1.1763  0.6167 -0.3710
  686TIP3   OH226252   2.024   0.672   9.257 -0.6801  0.1563 -0.0792
  686TIP3    H126253   2.105   0.625   9.235  0.0706  1.7463 -0.8783
  686TIP3    H226254   2.053   0.752   9.300 -1.7794  1.0354 -0.8974
  687TIP3   OH226255   3.498   0.509  11.451  0.1351  0.0323  0.4481
  687TIP3    H126256   3.574   0.456  11.425 -0.6437 -1.5228  1.1845
  687TIP3    H226257   3.523   0.548  11.534  0.6092  0.5997  0.0447
  688TIP3   OH226258   5.962   2.579  11.439 -0.0973 -0.2722 -0.2319
  688TIP3    H126259   5.884   2.597  11.490 -1.9588 -2.6358 -2.0375
  688TIP3    H226260   5.990   2.665  11.406 -0.8837  0.8199  1.7955
  689TIP3   OH226261   5.603   0.880  10.276  0.1549 -0.1346  0.1963
  689TIP3    H126262   5.644   0.959  10.243  1.5069 -0.4858  0.9363
  689TIP3    H226263   5.672   0.836  10.326 -1.2017 -0.6158  1.7556
  690TIP3   OH226264   4.794   6.637   9.462 -0.7648  0.1644 -0.5373
  690TIP3    H126265   4.816   6.673   9.376 -1.6213 -1.0185 -1.2922
  690TIP3    H226266   4.717   6.688   9.490 -1.4083 -0.4193 -1.1808
  691TIP3   OH226267   6.286   0.814  11.941  0.1816 -0.6761  0.3524
  691TIP3    H126268   6.193   0.836  11.955 -0.0082 -0.8654 -0.5607
  691TIP3    H226269   6.333   0.891  11.974 -0.2878 -0.6512  0.9881
  692TIP3   OH226270   0.721   2.773  11.248 -0.1988 -0.1217 -0.4859
  692TIP3    H126271   0.751   2.725  11.325 -1.0811 -0.9798 -0.6523
  692TIP3    H226272   0.789   2.756  11.182 -1.3043 -2.6822 -1.0946
  693TIP3   OH226273   1.393   2.925  10.163 -1.0111  0.5026 -0.2294
  693TIP3    H126274   1.402   2.865  10.088  1.8430 -0.5651  0.8274
  693TIP3    H226275   1.314   2.895  10.208 -1.1034 -0.7650 -1.1690
  694TIP3   OH226276   5.664   0.622  10.829 -0.0193 -0.1862 -0.0910
  694TIP3    H126277   5.651   0.622  10.734 -0.1392  1.1544 -0.0938
  694TIP3    H226278   5.635   0.708  10.857 -3.0367 -1.5852  1.6308
  695TIP3   OH226279   2.584   3.802   8.918  0.2405  0.4178 -0.2636
  695TIP3    H126280   2.647   3.857   8.872 -0.5646  0.6669 -1.1053
  695TIP3    H226281   2.511   3.792   8.856 -1.1434  1.2193  1.1521
  696TIP3   OH226282   1.987   2.007  12.118 -0.1872 -0.0686 -0.2562
  696TIP3    H126283   1.998   1.912  12.113 -0.2818 -0.0462 -1.3541
  696TIP3    H226284   2.063   2.038  12.166  1.0419 -0.5192 -1.8161
  697TIP3   OH226285   0.553   2.713   8.828 -0.7679  0.0639 -0.3162
  697TIP3    H126286   0.465   2.675   8.826 -0.2488 -1.1899  0.0260
  697TIP3    H226287   0.599   2.673   8.754 -0.4552  0.6719 -0.4628
  698TIP3   OH226288   1.388   3.413  10.619 -0.1049  0.0601 -1.1622
  698TIP3    H126289   1.454   3.414  10.549 -1.2660 -1.3226 -2.3374
  698TIP3    H226290   1.344   3.498  10.613  0.8349  0.5749 -1.0456
  699TIP3   OH226291   3.474   4.575  10.527 -0.0462 -0.0990 -0.0805
  699TIP3    H126292   3.379   4.581  10.538 -0.0347  0.1401 -0.0986
  699TIP3    H226293   3.500   4.662  10.498  0.3003  0.1363  0.8782
  700TIP3   OH226294   6.139   4.147  10.705 -0.3676 -0.4309 -0.0119
  700TIP3    H126295   6.106   4.109  10.786  0.3655 -1.0432  0.0101
  700TIP3    H226296   6.172   4.233  10.730  0.0983 -0.7211  0.4023
  701TIP3   OH226297   4.125   4.219  10.423 -0.2000 -0.0288 -0.5059
  701TIP3    H126298   4.194   4.220  10.490 -1.3604 -0.4712  0.7550
  701TIP3    H226299   4.162   4.267  10.349  1.1821  0.3741  0.4092
  702TIP3   OH226300   1.426   4.189  11.861 -0.3869 -0.1647 -0.5515
  702TIP3    H126301   1.495   4.210  11.923 -0.1197  1.2762 -1.3068
  702TIP3    H226302   1.365   4.134  11.911  2.3556 -3.5036 -0.4574
  703TIP3   OH226303   6.549   5.297   9.896  0.3139 -0.0117  0.5235
  703TIP3    H126304   6.508   5.228   9.843 -0.1766 -0.4917  1.5038
  703TIP3    H226305   6.640   5.298   9.867  0.0548 -0.2583 -0.3289
  704TIP3   OH226306   5.401   5.398  11.226 -0.3875  0.3447  0.5408
  704TIP3    H126307   5.495   5.402  11.212 -0.0526  0.7824  2.6087
  704TIP3    H226308   5.379   5.306  11.216  0.6189 -0.0741  1.8564
  705TIP3   OH226309   6.679   0.062  11.502 -0.2497 -0.1635  0.4557
  705TIP3    H126310   6.592   0.102  11.498 -0.4737 -0.7563 -1.6968
  705TIP3    H226311   6.664  -0.030  11.477  0.9618 -0.3187  0.2625
  706TIP3   OH226312   4.299   5.715   9.953 -0.7965 -0.1047 -0.4743
  706TIP3    H126313   4.290   5.715  10.048 -2.4261 -0.3755 -0.5907
  706TIP3    H226314   4.358   5.788   9.935  1.1754 -1.2757  0.8187
  707TIP3   OH226315   1.297   0.987  12.101 -1.2576 -0.2867 -0.0415
  707TIP3    H126316   1.292   1.023  12.190 -1.1792  1.4264 -0.6884
  707TIP3    H226317   1.301   0.892  12.114  0.9841 -0.0324  1.8853
  708TIP3   OH226318   4.971   5.009  11.459  0.0852 -0.1238 -0.5316
  708TIP3    H126319   4.966   5.023  11.365  2.5211 -1.2177 -0.8929
  708TIP3    H226320   4.998   4.918  11.469  0.7607  0.2257  1.1881
  709TIP3   OH226321   0.053   3.899  11.380 -0.5568 -0.0816  0.1863
  709TIP3    H126322  -0.025   3.929  11.333 -1.6033 -2.7084  0.0729
  709TIP3    H226323   0.120   3.966  11.361 -2.9084  2.6538  0.8823
  710TIP3   OH226324   3.262   2.631   9.067 -0.3312 -0.2655  0.0796
  710TIP3    H126325   3.226   2.564   9.010 -0.4349 -0.6877  0.6342
  710TIP3    H226326   3.338   2.666   9.019  0.3413 -1.4856  0.2148
  711TIP3   OH226327   2.331   6.438  11.409 -0.2392 -0.0253 -0.3067
  711TIP3    H126328   2.251   6.387  11.397 -0.8544  1.0874 -1.0665
  711TIP3    H226329   2.301   6.526  11.431  0.7326  0.5827 -1.2638
  712TIP3   OH226330   5.503   6.676  11.113  0.1710 -0.5510  0.0505
  712TIP3    H126331   5.532   6.685  11.204 -0.1946 -1.9713  0.3243
  712TIP3    H226332   5.502   6.766  11.080  0.8750 -0.0684  1.2657
  713TIP3   OH226333   4.144   4.682  10.906  0.0234 -0.1294 -0.8177
  713TIP3    H126334   4.153   4.714  10.996  1.2504 -0.1397 -0.9196
  713TIP3    H226335   4.055   4.707  10.881 -0.6435 -0.9074  0.6869
  714TIP3   OH226336   0.882   3.873  11.260 -0.0666  0.2392  0.3061
  714TIP3    H126337   0.935   3.825  11.323 -0.0812  0.4719  0.4945
  714TIP3    H226338   0.792   3.847  11.279 -0.2153  1.4306  1.3568
  715TIP3   OH226339   0.342   4.662   8.279 -0.2909  0.8328 -0.5748
  715TIP3    H126340   0.368   4.730   8.341  1.3004  1.0302 -1.3985
  715TIP3    H226341   0.288   4.708   8.214  1.3812  1.5289 -1.5379
  716TIP3   OH226342   3.613   3.624  10.653  0.3729  0.4612 -0.3519
  716TIP3    H126343   3.667   3.558  10.611  1.1278  0.1035  1.1300
  716TIP3    H226344   3.532   3.626  10.601  0.3982 -1.4997 -0.5218
  717TIP3   OH226345   3.020   6.355  11.186 -0.2516 -0.3226  0.3283
  717TIP3    H126346   3.065   6.271  11.179 -0.3038 -0.2393 -1.1604
  717TIP3    H226347   2.971   6.364  11.105  0.3206  1.4724  0.1264
  718TIP3   OH226348   2.507   2.636  10.080  0.4244  0.6662 -0.0936
  718TIP3    H126349   2.486   2.706  10.143  0.0510 -0.3241  0.9333
  718TIP3    H226350   2.590   2.601  10.111 -0.2625 -0.5047  0.5015
  719TIP3   OH226351   1.893   5.987  11.807  0.7970 -0.0858  0.4881
  719TIP3    H126352   1.838   5.932  11.863  1.8659 -0.3921  1.2644
  719TIP3    H226353   1.831   6.046  11.764 -0.1887 -0.7565  0.9529
  720TIP3   OH226354   2.707   1.379   8.734 -0.1070  0.1677  0.1063
  720TIP3    H126355   2.715   1.306   8.673 -1.1923  0.5911 -0.5860
  720TIP3    H226356   2.796   1.413   8.744  0.2614 -0.6599 -0.2864
  721TIP3   OH226357   1.135   4.135  10.992 -0.6939  0.0575  0.0860
  721TIP3    H126358   1.103   4.051  11.025 -0.4440 -0.1358 -0.1635
  721TIP3    H226359   1.079   4.200  11.034 -0.3883 -0.1883  0.8860
  722TIP3   OH226360   1.372   0.177   9.947  0.4716  0.0723 -0.6299
  722TIP3    H126361   1.337   0.199   9.861 -0.1157  1.8936  0.0349
  722TIP3    H226362   1.453   0.131   9.929  0.7771  1.1497 -2.1590
  723TIP3   OH226363   4.836   4.699  11.173  0.1783  0.2231  0.7474
  723TIP3    H126364   4.924   4.729  11.148  0.7482  0.0410  2.3772
  723TIP3    H226365   4.821   4.739  11.259 -1.0611 -0.2908  0.7930
  724TIP3   OH226366   4.704   3.646   9.908  0.0468 -0.3460  0.4942
  724TIP3    H126367   4.653   3.701   9.849  0.7176 -1.3587 -1.0977
  724TIP3    H226368   4.763   3.706   9.953 -0.0069  0.3610 -0.3745
  725TIP3   OH226369   5.984   1.649  11.361  0.3678  0.1236 -0.4384
  725TIP3    H126370   6.066   1.660  11.407  0.4884  0.5634 -0.7501
  725TIP3    H226371   5.962   1.556  11.372  0.9302 -0.0080 -0.4041
  726TIP3   OH226372   4.044   1.908  10.814  0.2143  0.0702  0.2711
  726TIP3    H126373   4.049   1.842  10.884  0.3723 -0.6261 -0.3778
  726TIP3    H226374   4.058   1.858  10.734 -0.7514  0.7285 -0.3259
  727TIP3   OH226375   5.202   3.076  11.441 -0.3554 -0.2628 -0.0794
  727TIP3    H126376   5.152   3.099  11.519  1.2539  0.8629  0.6700
  727TIP3    H226377   5.266   3.012  11.472  0.7003  0.6561 -0.3143
  728TIP3   OH226378   2.377   4.774  11.943  0.0928  0.1095  0.6244
  728TIP3    H126379   2.426   4.812  11.870 -0.7618 -0.9138 -0.5192
  728TIP3    H226380   2.433   4.705  11.976 -0.7138 -1.4094 -1.0202
  729TIP3   OH226381   1.594   2.938  10.420  0.0063  0.1012 -0.5805
  729TIP3    H126382   1.610   2.843  10.418 -1.5394 -0.2468  1.0239
  729TIP3    H226383   1.560   2.958  10.332 -1.7209 -1.2928 -0.3013
  730TIP3   OH226384   5.714   4.287   9.387 -0.3226  0.1761  0.2961
  730TIP3    H126385   5.768   4.216   9.352 -1.0100  0.4099 -1.3162
  730TIP3    H226386   5.643   4.242   9.434 -0.0309 -0.1725  0.4106
  731TIP3   OH226387   5.616   3.709  10.708 -0.2182  0.7984 -0.0319
  731TIP3    H126388   5.691   3.759  10.675 -0.5502  0.4001 -1.4385
  731TIP3    H226389   5.591   3.653  10.635 -1.7618  0.7700  0.4880
  732TIP3   OH226390   2.839   5.867  11.797  0.0366  0.2910  0.4252
  732TIP3    H126391   2.916   5.836  11.748  0.0891  0.0710  0.6437
  732TIP3    H226392   2.812   5.791  11.849 -1.5180 -0.2936 -1.1236
  733TIP3   OH226393   4.230   5.094   9.956 -0.2666 -0.1658  0.5005
  733TIP3    H126394   4.326   5.087   9.958 -0.2274 -0.0987 -0.5000
  733TIP3    H226395   4.206   5.119  10.045  0.7637  1.0878  0.4649
  734TIP3   OH226396   5.332   3.283  11.772 -0.6149  0.8656 -0.6901
  734TIP3    H126397   5.417   3.314  11.805 -0.7913  1.2814 -0.6264
  734TIP3    H226398   5.290   3.361  11.736 -0.6059  0.4992 -1.5240
  735TIP3   OH226399   4.758   5.292  10.196  0.3467  0.2956 -0.0393
  735TIP3    H126400   4.822   5.223  10.206 -0.7856 -0.7243  0.3825
  735TIP3    H226401   4.796   5.367  10.241  1.1181 -0.3668  0.4265
  736TIP3   OH226402   5.066   2.355   8.886 -0.3653  0.1642 -0.0184
  736TIP3    H126403   5.117   2.309   8.953  0.3399  0.8292 -0.0802
  736TIP3    H226404   5.019   2.423   8.935  0.3588  0.8223 -0.2313
  737TIP3   OH226405   5.106   5.427  10.121  0.1459 -0.6017 -0.0064
  737TIP3    H126406   5.186   5.391  10.158  0.1606  1.3331  1.9982
  737TIP3    H226407   5.036   5.377  10.163  0.2393 -1.4886 -0.8693
  738TIP3   OH226408   5.771   2.725  11.139  0.8688  0.0066  0.0123
  738TIP3    H126409   5.682   2.742  11.170  0.7279  2.3945 -1.4662
  738TIP3    H226410   5.823   2.798  11.172  1.8018 -0.2021 -0.9259
  739TIP3   OH226411   0.084   5.401  11.635  0.3790  0.7409 -0.1808
  739TIP3    H126412   0.138   5.465  11.680  0.9533  0.9908 -1.1794
  739TIP3    H226413   0.080   5.433  11.545 -1.1305  0.5278 -0.2096
  740TIP3   OH226414   0.501   5.200   9.497  0.0356  0.1424  0.3367
  740TIP3    H126415   0.512   5.234   9.408 -0.5005  0.2685  0.3148
  740TIP3    H226416   0.471   5.275   9.548  2.8495  0.8037  1.2492
  741TIP3   OH226417   6.178   3.289   9.647  0.4686 -0.6371 -0.8970
  741TIP3    H126418   6.246   3.300   9.713 -1.0705 -0.4704  0.7269
  741TIP3    H226419   6.161   3.195   9.645  0.1571 -0.5862 -0.6790
  742TIP3   OH226420   2.547   5.798  11.681 -0.5807 -0.1036  0.5289
  742TIP3    H126421   2.527   5.868  11.619 -0.7245 -0.0985  0.5802
  742TIP3    H226422   2.640   5.810  11.702 -0.6956  0.2900  0.8110
  743TIP3   OH226423   6.497   2.746   8.701 -0.0712 -0.0728 -0.4908
  743TIP3    H126424   6.575   2.755   8.646  0.1490 -3.4389 -0.9151
  743TIP3    H226425   6.426   2.779   8.646  0.8077  1.9559 -0.5293
  744TIP3   OH226426   0.472   4.077  10.194 -0.1825  0.0054  0.0797
  744TIP3    H126427   0.433   4.124  10.268  0.1462  1.1731 -0.4698
  744TIP3    H226428   0.501   4.146  10.134  0.5559 -0.9009 -0.6304
  745TIP3   OH226429   1.470   4.624   9.793 -0.6962  0.2288  0.3893
  745TIP3    H126430   1.516   4.541   9.797  0.8714  1.0463  0.0742
  745TIP3    H226431   1.473   4.649   9.701 -2.9879 -0.3071  0.0987
  746TIP3   OH226432   0.560   5.065  11.306  0.0609  0.2384 -0.4850
  746TIP3    H126433   0.493   5.119  11.348 -0.9533 -0.1674 -1.5384
  746TIP3    H226434   0.556   4.981  11.352 -0.9369 -0.1518 -1.2451
  747TIP3   OH226435   5.753   0.132  11.714 -0.0802 -0.6962 -0.6227
  747TIP3    H126436   5.715   0.219  11.704  2.2648  0.6469  1.1026
  747TIP3    H226437   5.692   0.086  11.773 -0.7453  0.1729 -0.6085
  748TIP3   OH226438   0.701   0.162   9.811 -0.1068 -0.1271 -0.1065
  748TIP3    H126439   0.678   0.069   9.813  1.5472 -0.5408  1.6016
  748TIP3    H226440   0.619   0.206   9.831 -0.8255 -1.2179 -0.5050
  749TIP3   OH226441   5.163   6.592  11.419  0.2970  0.4884 -0.2539
  749TIP3    H126442   5.245   6.620  11.460 -0.1809  0.3647  0.8073
  749TIP3    H226443   5.094   6.631  11.472 -0.3472  0.4500 -1.0369
  750TIP3   OH226444   5.969   1.056  10.201  0.1232  0.4808  0.0200
  750TIP3    H126445   5.998   1.122  10.263 -0.7814  1.2620 -0.3566
  750TIP3    H226446   5.874   1.068  10.195 -0.4724 -2.3828  1.6956
  751TIP3   OH226447   3.640   0.854   9.082 -0.2462 -0.3259  0.3853
  751TIP3    H126448   3.606   0.913   9.016 -0.7659  0.9733  1.7613
  751TIP3    H226449   3.717   0.815   9.042 -0.1886  0.8892 -0.7512
  752TIP3   OH226450   5.174   4.740  10.432 -0.1063  0.5649 -0.1296
  752TIP3    H126451   5.148   4.747  10.340 -3.0567 -3.6455  0.1251
  752TIP3    H226452   5.269   4.732  10.429 -0.1556 -0.0485 -2.8728
  753TIP3   OH226453   2.348   3.806   9.164 -0.1408  0.2349 -0.4966
  753TIP3    H126454   2.409   3.847   9.225  1.8535 -2.4664 -0.5240
  753TIP3    H226455   2.395   3.801   9.081 -1.1529 -0.1055 -1.0707
  754TIP3   OH226456   6.448   0.178  11.402 -0.0887  0.1839  0.0021
  754TIP3    H126457   6.373   0.237  11.395  1.0481  1.6072 -0.7993
  754TIP3    H226458   6.500   0.197  11.324  1.4474 -0.2785  0.8827
  755TIP3   OH226459   2.176   5.965  11.582 -0.3312  0.2482  0.5252
  755TIP3    H126460   2.264   5.968  11.545  0.2000  0.3362  1.7620
  755TIP3    H226461   2.119   5.943  11.508  0.7845 -0.2918 -0.1866
  756TIP3   OH226462   1.359   0.286  10.793  0.5673 -0.2609 -0.1561
  756TIP3    H126463   1.376   0.199  10.827  1.6249 -0.1421 -0.3574
  756TIP3    H226464   1.344   0.273  10.699  0.6386 -0.2302 -0.1711
  757TIP3   OH226465   5.403   2.361  11.757  0.1877  0.4403  0.0773
  757TIP3    H126466   5.313   2.389  11.739 -0.0414  0.6797  1.4430
  757TIP3    H226467   5.403   2.268  11.736 -0.5161  0.3361  0.4828
  758TIP3   OH226468   5.994   3.903   9.755  0.6668  0.2618 -0.2808
  758TIP3    H126469   6.021   3.994   9.768 -0.0546  0.5234 -0.5564
  758TIP3    H226470   5.934   3.886   9.827  1.0433 -0.1052 -0.0491
  759TIP3   OH226471   5.863   2.217   8.971  0.0675  0.1692 -0.1492
  759TIP3    H126472   5.770   2.195   8.964 -0.1096  0.9753 -0.5298
  759TIP3    H226473   5.909   2.136   8.954 -0.5869 -0.9929  2.9361
  760TIP3   OH226474   0.239   1.208  10.043 -0.2045 -0.3543 -0.4857
  760TIP3    H126475   0.169   1.223   9.979 -0.8548 -0.2677  0.2266
  760TIP3    H226476   0.207   1.249  10.123  1.1531  0.6620 -0.4247
  761TIP3   OH226477   2.883   5.802   9.612  0.2869  0.1247 -0.2669
  761TIP3    H126478   2.874   5.736   9.543 -1.4927  0.9909 -0.9362
  761TIP3    H226479   2.916   5.879   9.567 -0.5636  0.5954 -0.1068
  762TIP3   OH226480   0.194   2.598  10.904 -0.1042 -0.4167 -0.0185
  762TIP3    H126481   0.118   2.648  10.933  0.9511  0.4114  1.4319
  762TIP3    H226482   0.201   2.527  10.967  0.8434  0.0389  0.4059
  763TIP3   OH226483   6.151   0.916  11.556  0.3454 -0.3996  0.5961
  763TIP3    H126484   6.177   0.953  11.472 -0.4313 -1.4364 -0.1122
  763TIP3    H226485   6.234   0.895  11.599  0.7762  1.0653  0.5437
  764TIP3   OH226486   5.829   3.434  11.855 -0.2530  0.0741  0.5180
  764TIP3    H126487   5.923   3.420  11.844 -0.3221 -0.3143  0.3824
  764TIP3    H226488   5.804   3.487  11.780 -0.5507 -1.7934 -0.7884
  765TIP3   OH226489   5.416   2.851  10.391 -0.1641  0.4429  0.7190
  765TIP3    H126490   5.329   2.850  10.352 -0.8452  3.9779  1.7668
  765TIP3    H226491   5.467   2.909  10.336  1.2405 -0.6647  0.7845
  766TIP3   OH226492   1.100   2.579   9.231 -0.1223  0.2250  0.5671
  766TIP3    H126493   1.104   2.484   9.242  0.3006  0.1604 -0.1119
  766TIP3    H226494   1.108   2.614   9.320 -0.4346 -0.3742  0.8367
  767TIP3   OH226495   0.811   2.674   9.525  0.0655  0.2743 -0.1274
  767TIP3    H126496   0.796   2.611   9.596 -0.5384  0.4851 -0.0596
  767TIP3    H226497   0.903   2.698   9.534 -0.2197  0.9994  1.1740
  768TIP3   OH226498   1.095   1.102  11.458  0.4409 -0.2480  0.5571
  768TIP3    H126499   1.085   1.053  11.376  1.1077  0.3210  0.1206
  768TIP3    H226500   1.011   1.145  11.472  0.4599 -0.0058 -0.0613
  769TIP3   OH226501   2.813   3.742  11.637  0.6762  0.4361 -0.2494
  769TIP3    H126502   2.869   3.726  11.713  0.3279  2.0510  0.3948
  769TIP3    H226503   2.823   3.664  11.583  1.6714 -0.3425  0.9984
  770TIP3   OH226504   2.087   6.525   9.120 -0.0445  0.3021  0.4272
  770TIP3    H126505   2.029   6.591   9.158  1.0927  1.1195  0.8179
  770TIP3    H226506   2.135   6.489   9.195 -1.2833 -1.6808  0.3616
  771TIP3   OH226507   5.789   2.267  11.611 -0.3006 -0.3175 -0.6341
  771TIP3    H126508   5.877   2.304  11.600 -1.2739  3.2399  1.6432
  771TIP3    H226509   5.801   2.197  11.675  0.9142 -0.0855 -0.5779
  772TIP3   OH226510   3.758   4.233  10.707 -0.5089  0.3839  0.2126
  772TIP3    H126511   3.798   4.308  10.750  2.6365 -0.3814 -1.1186
  772TIP3    H226512   3.723   4.269  10.625  1.3489  0.3978 -0.6126
  773TIP3   OH226513   1.373   5.898  11.217  0.5033  0.1398  0.0314
  773TIP3    H126514   1.453   5.917  11.168  1.0270 -0.5894  0.5905
  773TIP3    H226515   1.397   5.908  11.309  0.0781 -0.5363  0.2235
  774TIP3   OH226516   1.835   1.639  10.776  0.1075 -0.5175 -0.6629
  774TIP3    H126517   1.899   1.571  10.757  0.5321 -0.1244 -0.6485
  774TIP3    H226518   1.792   1.655  10.692  2.2879  1.5399 -1.4986
  775TIP3   OH226519   3.209   4.283   9.206  0.0919 -0.6082 -0.3039
  775TIP3    H126520   3.224   4.300   9.113  2.1730 -0.7679 -0.0398
  775TIP3    H226521   3.237   4.364   9.249  0.0209 -0.8723  0.2422
  776TIP3   OH226522   6.053   3.114  12.244  0.3655  0.2454 -0.2265
  776TIP3    H126523   5.987   3.053  12.212 -0.3747  1.1147 -0.3950
  776TIP3    H226524   6.117   3.059  12.289  0.8504 -0.9073 -2.1886
  777TIP3   OH226525   0.419   4.223  11.932  0.0757  0.0531  0.2622
  777TIP3    H126526   0.502   4.263  11.905  0.3066  1.0611  2.2615
  777TIP3    H226527   0.400   4.158  11.864  1.3435  1.3481 -1.4188
  778TIP3   OH226528   6.444   5.495   9.402  0.0780  0.4476  0.0277
  778TIP3    H126529   6.422   5.419   9.456 -0.3109  0.8937  0.5113
  778TIP3    H226530   6.359   5.531   9.376  0.2557  0.0117 -1.2238
  779TIP3   OH226531   1.823   1.588   9.763  0.3282  0.2009  0.1268
  779TIP3    H126532   1.917   1.606   9.756  0.0383  1.6980 -0.3046
  779TIP3    H226533   1.793   1.584   9.672 -0.3235  1.5712  0.2612
  780TIP3   OH226534   2.418   0.464  10.316  0.0578 -0.1932 -0.0067
  780TIP3    H126535   2.334   0.494  10.281 -0.0060 -1.0420 -0.5821
  780TIP3    H226536   2.458   0.544  10.352 -0.8924  0.2571  0.0812
  781TIP3   OH226537   4.950   1.695  11.714  0.6365 -0.6787 -0.5963
  781TIP3    H126538   4.948   1.670  11.622 -1.2030 -2.9138 -0.0487
  781TIP3    H226539   4.862   1.729  11.731  1.1774  0.4041  0.2156
  782TIP3   OH226540   2.715   4.477   8.872 -0.3449  0.2297 -0.0800
  782TIP3    H126541   2.627   4.471   8.836 -0.6366  2.3181  0.1616
  782TIP3    H226542   2.714   4.421   8.949 -1.3714  0.0495 -0.2175
  783TIP3   OH226543   2.475   2.294  10.557  0.2613  0.2479 -0.1086
  783TIP3    H126544   2.443   2.269  10.644 -0.0836  1.5883  0.1807
  783TIP3    H226545   2.570   2.298  10.567  0.1851  1.1227  0.4454
  784TIP3   OH226546   2.969   6.480  11.440 -0.3255  0.2805 -0.1579
  784TIP3    H126547   3.049   6.506  11.485 -1.9732  3.6332  1.1872
  784TIP3    H226548   2.995   6.469  11.348  1.7900  0.4370  0.3787
  785TIP3   OH226549   4.477   1.316  11.053 -0.0358 -0.2947  0.4263
  785TIP3    H126550   4.440   1.248  10.997 -0.2543  0.7970 -0.7878
  785TIP3    H226551   4.467   1.397  11.003  4.5777  0.0779 -0.3478
  786TIP3   OH226552   2.167   6.616   9.386 -0.3457  0.2051 -0.5043
  786TIP3    H126553   2.259   6.589   9.390 -0.7182 -1.5463 -2.3135
  786TIP3    H226554   2.120   6.544   9.427 -0.9761  0.8653 -0.0476
  787TIP3   OH226555   4.051   6.595  11.639  0.1031  0.5801 -0.3335
  787TIP3    H126556   4.010   6.668  11.594 -0.8399  1.2550  1.5032
  787TIP3    H226557   3.977   6.541  11.668  0.5891  0.7442  1.2849
  788TIP3   OH226558   2.917   6.105  10.284 -0.2495 -0.1559  0.1435
  788TIP3    H126559   2.844   6.054  10.320  0.3319 -0.0381  1.5743
  788TIP3    H226560   2.950   6.051  10.212 -3.2621  0.9293 -2.2758
  789TIP3   OH226561   0.582   0.457  11.529 -0.5962 -0.4657 -0.5301
  789TIP3    H126562   0.611   0.528  11.472 -1.6741  0.8127  0.4401
  789TIP3    H226563   0.486   0.465  11.531 -0.6499 -1.1224  0.6413
  790TIP3   OH226564   2.629   6.039   9.668 -0.1570 -0.1902 -0.7475
  790TIP3    H126565   2.542   6.043   9.629 -0.4909  0.3411  0.0410
  790TIP3    H226566   2.667   5.958   9.632 -1.2171 -0.7774 -0.5842
  791TIP3   OH226567   1.958   3.400  10.001  0.2063 -0.1432  0.2438
  791TIP3    H126568   2.027   3.457   9.967  0.7477 -1.1518 -0.3984
  791TIP3    H226569   1.877   3.438   9.968  0.5492  0.3251 -0.0752
  792TIP3   OH226570   3.592   4.546  11.510  0.0987 -0.4012  0.1227
  792TIP3    H126571   3.653   4.581  11.445 -1.4719  0.2139 -1.0869
  792TIP3    H226572   3.572   4.621  11.566 -1.2194  0.0036 -0.8465
  793TIP3   OH226573   4.972   4.455  10.260  0.0023 -0.6897 -0.5420
  793TIP3    H126574   4.943   4.440  10.350 -0.6949 -1.2343 -0.8438
  793TIP3    H226575   5.067   4.452  10.264 -0.0380 -1.4954  0.0530
  794TIP3   OH226576   0.349   2.325  12.128 -0.3190  0.1613  0.0798
  794TIP3    H126577   0.444   2.320  12.120 -0.4275  0.0141 -1.5150
  794TIP3    H226578   0.332   2.329  12.222  1.2801  0.6222  0.3665
  795TIP3   OH226579   3.255   3.128   9.018  0.0644  0.0286  0.6801
  795TIP3    H126580   3.245   3.047   8.969 -0.5703 -0.3332  1.3888
  795TIP3    H226581   3.190   3.188   8.982  0.6411  0.2925  0.0475
  796TIP3   OH226582   2.677   1.118  11.271 -0.1117  0.2943  0.2186
  796TIP3    H126583   2.741   1.118  11.201  0.4204  0.5363  0.6957
  796TIP3    H226584   2.605   1.065  11.238 -0.3089  1.2053 -0.8996
  797TIP3   OH226585   4.945   3.843   9.322 -0.3210  0.8265 -0.1731
  797TIP3    H126586   4.984   3.918   9.367  1.8956  1.4163 -2.8224
  797TIP3    H226587   5.003   3.770   9.342 -1.1148  0.3252  0.4012
  798TIP3   OH226588   6.283   3.874  11.803  0.1938  0.0067  0.0003
  798TIP3    H126589   6.291   3.886  11.708  0.9414  0.4321  0.1105
  798TIP3    H226590   6.194   3.840  11.815  0.1134 -0.1180 -0.8570
  799TIP3   OH226591   6.437   0.147   9.471 -0.1618 -0.2220 -0.1995
  799TIP3    H126592   6.379   0.190   9.534 -0.8397 -0.6516 -0.5153
  799TIP3    H226593   6.427   0.198   9.391 -0.3879 -0.5056 -0.3565
  800TIP3   OH226594   6.604   6.158   9.433  0.2254  0.0670  0.2074
  800TIP3    H126595   6.592   6.066   9.458  0.2959  0.0404  0.1435
  800TIP3    H226596   6.694   6.162   9.400  0.4089  0.2725  0.7264
  801TIP3   OH226597   1.243   6.175  12.085 -0.1919  0.4564  0.1865
  801TIP3    H126598   1.188   6.206  12.013  1.3037 -0.3438 -1.3722
  801TIP3    H226599   1.287   6.253  12.117 -0.9220  0.8293  0.3105
  802TIP3   OH226600   5.438   2.310  10.823 -0.0547  0.2034  0.3520
  802TIP3    H126601   5.518   2.288  10.871  0.7749  0.2291 -0.9832
  802TIP3    H226602   5.449   2.402  10.798 -0.4724  0.1865  0.0910
  803TIP3   OH226603   1.917   4.665   9.738  0.2465  0.2800  0.4335
  803TIP3    H126604   1.997   4.637   9.784 -0.3260 -0.1215  1.1976
  803TIP3    H226605   1.879   4.731   9.794  0.0493  0.4984  0.0470
  804TIP3   OH226606   0.612   5.700  11.971 -0.5522 -0.0909 -0.1028
  804TIP3    H126607   0.569   5.710  12.055 -0.2326 -0.2470  0.0829
  804TIP3    H226608   0.673   5.774  11.966  0.5129 -0.8998  0.4759
  805TIP3   OH226609   4.719   1.628  10.838  0.1800  0.1293  0.0506
  805TIP3    H126610   4.655   1.670  10.781  2.2562  0.0566 -2.5402
  805TIP3    H226611   4.763   1.701  10.882 -1.2733  0.1970  1.4894
  806TIP3   OH226612   4.394   1.807   8.940 -0.0358  0.4919 -0.4508
  806TIP3    H126613   4.388   1.795   9.035  0.4036  0.5316 -0.4174
  806TIP3    H226614   4.434   1.893   8.929 -1.1549  1.0071 -0.6847
  807TIP3   OH226615   6.137   3.160  11.963 -0.0119 -0.2760 -0.0251
  807TIP3    H126616   6.201   3.091  11.981 -1.7792 -1.6230  1.4233
  807TIP3    H226617   6.085   3.167  12.043 -2.8560 -0.5735 -1.7147
  808TIP3   OH226618   5.134   4.916  12.369  0.1738 -0.2528  0.0120
  808TIP3    H126619   5.151   4.978  12.298  0.5117 -0.9994 -0.5724
  808TIP3    H226620   5.041   4.898  12.364  0.3077 -0.7911 -0.6636
  809TIP3   OH226621   0.138   2.862   9.934  0.0608  0.6167  0.0067
  809TIP3    H126622   0.094   2.853  10.018 -0.0268 -2.0669 -0.2264
  809TIP3    H226623   0.075   2.907   9.878 -0.7617  0.4687  0.7879
  810TIP3   OH226624   1.937   3.707  10.206  0.0575  0.1850 -0.7708
  810TIP3    H126625   1.914   3.738  10.119  0.0813  0.3050 -0.7348
  810TIP3    H226626   1.870   3.746  10.263 -0.5577 -0.7137 -0.8681
  811TIP3   OH226627   4.293   6.359  12.076 -0.4174 -0.3866  0.1211
  811TIP3    H126628   4.209   6.397  12.101 -0.3311 -0.7966  1.0789
  811TIP3    H226629   4.318   6.406  11.996 -1.0469  0.4652  0.4148
  812TIP3   OH226630   2.743   3.522   8.727  0.5663 -0.2683 -0.5362
  812TIP3    H126631   2.690   3.477   8.792  1.4798  1.2374  1.3519
  812TIP3    H226632   2.812   3.460   8.704 -1.1569 -1.7274 -1.9831
  813TIP3   OH226633   1.815   3.622  11.583 -0.1181 -0.4662 -0.3147
  813TIP3    H126634   1.825   3.527  11.593  1.9672 -0.5621 -2.4191
  813TIP3    H226635   1.904   3.656  11.588 -1.0185  1.9252  3.8216
  814TIP3   OH226636   1.881   5.916   9.668 -0.0608  0.2854  0.2088
  814TIP3    H126637   1.826   5.837   9.663  0.7466 -0.3282  0.7362
  814TIP3    H226638   1.873   5.956   9.581 -1.5584  0.3655  0.3682
  815TIP3   OH226639   4.572   3.821   9.710  0.0092  0.0174  0.3328
  815TIP3    H126640   4.531   3.792   9.629  1.2398 -1.1108  0.0789
  815TIP3    H226641   4.643   3.878   9.681 -0.0275  0.2264  0.6557
  816TIP3   OH226642   6.288   3.674  10.512  0.5149  0.4554  0.0609
  816TIP3    H126643   6.294   3.698  10.420  0.5183 -0.4156 -0.1834
  816TIP3    H226644   6.329   3.746  10.560  0.5311  0.9004 -0.6184
  817TIP3   OH226645   2.271   2.308  10.374  0.1873 -0.2665  0.6463
  817TIP3    H126646   2.303   2.334  10.288 -0.7759  0.5280  0.5094
  817TIP3    H226647   2.350   2.307  10.430  0.6645  0.2226 -0.0026
  818TIP3   OH226648   4.094   5.917  10.414 -0.0094 -0.3720  0.6867
  818TIP3    H126649   4.141   5.881  10.489  0.5545 -0.7101  0.1858
  818TIP3    H226650   4.161   5.961  10.363 -0.4693  0.2471  0.6102
  819TIP3   OH226651   3.587   0.005  10.228  0.0773  0.0238  0.5024
  819TIP3    H126652   3.674   0.031  10.198 -0.9518  1.7112 -1.2282
  819TIP3    H226653   3.529   0.025  10.154 -1.6650 -1.9831  1.2303
  820TIP3   OH226654   1.191   1.124  10.135 -0.5667 -0.1122 -0.5792
  820TIP3    H126655   1.142   1.191  10.184 -0.2479 -0.3539  0.0794
  820TIP3    H226656   1.161   1.041  10.172  1.1025 -0.2326  0.5677
  821TIP3   OH226657   5.728   4.736  11.427 -0.7435  0.1647 -0.1207
  821TIP3    H126658   5.794   4.739  11.358 -1.4043  1.3451 -0.7157
  821TIP3    H226659   5.779   4.726  11.508  0.0310 -1.4565 -0.7593
  822TIP3   OH226660   4.556   6.422  11.080  0.3544  0.1081  0.1530
  822TIP3    H126661   4.471   6.384  11.059 -0.1490  0.9038  0.7315
  822TIP3    H226662   4.609   6.347  11.108  0.2419 -0.5800 -1.3693
  823TIP3   OH226663   1.797   6.233  10.830 -0.0531 -0.3717  0.4580
  823TIP3    H126664   1.852   6.185  10.892  0.7960  2.1495  1.8138
  823TIP3    H226665   1.854   6.303  10.797 -1.1346 -0.3899 -1.6385
  824TIP3   OH226666   1.730   1.713  10.522  0.3011  0.4138 -0.1711
  824TIP3    H126667   1.655   1.735  10.468 -0.0942  1.5994  0.8087
  824TIP3    H226668   1.784   1.792  10.522  1.5215 -0.3838 -0.7869
  825TIP3   OH226669   2.741   2.484  10.536 -0.2023 -0.4651  0.6743
  825TIP3    H126670   2.723   2.577  10.519  0.7945 -0.7897 -2.9264
  825TIP3    H226671   2.816   2.485  10.596 -0.1330  1.0360  0.6040
  826TIP3   OH226672   4.705   0.071  11.988  0.0403 -0.5808 -0.3442
  826TIP3    H126673   4.754   0.153  12.003 -0.1784 -0.7887  1.7401
  826TIP3    H226674   4.623   0.083  12.034  0.2833 -2.2358  0.5767
  827TIP3   OH226675   4.342   5.452  10.046  0.8504 -0.1626 -0.7572
  827TIP3    H126676   4.316   5.534  10.004  0.1396 -0.9422 -1.9260
  827TIP3    H226677   4.297   5.454  10.131 -0.4080  0.0119 -1.3898
  828TIP3   OH226678   3.904   2.385   9.577 -0.0978 -0.1145  0.6480
  828TIP3    H126679   3.870   2.457   9.631 -0.0550  1.4373 -1.2671
  828TIP3    H226680   3.999   2.395   9.581 -0.1061  0.5461 -0.3242
  829TIP3   OH226681   1.357   4.492   9.524  0.3074  0.1256 -0.5414
  829TIP3    H126682   1.315   4.439   9.456 -0.3513 -0.0693  0.0051
  829TIP3    H226683   1.444   4.510   9.490  0.0332 -0.0904 -1.3731
  830TIP3   OH226684   4.726   4.255   9.687 -0.5701  0.2732  0.1525
  830TIP3    H126685   4.669   4.306   9.745  0.3854  3.0229 -1.1675
  830TIP3    H226686   4.687   4.264   9.600 -0.7124 -1.8795 -0.0697
  831TIP3   OH226687   1.337   5.191  11.506 -0.1734 -0.0108  0.7536
  831TIP3    H126688   1.329   5.286  11.514 -0.5409 -0.0834  1.2841
  831TIP3    H226689   1.419   5.169  11.550 -0.7154 -0.0743  1.7629
  832TIP3   OH226690   5.459   4.868   9.251  0.6744 -0.2879 -0.1857
  832TIP3    H126691   5.415   4.797   9.205 -0.1166  0.2097 -0.2203
  832TIP3    H226692   5.470   4.836   9.340 -0.5106 -0.1135  0.0330
  833TIP3   OH226693   3.112   3.153  10.384 -0.7524  0.2509  0.0009
  833TIP3    H126694   3.122   3.218  10.454  0.4383 -0.0272  0.1087
  833TIP3    H226695   3.133   3.202  10.304 -0.6663  0.2069 -0.0035
  834TIP3   OH226696   4.689   4.450  12.227 -0.3013 -0.0447  0.1173
  834TIP3    H126697   4.601   4.465  12.262 -0.8082  0.7628 -1.4161
  834TIP3    H226698   4.690   4.498  12.144  1.6618  0.1354  0.2089
  835TIP3   OH226699   0.137   1.092  10.349  0.8443 -0.0886  0.1302
  835TIP3    H126700   0.042   1.085  10.334  0.7001  1.4599  0.1731
  835TIP3    H226701   0.172   1.010  10.317 -0.5221 -0.7076  0.1324
  836TIP3   OH226702   2.668   3.970   8.701  0.0768  0.0563  0.4167
  836TIP3    H126703   2.590   3.998   8.653  0.0011  0.8774  0.9929
  836TIP3    H226704   2.692   3.887   8.661 -0.1278  0.5897 -0.8639
  837TIP3   OH226705   5.628   0.566  11.455 -0.3617 -0.1070  0.4126
  837TIP3    H126706   5.564   0.535  11.391 -0.8212  0.3704  0.6358
  837TIP3    H226707   5.661   0.486  11.495 -1.7209 -0.3325  1.1550
  838TIP3   OH226708   6.306   1.042   9.087  0.1160 -0.3812  0.5939
  838TIP3    H126709   6.360   0.970   9.119  1.4642 -0.0291 -0.7726
  838TIP3    H226710   6.333   1.055   8.996 -0.7538  1.2290  0.5158
  839TIP3   OH226711   5.509   3.555  10.505  0.1677 -0.5810 -0.2954
  839TIP3    H126712   5.492   3.631  10.449  0.0687 -0.9240 -0.7327
  839TIP3    H226713   5.442   3.492  10.482  0.9649 -1.2670 -0.7944
  840TIP3   OH226714   0.500   1.108   9.105  0.0041  0.2660  0.2685
  840TIP3    H126715   0.446   1.121   9.027 -0.7533  0.4712  0.8275
  840TIP3    H226716   0.550   1.189   9.113  1.3617 -0.3860 -0.9633
  841TIP3   OH226717   5.024   0.708   9.286  0.0430 -0.5348 -0.0127
  841TIP3    H126718   5.017   0.772   9.216  0.1841 -0.2877  0.1958
  841TIP3    H226719   5.029   0.623   9.241  0.6255 -0.3416 -0.3219
  842TIP3   OH226720   3.110   6.390   9.046 -1.0775  0.4219 -0.2295
  842TIP3    H126721   3.072   6.446   9.114 -1.9222  1.1869 -1.2902
  842TIP3    H226722   3.197   6.426   9.031 -0.2923 -0.6646  1.4579
  843TIP3   OH226723   5.388   0.137   9.636  0.2885 -0.2732  0.1311
  843TIP3    H126724   5.317   0.082   9.604  1.9807 -1.8190 -1.1774
  843TIP3    H226725   5.440   0.079   9.692  0.7468  0.7213  0.7707
  844TIP3   OH226726   1.699   5.623  11.144  0.1655 -0.2838 -0.1556
  844TIP3    H126727   1.634   5.585  11.204  1.9159 -0.8163  1.5276
  844TIP3    H226728   1.650   5.685  11.091 -2.7320 -4.0931 -2.4410
  845TIP3   OH226729   1.105   2.711  10.737  0.4852 -0.2811  0.5584
  845TIP3    H126730   1.036   2.654  10.703  1.0336  0.6271 -2.3291
  845TIP3    H226731   1.060   2.771  10.797 -0.8967 -0.8185  0.0984
  846TIP3   OH226732   5.177   6.684   9.555 -0.2498  0.0839 -0.4168
  846TIP3    H126733   5.171   6.592   9.527  1.9957 -0.5886  1.0513
  846TIP3    H226734   5.107   6.694   9.620 -0.7570 -0.4747 -0.8658
  847TIP3   OH226735   0.298   4.530  10.885  0.0007 -0.2667  0.5451
  847TIP3    H126736   0.315   4.621  10.858  1.4890  0.0840  2.4703
  847TIP3    H226737   0.220   4.536  10.941 -0.4926 -0.3506 -0.1175
  848TIP3   OH226738   3.491   5.731  10.944 -0.2921  0.2170 -0.0556
  848TIP3    H126739   3.586   5.718  10.950 -0.3662 -0.1657  0.3360
  848TIP3    H226740   3.479   5.780  10.863  0.1593 -0.6325 -0.6615
  849TIP3   OH226741   0.863   5.155  10.347  0.0474 -0.0422  0.1927
  849TIP3    H126742   0.943   5.124  10.306  0.5724  0.6207  0.6693
  849TIP3    H226743   0.893   5.198  10.428 -0.9192 -1.0870  1.1403
  850TIP3   OH226744   1.003   2.468  12.208 -0.0875  0.4232 -0.3547
  850TIP3    H126745   1.042   2.529  12.271 -1.0284 -1.8233  2.6305
  850TIP3    H226746   1.068   2.462  12.137  2.0620  1.5419  1.3789
  851TIP3   OH226747   0.901   0.176  10.252  0.0062  0.4316  0.2298
  851TIP3    H126748   0.894   0.131  10.336  0.4994  0.0890  0.0901
  851TIP3    H226749   0.814   0.167  10.212  0.0838 -0.3520  0.2272
  852TIP3   OH226750   3.521   2.380   8.518 -0.0475  0.1059 -0.5779
  852TIP3    H126751   3.458   2.340   8.458 -0.0259 -0.4488 -0.2409
  852TIP3    H226752   3.595   2.319   8.521 -0.0660  0.0989  0.0368
  853TIP3   OH226753   0.292   2.481  10.312  0.0213 -0.4921  0.1889
  853TIP3    H126754   0.215   2.458  10.259  0.3964  0.2564 -0.7036
  853TIP3    H226755   0.308   2.573  10.293  0.9069 -0.5333  0.6748
  854TIP3   OH226756   2.645   6.001  10.942  0.3743 -0.2117  0.3927
  854TIP3    H126757   2.661   6.094  10.927  0.9259 -0.3556  0.0389
  854TIP3    H226758   2.627   5.994  11.036 -2.7791  0.6652 -0.0388
  855TIP3   OH226759   1.348   0.410   9.679  0.1388  0.2578 -0.0362
  855TIP3    H126760   1.395   0.357   9.743 -0.4017 -1.8954 -1.3514
  855TIP3    H226761   1.271   0.442   9.728  1.0210  0.7996  1.0664
  856TIP3   OH226762   6.169   2.398  10.083  0.0679 -0.2702 -0.1267
  856TIP3    H126763   6.091   2.453  10.091 -1.1592 -2.0204  0.6153
  856TIP3    H226764   6.186   2.392   9.989 -0.0254  0.9902 -0.2387
  857TIP3   OH226765   6.653   3.062  11.142  0.5283  0.2090  0.2873
  857TIP3    H126766   6.746   3.039  11.138  0.1841 -1.1005 -1.6864
  857TIP3    H226767   6.609   2.978  11.153 -0.4652  0.7243  0.2824
  858TIP3   OH226768   4.973   5.315   8.587 -0.7523 -0.0221  0.4453
  858TIP3    H126769   4.990   5.225   8.560 -1.4400 -0.6053  1.8646
  858TIP3    H226770   4.924   5.307   8.668 -0.7220  1.6446  0.6638
  859TIP3   OH226771   3.334   1.256   9.766 -0.1314 -0.3418  0.1157
  859TIP3    H126772   3.327   1.276   9.860 -1.3257  0.4328 -0.1248
  859TIP3    H226773   3.427   1.267   9.747  0.1412 -0.5864  1.2302
  860TIP3   OH226774   5.726   1.523  10.967 -0.1942  0.2908 -0.4444
  860TIP3    H126775   5.822   1.515  10.969 -0.3418 -2.7473  2.1050
  860TIP3    H226776   5.698   1.462  10.900 -0.3878  0.4868 -0.5440
  861TIP3   OH226777   0.620   5.066  10.438  0.2331 -0.1172 -0.6282
  861TIP3    H126778   0.662   5.019  10.509  0.1927  1.4863  0.4908
  861TIP3    H226779   0.687   5.125  10.404  0.1638 -0.6520 -1.7408
  862TIP3   OH226780   1.958   5.545  11.080 -0.3719  0.1056  0.1117
  862TIP3    H126781   1.867   5.558  11.105 -0.0893  1.5288  0.4614
  862TIP3    H226782   1.954   5.493  11.000 -1.6747  2.7400 -1.6747
  863TIP3   OH226783   6.545   0.365  12.286 -0.8470  0.2085 -0.3228
  863TIP3    H126784   6.573   0.337  12.199 -0.2982  0.4941 -0.2449
  863TIP3    H226785   6.575   0.296  12.345  0.6854  1.0062 -0.1056
  864TIP3   OH226786   0.453   4.517  10.086 -0.1537 -0.6055  0.2365
  864TIP3    H126787   0.515   4.588  10.068 -1.7539  0.9997  0.6845
  864TIP3    H226788   0.479   4.446  10.028  1.3396  0.4511 -0.4453
  865TIP3   OH226789   2.396   6.285  10.700 -0.3241 -0.2161 -0.2309
  865TIP3    H126790   2.376   6.378  10.712 -1.1017 -0.5198  1.0151
  865TIP3    H226791   2.321   6.249  10.654 -0.3325 -0.3500 -0.1147
  866TIP3   OH226792   6.377   5.828  10.140  0.1230 -0.0918 -0.1034
  866TIP3    H126793   6.384   5.823  10.044  0.6715 -0.2600 -0.0600
  866TIP3    H226794   6.460   5.791  10.171  0.3630  0.8691  0.4223
  867TIP3   OH226795   2.502   4.497  11.151  0.3491 -0.0342  0.5249
  867TIP3    H126796   2.433   4.554  11.116 -0.4392 -1.9660 -1.3170
  867TIP3    H226797   2.540   4.456  11.073  1.4996 -1.3055  1.7150
  868TIP3   OH226798   4.651   1.207   8.195 -0.2205 -0.0421  0.0904
  868TIP3    H126799   4.615   1.224   8.109  0.0250 -1.7647 -0.3889
  868TIP3    H226800   4.722   1.270   8.205 -1.4417  1.4116 -0.1612
  869TIP3   OH226801   2.520   5.581  11.330  0.4029  0.5458  0.3305
  869TIP3    H126802   2.582   5.654  11.329  0.9559  0.0879 -1.0872
  869TIP3    H226803   2.497   5.570  11.422  2.7968  0.4277  0.9778
  870TIP3   OH226804   6.027   0.789  11.215 -0.2527  0.3112 -0.1711
  870TIP3    H126805   6.115   0.754  11.208  0.1910  1.6630 -2.0861
  870TIP3    H226806   5.972   0.726  11.168  0.0444  0.5438 -0.8397
  871TIP3   OH226807   0.715   3.872   8.728  0.0258 -0.6083 -0.2029
  871TIP3    H126808   0.764   3.797   8.694  0.2204 -1.1167  1.1156
  871TIP3    H226809   0.628   3.864   8.689  0.8281  0.0583 -2.2329
  872TIP3   OH226810   1.297   3.171  10.040 -0.1607  0.3304  0.1571
  872TIP3    H126811   1.313   3.180   9.946  0.1226 -0.9978  0.0626
  872TIP3    H226812   1.351   3.096  10.067  0.3536  1.1507  1.5306
  873TIP3   OH226813   0.427   6.126  12.238  0.0752 -0.5958 -0.0264
  873TIP3    H126814   0.521   6.111  12.224  0.0748  0.1300 -0.8487
  873TIP3    H226815   0.389   6.038  12.234  0.2572 -0.6443 -3.4119
  874TIP3   OH226816   5.298   2.840  11.183  0.1492 -0.0113  0.5408
  874TIP3    H126817   5.242   2.783  11.236  0.9907  0.1859  1.6814
  874TIP3    H226818   5.266   2.828  11.093 -0.7082 -1.0663  0.9608
  875TIP3   OH226819   5.942   5.710  10.299 -0.8087 -0.2425  0.2728
  875TIP3    H126820   5.977   5.646  10.237  0.9220  1.1815 -0.3076
  875TIP3    H226821   5.856   5.734  10.264 -0.1566  0.0169 -1.2028
  876TIP3   OH226822   1.384   2.697  11.515 -0.4272  0.1998 -0.4049
  876TIP3    H126823   1.428   2.770  11.470  0.9092  0.5031  1.2895
  876TIP3    H226824   1.354   2.735  11.598  0.6858 -1.2628  0.7054
  877TIP3   OH226825   4.493   2.331   8.009  0.2109 -0.0599 -0.7584
  877TIP3    H126826   4.574   2.370   7.975 -0.4204  1.0928 -1.0040
  877TIP3    H226827   4.486   2.366   8.098 -0.2522  0.2180 -0.9013
  878TIP3   OH226828   4.930   3.437   9.853 -0.1105  0.3736  0.1690
  878TIP3    H126829   4.877   3.488   9.791  0.1629  0.4489 -0.0076
  878TIP3    H226830   4.906   3.472   9.939 -2.3719 -1.4252  0.3699
  879TIP3   OH226831   2.254   1.177  10.059 -0.0608  0.2397 -0.4266
  879TIP3    H126832   2.335   1.133  10.033 -0.2543 -0.5464  0.2635
  879TIP3    H226833   2.190   1.106  10.068  0.4529  0.0605  4.1666
  880TIP3   OH226834   4.266   6.075  12.024 -0.1896 -0.4060 -0.0491
  880TIP3    H126835   4.183   6.082  11.976  0.0279  0.0502 -0.3649
  880TIP3    H226836   4.287   6.165  12.048 -0.1694 -0.6010  0.6924
  881TIP3   OH226837   0.506   1.766   8.180  0.1407  0.3038  0.6499
  881TIP3    H126838   0.428   1.727   8.140  0.1128  0.2059  0.8006
  881TIP3    H226839   0.495   1.860   8.167  0.7872  0.2044 -0.7938
  882TIP3   OH226840   3.695   3.562  10.317 -0.4768  0.0896 -0.3775
  882TIP3    H126841   3.621   3.559  10.256 -1.8865 -0.1592  1.2554
  882TIP3    H226842   3.745   3.483  10.298 -2.0327 -1.0690  0.0894
  883TIP3   OH226843   2.170   1.391  10.991  0.3565  0.3847  0.1631
  883TIP3    H126844   2.145   1.483  10.997  1.9009  0.8428 -0.1721
  883TIP3    H226845   2.265   1.391  10.999  0.2817 -1.3175  1.4968
  884TIP3   OH226846   4.598   3.115   9.386 -0.1368  0.5003 -0.0859
  884TIP3    H126847   4.571   3.042   9.331 -0.9586 -0.1421  1.1300
  884TIP3    H226848   4.522   3.134   9.441  0.6934  1.0102  0.9311
  885TIP3   OH226849   2.209   1.724   9.136  0.2357 -0.0212 -0.3540
  885TIP3    H126850   2.242   1.783   9.069  2.0966 -1.3372 -0.6611
  885TIP3    H226851   2.126   1.691   9.100 -0.1595  1.3290 -0.7525
  886TIP3   OH226852   2.579   6.287  10.361  0.4730  0.0743 -0.0463
  886TIP3    H126853   2.639   6.229  10.409 -0.6337 -1.0538  0.0223
  886TIP3    H226854   2.588   6.260  10.270  1.4630  1.2130 -0.3199
  887TIP3   OH226855   4.424   1.918  11.710 -0.1290  0.2655 -0.2988
  887TIP3    H126856   4.350   1.921  11.770  1.5576  1.9331  1.8563
  887TIP3    H226857   4.451   1.826  11.710 -0.6174  0.0979  0.9362
  888TIP3   OH226858   3.873   0.797  10.098  0.2021  0.6751  0.6132
  888TIP3    H126859   3.808   0.727  10.108 -0.8685  1.1415 -2.1265
  888TIP3    H226860   3.857   0.856  10.172 -1.4748  0.0018  0.8286
  889TIP3   OH226861   6.417   1.181   9.556  0.2564  0.8988  0.4615
  889TIP3    H126862   6.446   1.250   9.496  1.1639  2.5514  2.6597
  889TIP3    H226863   6.374   1.228   9.628 -2.9440 -1.1341  0.0868
  890TIP3   OH226864   1.760   2.806  10.031 -0.2218  0.0685 -0.8620
  890TIP3    H126865   1.695   2.741  10.058  0.8304 -0.5882  0.1895
  890TIP3    H226866   1.713   2.889  10.035 -1.1018 -0.4262 -0.4723
  891TIP3   OH226867   5.325   1.657  11.608 -0.0996 -0.3163 -0.1221
  891TIP3    H126868   5.275   1.623  11.682  1.5782  0.8312  1.6478
  891TIP3    H226869   5.289   1.745  11.594 -0.2939 -0.4643 -0.5872
  892TIP3   OH226870   0.005   3.516   8.164 -0.2467  0.7868  0.1369
  892TIP3    H126871   0.074   3.555   8.217  0.2017  0.3368 -0.1076
  892TIP3    H226872  -0.004   3.426   8.198  0.6086  0.2238 -1.0554
  893TIP3   OH226873   1.293   5.787   9.227  0.0789 -0.3465  0.1189
  893TIP3    H126874   1.334   5.737   9.298 -0.2831 -1.0420 -0.1484
  893TIP3    H226875   1.203   5.801   9.255  0.2651  0.4624  0.3399
  894TIP3   OH226876   5.452   2.342   8.876 -0.4375 -0.0977  0.3579
  894TIP3    H126877   5.401   2.334   8.795 -0.7205  2.0924  0.2621
  894TIP3    H226878   5.401   2.400   8.931  0.2981 -0.6789  1.6970
  895TIP3   OH226879   0.269   0.248  10.268 -0.0733 -0.0845 -0.2407
  895TIP3    H126880   0.299   0.203  10.189 -0.3259 -0.8864  0.1099
  895TIP3    H226881   0.180   0.217  10.281 -0.2424  0.5081  0.0218
  896TIP3   OH226882   2.034   1.067  11.889 -0.1585  0.2177  0.6668
  896TIP3    H126883   1.968   0.998  11.895  1.4946 -1.4437  0.4679
  896TIP3    H226884   2.116   1.025  11.917  1.0032  1.9431  0.0144
  897TIP3   OH226885   2.551   4.937   9.120  0.3890  0.1374 -0.0078
  897TIP3    H126886   2.529   4.845   9.138  0.5297 -0.2002 -1.3931
  897TIP3    H226887   2.633   4.952   9.168  0.7783 -0.7078 -0.3773
  898TIP3   OH226888   3.683   6.142  10.854 -0.2818 -0.6146  0.7594
  898TIP3    H126889   3.647   6.214  10.802  0.6163 -0.6977  0.0039
  898TIP3    H226890   3.732   6.185  10.924 -0.1305 -0.4983  0.5814
  899TIP3   OH226891   0.960   6.069   9.203  0.3333  0.1499  0.5275
  899TIP3    H126892   1.039   6.105   9.245  0.4856  0.2494  0.1637
  899TIP3    H226893   0.992   5.995   9.151  0.0978 -0.1775  0.8505
  900TIP3   OH226894   3.440   3.334  10.251 -0.5252  0.2214 -0.1089
  900TIP3    H126895   3.474   3.358  10.165 -0.2801 -2.9559 -1.0383
  900TIP3    H226896   3.352   3.300  10.234  0.2702 -2.3814  0.4620
  901TIP3   OH226897   5.968   3.511   9.768  0.0408  0.0840 -0.1794
  901TIP3    H126898   5.968   3.540   9.677 -0.3003 -1.2592 -0.6244
  901TIP3    H226899   6.061   3.509   9.793  0.0817  1.3626 -0.1825
  902TIP3   OH226900   1.272   4.383   8.265 -0.1118  0.2743  0.2623
  902TIP3    H126901   1.184   4.372   8.301 -0.3611 -0.2153 -0.4784
  902TIP3    H226902   1.291   4.300   8.221  0.5282  0.5460  0.0079
  903TIP3   OH226903   1.932   1.716   9.076  0.1109 -0.3263  0.2484
  903TIP3    H126904   1.838   1.703   9.084 -0.2799  0.2631 -2.3936
  903TIP3    H226905   1.943   1.811   9.074  0.8218 -0.3815  0.9318
  904TIP3   OH226906   6.277   1.699  10.940  0.4723  0.5321  0.5414
  904TIP3    H126907   6.248   1.642  11.011  2.4393 -1.1502  0.0890
  904TIP3    H226908   6.343   1.755  10.980  0.1287  0.9853  0.4805
  905TIP3   OH226909   5.234   5.028   9.415  0.0114 -0.0593  0.0044
  905TIP3    H126910   5.278   4.975   9.481 -0.5819  0.2244  0.6502
  905TIP3    H226911   5.196   4.965   9.354 -0.9993 -0.4225  0.9610
  906TIP3   OH226912   1.115   3.910  11.118  0.3468 -0.1623  0.4645
  906TIP3    H126913   1.024   3.915  11.148 -0.0753 -1.5535 -0.4509
  906TIP3    H226914   1.122   3.822  11.080  1.8313  0.2467 -0.2728
  907TIP3   OH226915   0.669   4.089  11.587 -0.1389  0.6278 -0.1012
  907TIP3    H126916   0.704   4.144  11.517  1.8240  0.7288  0.8821
  907TIP3    H226917   0.620   4.020  11.542  2.2417 -0.1478 -1.7083
  908TIP3   OH226918   3.644   2.678  11.106 -0.1645  0.2624  0.1051
  908TIP3    H126919   3.687   2.762  11.092 -1.0182  0.7822  0.5426
  908TIP3    H226920   3.708   2.626  11.154  1.5050 -0.3710 -2.5686
  909TIP3   OH226921   2.226   3.681  10.208  0.3539 -0.3526  0.1201
  909TIP3    H126922   2.132   3.698  10.222 -0.1763 -3.6921  1.5715
  909TIP3    H226923   2.266   3.767  10.212 -2.6525  1.2421 -0.7225
  910TIP3   OH226924   6.322   1.393   9.710  0.0835 -0.0783  0.4385
  910TIP3    H126925   6.238   1.437   9.724  0.1615  0.4422 -0.6411
  910TIP3    H226926   6.363   1.441   9.638  1.4467 -0.1374  1.1361
  911TIP3   OH226927   3.326   1.155  11.225 -0.7279 -0.2398  0.0398
  911TIP3    H126928   3.376   1.164  11.144  0.7820  2.6762  1.1413
  911TIP3    H226929   3.253   1.216  11.216 -1.9518 -1.6508 -0.0083
  912TIP3   OH226930   0.636   3.289   9.170  0.3188  0.0629 -0.2975
  912TIP3    H126931   0.690   3.309   9.246 -2.0581  0.0761  1.5093
  912TIP3    H226932   0.558   3.248   9.207 -2.0104  2.2077 -2.4669
  913TIP3   OH226933   1.768   3.154  11.828 -0.0882 -0.8946 -0.0420
  913TIP3    H126934   1.823   3.214  11.878 -0.0891 -1.2220  0.3566
  913TIP3    H226935   1.678   3.175  11.854 -0.1458 -0.5085 -0.5289
  914TIP3   OH226936   4.881   3.912  12.061 -0.0492 -0.4277 -0.4241
  914TIP3    H126937   4.938   3.972  12.012 -0.6102  0.0824 -0.4628
  914TIP3    H226938   4.879   3.949  12.149  0.8407 -1.2623 -0.0332
  915TIP3   OH226939   1.336   5.186  10.935 -0.6897  0.1559  0.0516
  915TIP3    H126940   1.357   5.248  10.866 -0.6832 -1.2145 -1.2416
  915TIP3    H226941   1.404   5.199  11.001  0.0537  0.6419 -0.7855
  916TIP3   OH226942   4.021   1.358  10.546 -0.2663  0.1194 -0.1855
  916TIP3    H126943   4.103   1.350  10.497 -0.5988  1.2330 -0.9775
  916TIP3    H226944   3.953   1.347  10.479 -0.8138 -1.7024  0.6041
  917TIP3   OH226945   1.360   4.305  10.368 -0.4290  0.3817 -0.1470
  917TIP3    H126946   1.432   4.246  10.346  0.1077  0.5991  0.9119
  917TIP3    H226947   1.285   4.271  10.320 -0.1539 -1.1963  0.4689
  918TIP3   OH226948   0.077   6.339  11.605  0.0622  0.1759 -0.0793
  918TIP3    H126949  -0.012   6.332  11.640  0.1859  1.0553  0.4414
  918TIP3    H226950   0.125   6.391  11.670  0.7571  0.3598 -0.7228
  919TIP3   OH226951   4.859   3.500  10.549 -0.5091  0.2074 -0.2815
  919TIP3    H126952   4.768   3.496  10.577 -0.7798  1.3931 -0.9330
  919TIP3    H226953   4.910   3.493  10.630 -1.1951  0.3941  0.1713
  920TIP3   OH226954   5.548   2.084  10.267 -0.3358 -0.5086 -0.0189
  920TIP3    H126955   5.602   2.006  10.275 -0.9698 -1.1792 -1.9157
  920TIP3    H226956   5.459   2.054  10.286 -0.5327 -0.1805 -0.4063
  921TIP3   OH226957   1.247   5.666  11.692  0.0891 -0.0124 -0.1086
  921TIP3    H126958   1.198   5.738  11.651  0.2615  0.6456  0.8139
  921TIP3    H226959   1.328   5.707  11.722 -0.1650 -0.4002  1.1638
  922TIP3   OH226960   5.975   2.706  10.918 -0.2983 -0.4949  0.4988
  922TIP3    H126961   5.930   2.763  10.980 -0.9800  0.1719 -0.5669
  922TIP3    H226962   5.917   2.631  10.907 -0.8181  0.0044 -0.2954
  923TIP3   OH226963   1.569   3.461  12.082  0.0462 -0.5202  0.2261
  923TIP3    H126964   1.652   3.504  12.104 -0.6067  0.1885  1.3904
  923TIP3    H226965   1.509   3.487  12.152 -1.2149 -0.8809 -0.6853
  924TIP3   OH226966   5.061   2.438  10.065  0.0276 -0.0299 -0.6438
  924TIP3    H126967   5.123   2.371  10.037  0.7484 -0.0940  0.9727
  924TIP3    H226968   5.086   2.457  10.156  0.1756  2.7764 -1.1818
  925TIP3   OH226969   4.888   4.199  10.904  0.1070 -0.3519 -0.1280
  925TIP3    H126970   4.982   4.194  10.892  0.0957 -1.1951  0.0872
  925TIP3    H226971   4.871   4.143  10.980 -0.5419 -0.0338 -0.0310
  926TIP3   OH226972   3.507   0.493  10.759 -0.5804 -0.3381 -0.1073
  926TIP3    H126973   3.519   0.441  10.838 -1.5090 -2.4537 -1.2736
  926TIP3    H226974   3.451   0.566  10.786 -0.4941 -0.7708  1.2788
  927TIP3   OH226975   0.405   6.293   9.092  0.3729  0.0431  0.6821
  927TIP3    H126976   0.325   6.247   9.066  0.1976  0.3576  0.6582
  927TIP3    H226977   0.426   6.348   9.016  0.7544 -0.2320  0.5886
  928TIP3   OH226978   3.726   5.496  11.566  0.5598  0.4661 -0.4662
  928TIP3    H126979   3.650   5.486  11.508  0.2865  0.2559 -0.0782
  928TIP3    H226980   3.766   5.409  11.568 -0.4691 -0.0219  1.0678
  929TIP3   OH226981   6.023   2.450   9.415  0.3795  0.1474 -0.0294
  929TIP3    H126982   5.969   2.403   9.352 -0.9034 -0.4461  1.4356
  929TIP3    H226983   6.034   2.389   9.488  3.3031  0.1653 -0.3536
  930TIP3   OH226984   1.247   2.236  11.345  0.4537  0.1313  0.2835
  930TIP3    H126985   1.307   2.307  11.369  1.9859 -1.1133  0.3173
  930TIP3    H226986   1.166   2.256  11.392  1.2311  1.2325  1.2130
  931TIP3   OH226987   4.795   4.989  11.700  0.0611  0.2258 -0.0203
  931TIP3    H126988   4.827   4.998  11.610 -2.3933 -2.4428 -1.3417
  931TIP3    H226989   4.714   5.040  11.701 -1.8718 -2.5532 -0.6351
  932TIP3   OH226990   4.993   5.992  10.928 -0.3822 -0.0522  0.3832
  932TIP3    H126991   5.040   6.075  10.936 -1.5644  0.6854 -0.0420
  932TIP3    H226992   4.955   5.977  11.015  0.5426 -0.6010  0.7018
  933TIP3   OH226993   5.239   2.670  10.035  0.2536  0.1310  0.0169
  933TIP3    H126994   5.180   2.654  10.108 -0.7984  1.1940 -0.5664
  933TIP3    H226995   5.325   2.644  10.067 -0.4479 -1.0087  1.0432
  934TIP3   OH226996   1.964   0.914  11.583 -0.0957  0.0441 -0.1527
  934TIP3    H126997   2.042   0.965  11.563 -0.5674  1.7464  1.9349
  934TIP3    H226998   1.954   0.854  11.510  2.7037  0.3261 -0.8517
  935TIP3   OH226999   5.856   1.484  11.657 -0.3490 -0.1081 -0.1710
  935TIP3    H127000   5.936   1.433  11.665  0.3896  0.9215 -0.8565
  935TIP3    H227001   5.804   1.438  11.591 -0.3473 -0.7797  0.2835
  936TIP3   OH227002   5.445   0.942  12.145 -0.3912  0.5880  0.0589
  936TIP3    H127003   5.364   0.935  12.095  0.6818  0.8398 -1.7973
  936TIP3    H227004   5.452   0.858  12.191 -0.4442 -0.4850 -1.7888
  937TIP3   OH227005   6.642   6.248  12.030 -0.1137  0.0345  0.3269
  937TIP3    H127006   6.560   6.219  12.070 -0.6752 -1.0468 -1.4720
  937TIP3    H227007   6.708   6.236  12.098 -1.2758 -0.1213  1.4554
  938TIP3   OH227008   2.327   2.604  11.079  0.5951  0.2162  0.4553
  938TIP3    H127009   2.319   2.514  11.048 -2.3469 -0.1364  1.8442
  938TIP3    H227010   2.371   2.650  11.009  0.1104 -1.8439 -1.3078
  939TIP3   OH227011   6.256   5.180  10.021  0.3272  0.1267 -0.0048
  939TIP3    H127012   6.308   5.129  10.083  1.8696  2.1947  0.4849
  939TIP3    H227013   6.264   5.270  10.050  0.8537  1.1713 -2.9894
  940TIP3   OH227014   2.514   3.430   9.908 -0.6967  0.6131  0.0310
  940TIP3    H127015   2.583   3.493   9.930 -0.2976 -0.0254  0.6391
  940TIP3    H227016   2.554   3.370   9.846 -0.3740 -0.3546  1.1413
  941TIP3   OH227017   2.964   2.308   9.054 -0.3908 -0.2304  0.4851
  941TIP3    H127018   2.950   2.289   8.961  0.4939 -0.1808  0.3364
  941TIP3    H227019   2.907   2.382   9.072  1.3898  1.5097 -0.6970
  942TIP3   OH227020   2.125   5.272   9.689 -0.3876  0.9379  0.0078
  942TIP3    H127021   2.137   5.269   9.595 -1.5163  0.3764 -0.1311
  942TIP3    H227022   2.140   5.183   9.719 -1.2303  0.8484  0.1932
  943TIP3   OH227023   4.487   1.324  11.828 -0.2829  0.2581 -0.1404
  943TIP3    H127024   4.410   1.287  11.872 -0.8171  2.0094  0.4799
  943TIP3    H227025   4.551   1.337  11.898 -0.1573  0.6041 -0.3144
  944TIP3   OH227026   3.369   5.663  10.289 -0.0192  0.1634 -0.0755
  944TIP3    H127027   3.311   5.737  10.272  1.1670  0.7552 -1.7921
  944TIP3    H227028   3.309   5.588  10.297 -1.0744  0.8246 -1.3504
  945TIP3   OH227029   5.874   1.698   9.835 -0.2175 -0.1108 -0.2904
  945TIP3    H127030   5.905   1.766   9.775 -0.9707  0.8664  0.4092
  945TIP3    H227031   5.951   1.644   9.851  0.4574  0.7164 -0.6753
  946TIP3   OH227032   3.637   4.009  11.983 -0.7196  0.0040 -0.2512
  946TIP3    H127033   3.717   3.978  11.939  0.9923  0.4072  2.3543
  946TIP3    H227034   3.579   3.933  11.983  1.1200 -1.4932  0.9070
  947TIP3   OH227035   4.753   2.131   9.447 -0.5082  0.0274 -0.4051
  947TIP3    H127036   4.834   2.181   9.459  0.0367 -0.5800 -1.4070
  947TIP3    H227037   4.735   2.092   9.532 -0.0597  0.6318 -0.0272
  948TIP3   OH227038   1.450   3.390  11.502  0.0844 -0.9699 -0.5789
  948TIP3    H127039   1.363   3.426  11.486  0.8494  1.3726  0.0710
  948TIP3    H227040   1.490   3.450  11.564  1.9265 -2.3910 -0.2911
  949TIP3   OH227041   5.410   2.999  10.132 -0.3381 -0.1219 -0.7532
  949TIP3    H127042   5.398   3.042  10.048 -1.0883  1.1083 -0.0537
  949TIP3    H227043   5.342   2.932  10.135 -1.4014  0.9260 -0.4819
  950TIP3   OH227044   0.214   3.052   8.353 -0.2215  0.0164 -1.0462
  950TIP3    H127045   0.280   3.024   8.417 -1.6257  3.4956  2.3621
  950TIP3    H227046   0.248   3.022   8.269  3.5555 -1.9882  0.9090
  951TIP3   OH227047   6.296   4.765   9.437  0.0197 -0.1155 -0.5036
  951TIP3    H127048   6.222   4.767   9.497 -0.1330  0.1109 -0.6992
  951TIP3    H227049   6.362   4.821   9.479 -0.3976  0.7249 -0.9477
  952TIP3   OH227050   6.330   2.379   9.226  0.4419 -0.0213  0.9024
  952TIP3    H127051   6.408   2.405   9.178 -0.2769  0.1735 -0.2202
  952TIP3    H227052   6.322   2.285   9.211  0.0712  0.0841  0.3765
  953TIP3   OH227053   1.940   1.101   9.542  0.1699 -0.2576 -0.3318
  953TIP3    H127054   2.018   1.064   9.583 -0.0347  0.1064  0.3954
  953TIP3    H227055   1.918   1.039   9.472  0.9318 -0.5156 -0.3566
  954TIP3   OH227056   3.742   2.711  10.239  0.3258 -0.1979  0.5172
  954TIP3    H127057   3.815   2.749  10.287  1.3574 -1.5084  0.0712
  954TIP3    H227058   3.686   2.673  10.306 -1.3277  2.9561  1.0612
  955TIP3   OH227059   0.528   1.175   9.980 -0.2383 -0.3696  0.2381
  955TIP3    H127060   0.433   1.169   9.978 -0.5813  2.7815  1.0724
  955TIP3    H227061   0.547   1.261   9.943  1.9488  0.7075  3.4235
  956TIP3   OH227062   6.480   2.668   8.382 -0.5719 -0.1585  0.4846
  956TIP3    H127063   6.419   2.724   8.428 -0.0636 -0.7677  1.9700
  956TIP3    H227064   6.432   2.639   8.304 -2.1022 -0.4296  1.4749
  957TIP3   OH227065   5.763   1.795  11.431 -0.0222 -0.2864 -0.1848
  957TIP3    H127066   5.727   1.756  11.511 -1.9072  0.3771 -0.6460
  957TIP3    H227067   5.833   1.736  11.404  0.3792 -0.7426  1.7172
  958TIP3   OH227068   0.267   3.416  10.849 -0.9719  1.2740 -0.1391
  958TIP3    H127069   0.357   3.444  10.830 -0.4230 -1.1276 -1.4818
  958TIP3    H227070   0.252   3.343  10.789 -2.4989 -0.8048  2.5665
  959TIP3   OH227071   0.549   5.674  12.286 -0.6236 -0.2722 -0.4581
  959TIP3    H127072   0.453   5.669  12.278 -0.9785 -0.0992  2.4875
  959TIP3    H227073   0.575   5.585  12.310 -0.2689  0.0478  0.3588
  960TIP3   OH227074   3.444   2.526  10.166 -0.6774  0.0154  0.5526
  960TIP3    H127075   3.406   2.564  10.245  1.1009  0.4183  1.2555
  960TIP3    H227076   3.457   2.600  10.107 -0.8352 -0.0941  0.3802
  961TIP3   OH227077   0.177   4.699  11.096 -0.5985  0.5075  0.5774
  961TIP3    H127078   0.107   4.751  11.135 -0.5305 -0.0596  1.4937
  961TIP3    H227079   0.216   4.652  11.170 -1.7497 -2.1458 -0.3612
  962TIP3   OH227080   3.189   2.374  11.215  0.1812  0.2684 -0.3034
  962TIP3    H127081   3.193   2.313  11.142 -0.1316  0.8039 -0.7717
  962TIP3    H227082   3.248   2.445  11.190 -1.3493  1.3675 -0.8874
  963TIP3   OH227083   2.498   2.842  10.249  0.4232  0.3137  0.4549
  963TIP3    H127084   2.503   2.919  10.192  2.9905  0.0310  0.1845
  963TIP3    H227085   2.409   2.845  10.286 -0.6937  1.5361 -2.0724
  964TIP3   OH227086   4.942   6.415   9.452  0.7194  0.4091  0.0860
  964TIP3    H127087   4.890   6.490   9.483  0.0894 -0.2090  0.5611
  964TIP3    H227088   4.996   6.451   9.381 -1.2473  0.8461 -1.2821
  965TIP3   OH227089   6.032   3.539  11.124 -0.1596 -0.3359  0.3853
  965TIP3    H127090   5.982   3.569  11.048  0.5430 -2.4757 -0.9957
  965TIP3    H227091   6.089   3.612  11.146 -2.0821  1.2300  0.4524
  966TIP3   OH227092   0.095   2.355   8.951  0.5204  0.4783 -0.7658
  966TIP3    H127093   0.037   2.362   9.027  1.4078  1.1994 -0.1283
  966TIP3    H227094   0.111   2.261   8.941  0.2134  0.3632 -0.1976
  967TIP3   OH227095   0.042   2.226  11.034  0.5992  0.4145 -0.1944
  967TIP3    H127096   0.117   2.284  11.019  1.9412 -1.3700 -0.7057
  967TIP3    H227097  -0.005   2.268  11.107  1.2991  2.2985 -0.7513
  968TIP3   OH227098   0.863   4.090  10.372 -0.0082  0.0949  0.3362
  968TIP3    H127099   0.894   4.133  10.452 -1.5587  0.1380  0.9489
  968TIP3    H227100   0.837   4.162  10.314  0.8886  0.0565 -0.1372
  969TIP3   OH227101   6.066   0.530   9.075  0.2955 -0.3474  0.3128
  969TIP3    H127102   6.073   0.626   9.075 -0.3124 -0.2428 -1.9239
  969TIP3    H227103   6.156   0.499   9.088  0.5675  0.5328  0.5932
  970TIP3   OH227104   3.210   3.184  11.056 -0.5868 -0.2602 -0.1601
  970TIP3    H127105   3.237   3.093  11.065 -0.2900 -0.1807 -0.2226
  970TIP3    H227106   3.138   3.182  10.993 -0.9962 -0.5228  0.3144
  971TIP3   OH227107   2.919   2.931  12.040 -0.6711  0.0843  0.1478
  971TIP3    H127108   2.920   2.970  11.952  1.9480  0.9550  0.4746
  971TIP3    H227109   2.827   2.928  12.063 -1.2567  3.4313 -1.1085
  972TIP3   OH227110   3.156   5.861  10.275 -0.1164  0.2029 -0.0209
  972TIP3    H127111   3.088   5.891  10.215 -0.3694 -2.1423 -1.0041
  972TIP3    H227112   3.107   5.828  10.351 -0.1106 -1.2779 -0.6336
  973TIP3   OH227113   6.076   1.691  10.762  0.5020 -0.3164 -0.6331
  973TIP3    H127114   6.154   1.678  10.817 -0.1230  0.1048  0.3722
  973TIP3    H227115   6.047   1.602  10.742 -0.4123 -0.5268  1.4103
  974TIP3   OH227116   3.382   2.243  11.395 -0.0174  0.3261  0.3406
  974TIP3    H127117   3.441   2.170  11.376 -1.5012 -1.3757  1.8696
  974TIP3    H227118   3.321   2.245  11.321  0.8281  0.9425 -0.3647
  975TIP3   OH227119   3.247   6.404  10.213  0.4865 -0.2250 -0.1349
  975TIP3    H127120   3.215   6.441  10.295 -0.7774  0.1597 -0.7662
  975TIP3    H227121   3.202   6.455  10.145  1.9469 -0.1444 -1.0811
  976TIP3   OH227122   5.590   0.871  10.945  0.2081  0.0137  0.1478
  976TIP3    H127123   5.510   0.886  10.997 -0.4120 -1.5855 -0.2752
  976TIP3    H227124   5.653   0.837  11.008 -0.1560 -0.7610  0.1160
  977TIP3   OH227125   3.977   1.129  11.918 -0.4092  0.1326  0.4862
  977TIP3    H127126   3.913   1.176  11.865  0.5581 -0.1193 -0.9623
  977TIP3    H227127   4.040   1.196  11.945  0.7860 -0.2039 -1.3014
  978TIP3   OH227128   0.974   4.544   8.865 -0.0453  0.4300  0.0968
  978TIP3    H127129   0.893   4.593   8.878  1.3110  2.8854 -0.0933
  978TIP3    H227130   0.994   4.556   8.772  0.2888 -0.5693  0.0336
  979TIP3   OH227131   5.864   2.642   9.114  0.0403  0.3732  0.2851
  979TIP3    H127132   5.809   2.585   9.060 -1.2569  2.3093 -0.5606
  979TIP3    H227133   5.806   2.713   9.140  1.2331  0.6207  2.4759
  980TIP3   OH227134   5.743   1.363  11.434  0.4131  0.4041  0.0031
  980TIP3    H127135   5.695   1.282  11.449  0.9425 -0.3738 -2.2295
  980TIP3    H227136   5.717   1.390  11.346  0.1454  2.7697  0.7371
  981TIP3   OH227137   5.655   4.744  11.763  0.1947  0.1312 -0.1145
  981TIP3    H127138   5.708   4.762  11.841 -1.1105 -1.4350  1.2272
  981TIP3    H227139   5.709   4.683  11.712 -0.1081 -1.2338  1.1026
  982TIP3   OH227140   0.702   6.695  12.070 -0.4352 -0.0903  0.5027
  982TIP3    H127141   0.721   6.788  12.064 -0.3028 -0.2086 -1.1679
  982TIP3    H227142   0.772   6.660  12.126  0.5024  0.5365 -0.2549
  983TIP3   OH227143   0.096   1.439  12.019 -0.2326 -0.0671 -0.2880
  983TIP3    H127144   0.105   1.496  12.095 -3.2302  0.8431 -0.4532
  983TIP3    H227145   0.091   1.499  11.944 -0.4139 -0.7286 -0.8231
  984TIP3   OH227146   4.973   0.137  10.541  0.2556 -0.4222  0.2517
  984TIP3    H127147   5.038   0.145  10.472 -1.7455  2.4382 -1.5458
  984TIP3    H227148   4.923   0.059  10.518  0.2226 -0.0513 -1.0217
  985TIP3   OH227149   5.873   1.086  12.170 -0.0466 -0.0399  0.0018
  985TIP3    H127150   5.789   1.122  12.199  0.2253  2.0229 -1.5384
  985TIP3    H227151   5.854   1.043  12.087  0.3019 -0.0516 -0.0766
  986TIP3   OH227152   1.443   5.495  12.187  0.2872  0.5622 -0.1932
  986TIP3    H127153   1.357   5.460  12.166 -0.0086  1.1622 -0.0061
  986TIP3    H227154   1.427   5.586  12.209  0.7921  0.3547  1.1105
  987TIP3   OH227155   0.574   1.077   9.405 -0.2821 -0.0258 -0.0124
  987TIP3    H127156   0.665   1.050   9.392 -0.1196  0.5324 -0.0658
  987TIP3    H227157   0.574   1.171   9.387 -0.4567  0.4081  2.0291
  988TIP3   OH227158   5.833   2.088  11.815 -0.1259  0.0760 -0.4035
  988TIP3    H127159   5.882   2.007  11.801 -1.6120 -0.8138 -0.7026
  988TIP3    H227160   5.746   2.059  11.839 -0.3836  1.6123  0.6362
  989TIP3   OH227161   2.616   4.349  10.932 -0.3862 -0.3635  0.4513
  989TIP3    H127162   2.684   4.285  10.956  0.9471  1.1092  0.7515
  989TIP3    H227163   2.576   4.313  10.853  1.3527 -0.8642 -0.2520
  990TIP3   OH227164   3.815   0.680   9.581  0.3126  0.2809 -0.3248
  990TIP3    H127165   3.779   0.670   9.669  1.1479  0.0945  0.0038
  990TIP3    H227166   3.744   0.720   9.530 -0.4764 -0.3985  0.2140
  991TIP3   OH227167   3.524   2.780  11.891  0.3517  0.3597 -0.0584
  991TIP3    H127168   3.456   2.742  11.947  1.3944 -0.1797  0.8615
  991TIP3    H227169   3.479   2.797  11.808 -0.4857 -1.6448 -0.0779
  992TIP3   OH227170   2.664   6.535  10.417 -0.8017 -0.8624  0.0902
  992TIP3    H127171   2.594   6.583  10.373 -1.2696 -0.1538  1.5259
  992TIP3    H227172   2.633   6.445  10.422 -0.2383 -1.2022 -1.9906
  993TIP3   OH227173   4.741   4.236   9.173  0.5095  0.1682  0.2752
  993TIP3    H127174   4.719   4.147   9.202  0.8984 -0.0517 -0.0887
  993TIP3    H227175   4.754   4.228   9.078  2.2404  0.2533  0.4761
  994TIP3   OH227176   0.170   5.441  12.004 -0.3677 -1.1361  0.4634
  994TIP3    H127177   0.142   5.350  12.004  0.2666 -1.3651 -0.9116
  994TIP3    H227178   0.264   5.436  11.985 -0.3853 -0.1939  0.0948
  995TIP3   OH227179   1.423   3.770  11.306 -0.3611 -0.0820 -0.5960
  995TIP3    H127180   1.510   3.735  11.288 -0.1599  0.9234 -1.7274
  995TIP3    H227181   1.402   3.740  11.394  0.9579 -0.6824 -0.4708
  996TIP3   OH227182   4.351   6.274   9.396  0.1241  0.2131 -0.2508
  996TIP3    H127183   4.282   6.315   9.448 -0.3700  1.2667 -1.6614
  996TIP3    H227184   4.319   6.185   9.379 -0.6086  0.4966 -0.3830
  997TIP3   OH227185   3.612   3.824   8.692 -0.5667  0.6433 -0.0340
  997TIP3    H127186   3.693   3.872   8.675 -0.2840  0.5339  0.9644
  997TIP3    H227187   3.620   3.745   8.638 -0.6186  1.2483 -0.9574
  998TIP3   OH227188   6.519   0.513  11.539  0.1007 -0.6461  0.1499
  998TIP3    H127189   6.527   0.418  11.535 -0.9992 -0.7323 -0.4691
  998TIP3    H227190   6.466   0.530  11.617  0.5048 -0.5294  0.3979
  999TIP3   OH227191   0.961   5.759  10.011  0.2391  0.6860 -0.1331
  999TIP3    H127192   0.946   5.774   9.917  1.4467  1.1904 -0.2702
  999TIP3    H227193   1.054   5.738  10.016  0.1622  0.5868  0.9553
 1000TIP3   OH227194   1.556   0.911  10.489 -0.2118 -0.2330 -0.0507
 1000TIP3    H127195   1.461   0.917  10.480 -0.2677 -0.7755  0.1219
 1000TIP3    H227196   1.585   0.873  10.406 -0.1394 -0.0418 -0.1142
 1001TIP3   OH227197   1.070   0.904  10.253  0.2374  0.2055  0.0837
 1001TIP3    H127198   1.062   0.822  10.205  0.3804  0.0814  0.2732
 1001TIP3    H227199   0.984   0.918  10.293  0.9759 -1.3012  2.4017
 1002TIP3   OH227200   1.155   4.992  11.439  0.3836  0.3357  0.0036
 1002TIP3    H127201   1.110   4.993  11.524 -2.2854  3.4248 -1.2422
 1002TIP3    H227202   1.228   5.053  11.451  0.5307  0.1080  0.2952
 1003TIP3   OH227203   5.989   2.304  11.903 -0.1750  0.4937  0.3957
 1003TIP3    H127204   5.965   2.258  11.984 -2.1982  1.7706  0.5967
 1003TIP3    H227205   5.924   2.275  11.839 -0.5320  1.8488  0.1078
 1004TIP3   OH227206   3.917   0.633  11.944 -0.1471 -0.1426 -0.0534
 1004TIP3    H127207   3.917   0.635  11.848 -0.2211  0.1239 -0.0468
 1004TIP3    H227208   3.824   0.629  11.968 -0.1873  1.0903  0.0355
 1005TIP3   OH227209   1.454   4.320  11.619  0.4528 -0.2117  0.0558
 1005TIP3    H127210   1.405   4.271  11.685  2.5674 -0.3601  1.6034
 1005TIP3    H227211   1.477   4.402  11.663 -2.0877  1.8604 -2.1223
 1006TIP3   OH227212   2.522   1.982  10.201 -0.3337  0.4909  0.2123
 1006TIP3    H127213   2.563   1.962  10.285 -1.0962  2.0096  0.9783
 1006TIP3    H227214   2.594   1.977  10.138 -0.1906 -3.3431  0.4175
 1007TIP3   OH227215   2.196   1.483  11.358  0.1930  0.4883  0.3351
 1007TIP3    H127216   2.173   1.502  11.267 -0.3725 -1.6888 -0.0399
 1007TIP3    H227217   2.194   1.568  11.402  1.8870  1.8265 -1.9512
 1008TIP3   OH227218   2.409   6.403  11.752 -0.1595 -0.1508 -0.2228
 1008TIP3    H127219   2.478   6.375  11.692 -0.4102 -0.9508 -0.1438
 1008TIP3    H227220   2.328   6.370  11.713 -0.5315  0.9046 -0.3903
 1009TIP3   OH227221   0.213   0.692   9.655  0.0710  0.0706 -0.3420
 1009TIP3    H127222   0.125   0.716   9.683  1.3142  2.5102  1.9149
 1009TIP3    H227223   0.207   0.687   9.560 -2.5364 -0.1264 -0.2419
 1010TIP3   OH227224   2.610   0.661   9.745  0.3804  0.1009 -0.7151
 1010TIP3    H127225   2.662   0.657   9.665  2.4427 -1.2961  0.6048
 1010TIP3    H227226   2.655   0.603   9.806  1.4035  4.1612  2.9005
 1011TIP3   OH227227   0.137   2.528  12.063 -0.2980 -0.3607 -0.0084
 1011TIP3    H127228   0.217   2.481  12.089  2.0477  0.0476 -5.1193
 1011TIP3    H227229   0.078   2.460  12.033  1.3262 -0.5632 -3.1926
 1012TIP3   OH227230   0.109   1.760  11.333  0.1573  0.0649 -0.2279
 1012TIP3    H127231   0.110   1.854  11.313  1.1487  0.0126 -0.4860
 1012TIP3    H227232   0.171   1.750  11.405 -0.7564 -0.2542  0.5425
 1013TIP3   OH227233   6.168   4.939  10.779 -0.4152  0.4069 -0.5731
 1013TIP3    H127234   6.149   4.885  10.702  1.1676  0.4567 -1.0214
 1013TIP3    H227235   6.112   5.016  10.769 -0.6510  0.1427 -1.3738
 1014TIP3   OH227236   3.000   1.862   9.840  0.2820 -0.3672 -0.1774
 1014TIP3    H127237   2.912   1.829   9.822 -0.0194  0.6078 -0.4926
 1014TIP3    H227238   3.056   1.816   9.778 -0.1132 -0.3982 -0.5137
 1015TIP3   OH227239   4.476   1.421   8.657  0.3252 -0.6140  0.1297
 1015TIP3    H127240   4.506   1.445   8.744  0.4787  0.3187 -0.1716
 1015TIP3    H227241   4.380   1.421   8.664  0.3398 -2.0947  0.6925
 1016TIP3   OH227242   3.697   3.605   8.833 -0.4851  0.7389 -0.2277
 1016TIP3    H127243   3.769   3.565   8.784  1.0279  1.6694  1.1718
 1016TIP3    H227244   3.678   3.686   8.786  1.0512  1.6957  0.7524
 1017TIP3   OH227245   1.489   4.364  11.328 -0.6926 -0.1650 -0.4612
 1017TIP3    H127246   1.458   4.301  11.264 -0.9748 -0.3652 -0.1331
 1017TIP3    H227247   1.473   4.322  11.413 -0.1594  0.0188 -0.2653
 1018TIP3   OH227248   3.646   0.059  11.553  0.3555 -0.1610 -0.1742
 1018TIP3    H127249   3.671  -0.028  11.522  0.5766  0.2232 -1.1151
 1018TIP3    H227250   3.686   0.067  11.639  0.6309 -0.8569 -0.2371
 1019TIP3   OH227251   4.168   6.187   9.803  0.3162 -0.4383  0.2591
 1019TIP3    H127252   4.074   6.167   9.806 -0.1066  1.3630  0.2201
 1019TIP3    H227253   4.205   6.122   9.744 -1.1959 -0.2016 -1.0241
 1020TIP3   OH227254   3.480   4.992  11.838  0.3734 -0.2421  0.5863
 1020TIP3    H127255   3.498   5.075  11.795 -0.8360  0.4704  1.4128
 1020TIP3    H227256   3.385   4.988  11.843  0.3943 -1.8295  0.2936
 1021TIP3   OH227257   5.900   1.898  10.380  0.2146 -0.0848 -0.0704
 1021TIP3    H127258   5.812   1.920  10.411 -0.3142  0.3337 -1.7628
 1021TIP3    H227259   5.887   1.823  10.323  1.2785 -1.3489  1.2689
 1022TIP3   OH227260   6.481   1.861  11.027 -0.2354  0.0102 -0.6201
 1022TIP3    H127261   6.573   1.840  11.009  0.1680 -0.0472  1.3044
 1022TIP3    H227262   6.472   1.952  11.002  0.6686  0.3388  0.1585
 1023TIP3   OH227263   4.643   4.421   9.887 -0.1982  0.6092  0.5464
 1023TIP3    H127264   4.727   4.408   9.933 -0.1192 -1.5878 -0.1101
 1023TIP3    H227265   4.578   4.424   9.957  0.0563 -1.4694  0.9410
 1024TIP3   OH227266   3.205   4.648   9.258  0.0884  0.1790  0.0467
 1024TIP3    H127267   3.273   4.697   9.304  1.4140 -0.3991 -1.2221
 1024TIP3    H227268   3.237   4.640   9.169 -1.4122 -0.5843 -0.4671
 1025TIP3   OH227269   1.552   4.565   9.337 -0.1297  0.2288  0.4853
 1025TIP3    H127270   1.624   4.508   9.309 -0.3169  0.6136 -0.8427
 1025TIP3    H227271   1.595   4.633   9.389  0.7555  1.3476 -1.5788
 1026TIP3   OH227272   4.436   5.732  11.996 -0.1380 -0.7778 -0.0773
 1026TIP3    H127273   4.464   5.778  11.917  2.8071 -0.1743  1.1631
 1026TIP3    H227274   4.398   5.800  12.052 -1.2298 -1.0082 -0.5154
 1027TIP3   OH227275   2.003   3.647  12.007 -0.2134 -0.5071  0.2729
 1027TIP3    H127276   2.014   3.709  12.079  0.8372 -0.8954  0.4740
 1027TIP3    H227277   1.924   3.676  11.961 -0.4386  0.2245  1.1005
 1028TIP3   OH227278   2.869   4.478   9.212 -0.0586  0.1499  0.5720
 1028TIP3    H127279   2.913   4.481   9.128  0.1307 -1.6177  0.5623
 1028TIP3    H227280   2.781   4.445   9.192 -1.3343  3.2311  0.6407
 1029TIP3   OH227281   2.502   5.442  11.925  0.5736  0.3111  0.5612
 1029TIP3    H127282   2.415   5.481  11.920  0.2010 -0.5997 -0.6318
 1029TIP3    H227283   2.494   5.373  11.991  0.1266 -0.3588 -0.1750
 1030TIP3   OH227284   0.874   4.483  11.043 -0.4299  0.0962 -0.6748
 1030TIP3    H127285   0.912   4.441  11.120 -1.1165 -1.7260 -1.2737
 1030TIP3    H227286   0.796   4.527  11.075  0.9249  2.0165  0.1767
 1031TIP3   OH227287   0.376   5.606  11.094  0.2306  0.0591  0.3984
 1031TIP3    H127288   0.402   5.670  11.161  1.4666  1.0438 -0.9521
 1031TIP3    H227289   0.407   5.643  11.012 -1.3277 -1.0789 -0.7610
 1032TIP3   OH227290   4.095   0.750  10.598 -0.4910  0.1643 -0.0799
 1032TIP3    H127291   4.092   0.832  10.550  1.1564  0.4914  0.3154
 1032TIP3    H227292   4.029   0.695  10.557 -0.1405  0.9470 -1.7617
 1033TIP3   OH227293   6.693   5.566  11.448  0.3003 -0.3086 -0.1849
 1033TIP3    H127294   6.662   5.605  11.529  0.0822 -0.3155 -0.2637
 1033TIP3    H227295   6.614   5.557  11.394  0.5380  0.3232 -0.6556
 1034TIP3   OH227296   5.404   6.251  10.377  0.4668  0.5011  0.0957
 1034TIP3    H127297   5.362   6.224  10.295  0.4117  0.3943  0.1592
 1034TIP3    H227298   5.351   6.324  10.408  0.9205  1.0262 -0.3413
 1035TIP3   OH227299   0.692   3.791  12.204 -0.0125 -0.4583 -0.4468
 1035TIP3    H127300   0.786   3.773  12.198  0.2316  0.7867 -0.4507
 1035TIP3    H227301   0.662   3.789  12.113  0.0981 -0.3660 -0.4850
 1036TIP3   OH227302   6.691   4.727  10.300 -0.3675 -0.0474  0.0952
 1036TIP3    H127303   6.761   4.793  10.301 -0.5385  0.1717 -0.9499
 1036TIP3    H227304   6.737   4.644  10.316  0.1757  0.0718 -0.7554
 1037TIP3   OH227305   3.170   5.521  11.233 -0.0894  0.6268  0.2645
 1037TIP3    H127306   3.115   5.444  11.247  2.0120 -0.7402  1.5536
 1037TIP3    H227307   3.216   5.534  11.317  1.3271  1.8560 -0.6413
 1038TIP3   OH227308   2.824   0.761  11.697  0.2860  0.3804 -0.4548
 1038TIP3    H127309   2.843   0.689  11.636 -0.4898  0.9821 -1.4438
 1038TIP3    H227310   2.881   0.744  11.772 -0.3270 -1.6143 -0.3777
 1039TIP3   OH227311   1.645   4.384  11.078 -0.3335 -0.3466  0.6930
 1039TIP3    H127312   1.550   4.397  11.079 -0.5135 -0.8944 -1.9143
 1039TIP3    H227313   1.666   4.360  11.169 -2.6649 -0.2345  1.3506
 1040TIP3   OH227314   5.720   2.458   9.453  0.0722 -0.1711 -0.8096
 1040TIP3    H127315   5.718   2.392   9.523  1.4134  1.7475  1.1696
 1040TIP3    H227316   5.757   2.412   9.378 -0.5466 -2.0839 -0.0124
 1041TIP3   OH227317   6.225   4.778   9.957 -0.3312  0.0435 -0.4887
 1041TIP3    H127318   6.276   4.702   9.928  0.7870  0.9748 -1.0399
 1041TIP3    H227319   6.266   4.804  10.040  0.1622  0.8316 -0.9650
 1042TIP3   OH227320   4.348   0.240  11.968 -0.3214 -0.1405 -0.0100
 1042TIP3    H127321   4.301   0.284  12.039  0.7198 -0.8312  1.1568
 1042TIP3    H227322   4.284   0.236  11.897 -1.6939 -0.1486  1.1549
 1043TIP3   OH227323   4.840   3.629  12.044  0.4729 -0.0568 -0.3261
 1043TIP3    H127324   4.764   3.587  12.085  0.8126 -0.0006  0.3747
 1043TIP3    H227325   4.823   3.723  12.055  0.2407 -0.0257 -0.9213
 1044TIP3   OH227326   4.617   3.661  10.715  0.2740 -0.3712  0.2035
 1044TIP3    H127327   4.662   3.692  10.636  2.2968 -0.3987  1.2722
 1044TIP3    H227328   4.545   3.608  10.682 -0.5491  1.7419 -1.6278
 1045TIP3   OH227329   3.506   2.083   9.361  0.0036 -0.0592  0.3156
 1045TIP3    H127330   3.421   2.122   9.343 -1.2005 -2.0738  1.2251
 1045TIP3    H227331   3.556   2.152   9.404 -0.7175  1.5197 -1.2446
 1046TIP3   OH227332   5.129   1.556   9.111 -0.1834 -0.2184 -0.9396
 1046TIP3    H127333   5.109   1.482   9.169  3.3161 -1.3160 -0.8504
 1046TIP3    H227334   5.083   1.630   9.149  0.4415 -1.2920  2.2373
 1047TIP3   OH227335   6.138   1.954  11.093  0.4618 -0.0855  0.1636
 1047TIP3    H127336   6.132   1.974  11.187 -1.6093  0.5555 -0.0717
 1047TIP3    H227337   6.089   1.872  11.082  0.3746  0.0409 -0.4218
 1048TIP3   OH227338   1.971   3.658   9.066  0.6343 -0.1781  0.0056
 1048TIP3    H127339   1.988   3.568   9.094  1.7486  0.1541  0.4556
 1048TIP3    H227340   2.019   3.666   8.983 -0.3300 -0.3073 -0.5744
 1049TIP3   OH227341   1.858   4.992  11.127  0.2057  0.4181 -0.2524
 1049TIP3    H127342   1.953   4.999  11.137  0.2667  0.6948 -1.0070
 1049TIP3    H227343   1.837   4.905  11.160  0.9989 -0.4876 -2.0161
 1050TIP3   OH227344   3.024   1.689  10.037 -0.0836 -0.0602 -0.1060
 1050TIP3    H127345   3.031   1.775   9.995 -1.7035  0.8562  1.3706
 1050TIP3    H227346   2.931   1.680  10.059  0.4072 -1.2430  1.6915
 1051TIP3   OH227347   3.110   0.593   9.728  0.2590 -0.2866 -0.4215
 1051TIP3    H127348   3.118   0.641   9.646  0.1688 -0.4561 -0.5291
 1051TIP3    H227349   3.027   0.547   9.721 -2.1215  3.2403  1.6222
 1052TIP3   OH227350   2.738   4.082  12.147  0.8827 -0.4378  0.5963
 1052TIP3    H127351   2.719   4.005  12.201 -3.1513  0.9377  1.4909
 1052TIP3    H227352   2.671   4.081  12.079  1.1779  1.8735  0.1961
 1053TIP3   OH227353   1.275   4.911   9.093  0.0930 -0.6763 -0.3129
 1053TIP3    H127354   1.296   4.839   9.152 -1.8628 -2.2099 -1.3961
 1053TIP3    H227355   1.357   4.927   9.045  0.6021 -2.0870  0.0389
 1054TIP3   OH227356   0.847   3.076   9.323 -0.4620  0.3581  0.5251
 1054TIP3    H127357   0.812   3.111   9.241 -2.3216 -0.8717  0.7563
 1054TIP3    H227358   0.887   2.993   9.299 -1.0583 -0.0306  0.8644
 1055TIP3   OH227359   4.117   1.707   9.956  0.1186 -0.4898 -0.0490
 1055TIP3    H127360   4.108   1.802   9.963  1.3054 -0.4431  1.3349
 1055TIP3    H227361   4.028   1.673   9.963 -0.2243  0.4785  0.3969
 1056TIP3   OH227362   2.933   1.210  12.022  0.0661  0.3977 -0.6569
 1056TIP3    H127363   2.892   1.209  12.109  0.8723 -0.4141 -0.2654
 1056TIP3    H227364   2.976   1.125  12.015  0.1204  0.5019 -1.8116
 1057TIP3   OH227365   1.704   6.099  11.629  0.1057  0.8199  0.6965
 1057TIP3    H127366   1.619   6.067  11.599  0.9756 -0.5883 -0.4019
 1057TIP3    H227367   1.758   6.102  11.550  1.6378 -0.2464  1.6501
 1058TIP3   OH227368   3.900   1.567   9.051  0.5881 -0.2245  0.3917
 1058TIP3    H127369   3.973   1.604   9.100 -0.3752  1.7708  0.4150
 1058TIP3    H227370   3.822   1.604   9.091 -0.3763 -0.9888 -0.6892
 1059TIP3   OH227371   1.634   1.658  11.593  0.8190 -0.4128 -0.3963
 1059TIP3    H127372   1.541   1.668  11.570  0.6918  0.6644  0.5187
 1059TIP3    H227373   1.634   1.633  11.685  1.4552  1.1054  0.0470
 1060TIP3   OH227374   0.746   2.292  11.657 -0.4158 -0.5468 -0.1432
 1060TIP3    H127375   0.715   2.218  11.709  0.2428  1.2450  3.0701
 1060TIP3    H227376   0.676   2.308  11.594 -1.9138 -2.0067  1.0685
 1061TIP3   OH227377   0.994   1.980   9.575 -0.5107  0.2587 -0.1783
 1061TIP3    H127378   0.951   2.007   9.493 -0.3361  2.4583  0.3963
 1061TIP3    H227379   1.087   1.992   9.558 -0.5089  1.2733  0.5132
 1062TIP3   OH227380   0.564   3.530  10.519  0.6273  0.1588 -0.2944
 1062TIP3    H127381   0.493   3.473  10.546 -1.5764  3.1197  0.6434
 1062TIP3    H227382   0.560   3.530  10.423 -0.7119  0.3022 -0.2550
 1063TIP3   OH227383   0.437   0.533  10.835  0.2070 -0.5117  0.3366
 1063TIP3    H127384   0.506   0.583  10.790  1.7185 -1.4318  1.5366
 1063TIP3    H227385   0.366   0.597  10.848  1.2402  0.7563 -0.0194
 1064TIP3   OH227386   1.425   0.142  11.594  0.3162  0.9365 -0.0514
 1064TIP3    H127387   1.374   0.121  11.516 -0.1015  2.7509 -0.3185
 1064TIP3    H227388   1.393   0.082  11.661  2.0072 -1.9944 -1.6658
 1065TIP3   OH227389   3.501   0.788  10.285  0.3812  0.1478  0.1969
 1065TIP3    H127390   3.555   0.731  10.229 -2.1611 -2.2697 -0.0029
 1065TIP3    H227391   3.530   0.768  10.374  1.7753  1.1124 -0.0064
 1066TIP3   OH227392   3.442   2.495  11.446  0.1512  0.3936  0.1342
 1066TIP3    H127393   3.348   2.513  11.447  0.1698  0.4713  0.7787
 1066TIP3    H227394   3.451   2.420  11.388 -0.1744  1.1049 -0.8765
 1067TIP3   OH227395   2.196   0.523  10.745  0.0534  0.2482 -0.0447
 1067TIP3    H127396   2.192   0.450  10.806  0.1036  0.8347  0.6745
 1067TIP3    H227397   2.124   0.580  10.772  0.4924  0.8353 -0.1052
 1068TIP3   OH227398   0.689   2.646  10.838 -0.1737  0.0678 -0.2185
 1068TIP3    H127399   0.722   2.729  10.871  2.7380 -0.7565 -0.7581
 1068TIP3    H227400   0.618   2.669  10.779 -0.8356  1.9828  1.2272
 1069TIP3   OH227401   5.294   4.357  11.782 -0.5457 -0.2183  0.1528
 1069TIP3    H127402   5.333   4.444  11.779 -0.0940 -0.3661  1.3922
 1069TIP3    H227403   5.204   4.372  11.812 -0.4374 -0.1880  0.4623
 1070TIP3   OH227404   1.749   2.650   9.508 -0.0181 -0.0824  0.1826
 1070TIP3    H127405   1.808   2.672   9.437  0.9753  0.1103  1.0452
 1070TIP3    H227406   1.800   2.594   9.566 -0.8682 -0.3884  0.6598
 1071TIP3   OH227407   5.323   0.134   9.954 -0.3814 -0.3851  0.4939
 1071TIP3    H127408   5.238   0.178   9.949 -0.2874 -0.2416  0.0936
 1071TIP3    H227409   5.373   0.187  10.016  0.3752  1.2249 -1.3607
 1072TIP3   OH227410   3.370   0.020  11.725 -0.5035 -0.4350  0.3760
 1072TIP3    H127411   3.422   0.024  11.645 -1.2571  1.1867 -0.0813
 1072TIP3    H227412   3.424   0.063  11.791 -1.2858  1.5206 -0.1683
 1073TIP3   OH227413   2.562   4.205  11.328 -0.4484 -0.0965  0.0793
 1073TIP3    H127414   2.495   4.213  11.395  0.1997  0.4005  0.6783
 1073TIP3    H227415   2.551   4.116  11.294  0.2423 -0.9380  1.9451
 1074TIP3   OH227416   2.798   3.551   9.348  0.2215 -0.6035  0.5121
 1074TIP3    H127417   2.722   3.575   9.294 -0.3209 -2.6661  0.2833
 1074TIP3    H227418   2.866   3.614   9.323 -0.2846 -0.9580 -1.9921
 1075TIP3   OH227419   1.999   6.356  10.686  0.8220 -0.0230 -0.0016
 1075TIP3    H127420   2.045   6.281  10.648 -1.5644 -0.3503 -2.5679
 1075TIP3    H227421   1.991   6.418  10.612  0.3116  1.5675  1.3285
 1076TIP3   OH227422   3.181   5.906  11.704 -0.1100 -0.5148 -0.2001
 1076TIP3    H127423   3.152   5.826  11.660 -0.8477  0.4685 -1.5835
 1076TIP3    H227424   3.173   5.887  11.798 -2.6451 -1.2521 -0.4991
 1077TIP3   OH227425   5.936   5.525   9.423 -0.5832  0.1476  0.2134
 1077TIP3    H127426   5.935   5.442   9.469  0.4609 -0.0167 -0.0289
 1077TIP3    H227427   5.852   5.566   9.444 -1.8562 -1.6720 -0.9629
 1078TIP3   OH227428   1.432   1.567  11.033 -0.0150  0.1720 -0.3899
 1078TIP3    H127429   1.405   1.489  11.080 -1.9771  1.5550  0.9443
 1078TIP3    H227430   1.495   1.610  11.091 -0.7268  0.7547 -0.0468
 1079TIP3   OH227431   6.642   4.206  12.180 -0.0988 -0.3280  0.1596
 1079TIP3    H127432   6.690   4.151  12.118  0.6906 -2.1233  2.2391
 1079TIP3    H227433   6.600   4.144  12.240 -1.9655  1.2928  0.6449
 1080TIP3   OH227434   3.445   1.140  10.992  0.0479  0.6388  0.1485
 1080TIP3    H127435   3.526   1.176  10.955  0.5859  0.1937  0.8772
 1080TIP3    H227436   3.383   1.139  10.918  0.0098  3.0044  0.0651
 1081TIP3   OH227437   3.259   1.465   9.576 -0.3007  0.4814 -0.1023
 1081TIP3    H127438   3.286   1.417   9.655 -0.8301  0.5360  0.1128
 1081TIP3    H227439   3.190   1.411   9.538 -1.0755  1.1856  0.2750
 1082TIP3   OH227440   5.037   0.790  11.334 -0.6686 -0.0653 -0.2204
 1082TIP3    H127441   5.079   0.714  11.374 -2.6532 -0.7577  0.6793
 1082TIP3    H227442   5.036   0.856  11.404  0.5168  0.6263 -0.8168
 1083TIP3   OH227443   6.402   5.495  10.827  0.3675 -0.1603  0.4576
 1083TIP3    H127444   6.421   5.566  10.889  1.3250  0.8404 -0.9368
 1083TIP3    H227445   6.384   5.419  10.883 -0.5098  1.1088  1.9811
 1084TIP3   OH227446   0.897   4.351   9.867  0.1929 -0.1188 -0.3813
 1084TIP3    H127447   0.964   4.314   9.925  0.9829 -0.7454 -1.6400
 1084TIP3    H227448   0.917   4.444   9.863  0.6648 -0.2137 -0.3085
 1085TIP3   OH227449   2.201   6.099  10.996  0.4056  0.1893 -0.3225
 1085TIP3    H127450   2.238   6.182  11.027  0.0608 -0.0773  0.8741
 1085TIP3    H227451   2.277   6.046  10.972  0.6026  1.1426 -1.9643
 1086TIP3   OH227452   4.865   1.398  11.608  0.7659  0.4088 -0.3541
 1086TIP3    H127453   4.912   1.457  11.549  3.2122 -0.6739  0.4268
 1086TIP3    H227454   4.832   1.328  11.550  1.8468  0.1435 -0.6648
 1087TIP3   OH227455   1.469   2.027   8.637  0.6735 -0.0829 -0.1983
 1087TIP3    H127456   1.399   2.086   8.664  1.1377  1.2030 -1.6321
 1087TIP3    H227457   1.550   2.076   8.656  1.1303 -0.9771  0.1862
 1088TIP3   OH227458   2.757   3.601  10.194  0.6283 -0.7154 -0.1095
 1088TIP3    H127459   2.778   3.563  10.109 -0.2817 -0.0510 -0.6548
 1088TIP3    H227460   2.728   3.690  10.173  2.1420  0.0853  1.0697
 1089TIP3   OH227461   3.059   2.157   9.798  0.2673  0.1267 -0.3295
 1089TIP3    H127462   3.021   2.072   9.821  1.2725 -0.2635 -0.0447
 1089TIP3    H227463   3.150   2.151   9.827  0.5568  1.0214 -1.0031
 1090TIP3   OH227464   3.758   5.864  10.050 -0.2670  0.4370 -0.0890
 1090TIP3    H127465   3.748   5.872  10.144 -0.9489  0.3875 -0.1535
 1090TIP3    H227466   3.840   5.816  10.038 -1.0199 -1.0537  0.5194
 1091TIP3   OH227467   2.958   1.551   9.467 -0.2974 -0.1695 -0.1976
 1091TIP3    H127468   2.898   1.499   9.414 -1.1983  3.1516 -2.8004
 1091TIP3    H227469   2.907   1.574   9.545 -0.0023 -2.6729  0.8196
 1092TIP3   OH227470   0.916   0.967   9.968 -0.2360 -0.2293  0.8452
 1092TIP3    H127471   0.828   0.933   9.957 -0.3277  0.1671  0.2828
 1092TIP3    H227472   0.904   1.058   9.995 -0.0013 -0.0716  0.4277
 1093TIP3   OH227473   4.700   4.219  10.335 -0.3768  0.5358  0.7345
 1093TIP3    H127474   4.685   4.176  10.420 -0.5559  0.1311  0.4991
 1093TIP3    H227475   4.635   4.289  10.333  0.6088  1.5249  1.5853
 1094TIP3   OH227476   0.084   3.365  11.855 -0.0898  0.0433 -0.0501
 1094TIP3    H127477   0.030   3.427  11.904 -2.0364 -0.4545 -1.4672
 1094TIP3    H227478   0.022   3.302  11.818  1.4640 -0.6391 -1.6527
 1095TIP3   OH227479   2.405   0.819  11.665  0.1634  0.6753 -0.2213
 1095TIP3    H127480   2.418   0.905  11.624 -0.0910  1.2195  0.8067
 1095TIP3    H227481   2.484   0.806  11.718 -0.1315  0.6284  0.2163
 1096TIP3   OH227482   1.352   0.201  10.523 -0.0209  0.4621 -0.0720
 1096TIP3    H127483   1.404   0.140  10.469 -0.3876  0.8108 -0.8357
 1096TIP3    H227484   1.380   0.288  10.495  0.2309  0.6568  0.7553
 1097TIP3   OH227485   0.716   4.146   9.817  0.1222  0.6237  0.1885
 1097TIP3    H127486   0.767   4.065   9.817  0.4748  0.7955  2.2736
 1097TIP3    H227487   0.782   4.216   9.815 -0.1621  0.8794 -0.8362
 1098TIP3   OH227488   3.530   1.730  10.651  0.0672 -0.1883 -0.5758
 1098TIP3    H127489   3.444   1.772  10.656  0.8448  1.6401 -1.6147
 1098TIP3    H227490   3.532   1.688  10.566  0.7497  1.1873 -1.2845
 1099TIP3   OH227491   3.847   0.374  10.968  0.1405 -0.1311 -0.0600
 1099TIP3    H127492   3.865   0.335  11.053  0.8627  0.7434  0.2026
 1099TIP3    H227493   3.776   0.436  10.985  0.0717 -0.1823 -0.1584
 1100TIP3   OH227494   1.850   1.255   8.763 -0.3573 -0.2354  0.9944
 1100TIP3    H127495   1.878   1.167   8.787 -0.0676 -0.7529 -1.1140
 1100TIP3    H227496   1.754   1.251   8.764 -0.3434 -0.6006  0.7864
 1101TIP3   OH227497   6.335   5.913  10.601  0.1498 -0.0755  0.2897
 1101TIP3    H127498   6.417   5.963  10.604  0.6275 -0.8685  1.3633
 1101TIP3    H227499   6.325   5.888  10.510  1.5564 -0.6512  0.2703
 1102TIP3   OH227500   6.238   1.603   9.272  0.3997  0.1205  0.1094
 1102TIP3    H127501   6.232   1.650   9.356  1.9804  0.2109  0.2041
 1102TIP3    H227502   6.173   1.645   9.216 -0.4702  0.2614  1.1901
 1103TIP3   OH227503   3.487   2.304  10.987 -0.4475 -0.3558 -0.1120
 1103TIP3    H127504   3.508   2.336  11.075 -0.6216 -1.6829  0.4433
 1103TIP3    H227505   3.533   2.220  10.981  1.3487  0.6885 -2.1267
 1104TIP3   OH227506   3.377   2.770  11.667  0.8471 -0.1368  0.6890
 1104TIP3    H127507   3.402   2.805  11.581 -0.4224  2.6239  1.3142
 1104TIP3    H227508   3.350   2.680  11.650  1.0196  0.2033 -1.7239
 1105TIP3   OH227509   0.142   5.637  10.829 -0.5540 -0.1904  0.3671
 1105TIP3    H127510   0.080   5.589  10.774 -0.9029  1.2511 -0.5674
 1105TIP3    H227511   0.127   5.604  10.917 -3.1384  0.5531  0.2740
 1106TIP3   OH227512   0.747   5.278  11.219 -0.0568  0.7832 -0.7396
 1106TIP3    H127513   0.766   5.358  11.269 -0.4396  0.7663 -0.5635
 1106TIP3    H227514   0.678   5.235  11.268 -1.3684  1.4104 -1.9393
 1107TIP3   OH227515   1.605   6.616  11.284  0.2556 -0.7098 -0.0237
 1107TIP3    H127516   1.643   6.529  11.294  0.8176 -0.4874 -0.2089
 1107TIP3    H227517   1.629   6.662  11.364 -1.3018 -1.1689  0.7724
 1108TIP3   OH227518   0.954   4.169   8.383  0.3225 -0.0308 -0.3653
 1108TIP3    H127519   0.955   4.127   8.469  0.5911 -0.1473 -0.4246
 1108TIP3    H227520   1.012   4.244   8.392  1.8956 -1.1270 -0.9823
 1109TIP3   OH227521   3.350   1.067   9.277  0.5993 -0.6878 -0.2452
 1109TIP3    H127522   3.278   1.048   9.337  0.5484  1.4827  0.4428
 1109TIP3    H227523   3.344   0.998   9.210 -1.3739 -1.2249  0.4210
 1110TIP3   OH227524   1.298   0.866  10.403  0.2858  0.1537 -0.2088
 1110TIP3    H127525   1.324   0.782  10.366  0.3778  0.7113 -1.4890
 1110TIP3    H227526   1.225   0.895  10.348 -0.7571  0.2271  1.1636
 1111TIP3   OH227527   6.598   4.678  10.967 -0.3371  0.2871  0.1472
 1111TIP3    H127528   6.641   4.649  11.047 -0.3865  0.1083  0.1079
 1111TIP3    H227529   6.618   4.772  10.963  2.4532 -0.2491 -1.3075
 1112TIP3   OH227530   0.164   6.698  10.599  0.0177  0.2917  0.3018
 1112TIP3    H127531   0.083   6.702  10.648 -0.1544  0.9043 -0.0250
 1112TIP3    H227532   0.231   6.730  10.659  0.1640 -0.9640  0.8437
 1113TIP3   OH227533   3.742   6.511  11.457 -0.1563  0.1879  0.6706
 1113TIP3    H127534   3.800   6.539  11.386 -0.1330  0.7711  0.9131
 1113TIP3    H227535   3.800   6.492  11.530 -0.1124 -1.1955  0.3018
 1114TIP3   OH227536   6.379   5.244   9.507 -0.1534  0.6170  0.6910
 1114TIP3    H127537   6.378   5.208   9.596  1.3645 -0.8227  0.1788
 1114TIP3    H227538   6.350   5.171   9.452  0.1080  1.1093 -0.1135
 1115TIP3   OH227539   3.408   0.476  10.337 -0.6255 -0.2951  0.0421
 1115TIP3    H127540   3.352   0.451  10.264 -1.0859  1.2301 -0.1728
 1115TIP3    H227541   3.352   0.532  10.392  0.2595  0.0915  0.5757
 1116TIP3   OH227542   3.473   0.554  11.906  0.2511  0.0247 -0.4192
 1116TIP3    H127543   3.496   0.594  11.822 -0.6868  1.9393  0.1810
 1116TIP3    H227544   3.557   0.531  11.945  0.9782  2.7140 -0.2216
 1117TIP3   OH227545   0.739   1.632  11.055 -0.2651  0.7658  0.4870
 1117TIP3    H127546   0.774   1.656  11.141  0.5311  1.9499 -0.1431
 1117TIP3    H227547   0.645   1.652  11.061 -0.0003  2.0580  0.7001
 1118TIP3   OH227548   4.926   1.794   9.063 -0.1346  0.4183  0.6677
 1118TIP3    H127549   4.844   1.844   9.061 -0.8682 -0.7678 -0.4476
 1118TIP3    H227550   4.949   1.781   8.971  0.7249 -0.1990  0.9523
 1119TIP3   OH227551   5.656   0.149  10.287  0.9169  0.4287 -0.7669
 1119TIP3    H127552   5.687   0.135  10.377 -3.3424 -0.5321  0.7958
 1119TIP3    H227553   5.636   0.061  10.255  1.1519  0.8766 -2.1962
 1120TIP3   OH227554   2.751   0.579  10.421 -0.0966 -0.0671  0.0617
 1120TIP3    H127555   2.842   0.596  10.447 -0.5526  1.6762  0.6869
 1120TIP3    H227556   2.722   0.511  10.481  0.4215  0.2835  0.7277
 1121TIP3   OH227557   3.362   6.422   8.982 -0.6525 -0.0662 -0.3295
 1121TIP3    H127558   3.360   6.492   8.916 -0.4701  1.5113  1.2624
 1121TIP3    H227559   3.440   6.441   9.034 -1.0952 -0.9324  0.6774
 1122TIP3   OH227560   6.154   5.168   8.938 -0.5350  0.4432  0.4949
 1122TIP3    H127561   6.069   5.168   8.981 -0.0718 -1.0690  1.4824
 1122TIP3    H227562   6.142   5.111   8.862 -0.0671 -0.9594  1.4330
 1123TIP3   OH227563   4.682   3.731  11.546  0.2165  0.2345 -0.0970
 1123TIP3    H127564   4.745   3.711  11.477 -0.0045  1.0348 -0.5464
 1123TIP3    H227565   4.709   3.678  11.621  0.1344 -1.0876 -0.9744
 1124TIP3   OH227566   3.775   1.764   8.766  0.1111  0.2470 -0.1951
 1124TIP3    H127567   3.820   1.766   8.850 -0.2127 -0.4338  0.0073
 1124TIP3    H227568   3.738   1.852   8.755 -3.7306 -0.7631  2.5560
 1125TIP3   OH227569   4.568   4.092  11.016  0.2788  0.4975  0.0521
 1125TIP3    H127570   4.581   4.008  10.972 -0.0073 -0.2338  1.2998
 1125TIP3    H227571   4.657   4.127  11.026  0.4799 -0.0526  0.2566
 1126TIP3   OH227572   1.749   0.751  10.007  0.1516 -0.5355 -0.0269
 1126TIP3    H127573   1.776   0.816   9.942 -0.2640 -0.0489  0.2820
 1126TIP3    H227574   1.746   0.669   9.958  2.0988 -0.6190 -0.1038
 1127TIP3   OH227575   0.884   0.112   9.344 -0.4461  0.1741  0.1135
 1127TIP3    H127576   0.965   0.161   9.334 -0.0058 -0.8000 -1.3503
 1127TIP3    H227577   0.888   0.077   9.433  0.2548  0.9481  0.4000
 1128TIP3   OH227578   2.929   2.142   8.165 -0.4469  0.1941 -0.0191
 1128TIP3    H127579   2.985   2.166   8.092 -1.2106 -0.5482 -0.8744
 1128TIP3    H227580   2.989   2.128   8.238  0.2763  1.4620 -0.3488
 1129TIP3   OH227581   5.151   1.578  10.399 -0.0891  0.0098 -0.1511
 1129TIP3    H127582   5.126   1.486  10.412 -0.9712  0.4524  1.5718
 1129TIP3    H227583   5.068   1.626  10.399  0.4483  0.9659  0.3918
 1130TIP3   OH227584   4.126   1.147   8.461  0.3193 -0.7446 -0.1467
 1130TIP3    H127585   4.197   1.137   8.524 -1.2417 -0.7793  1.7198
 1130TIP3    H227586   4.141   1.232   8.421  0.6595 -0.1122  1.2528
 1131TIP3   OH227587   4.949   2.664   9.524  0.0982  0.2963  0.1790
 1131TIP3    H127588   4.897   2.744   9.530 -1.2042 -0.5203  0.1295
 1131TIP3    H227589   5.038   2.692   9.542 -0.3792  1.7072  0.4554
 1132TIP3   OH227590   1.541   1.877   9.501 -0.2674 -0.4604 -0.2108
 1132TIP3    H127591   1.551   1.966   9.466 -0.3078 -0.3476  0.0626
 1132TIP3    H227592   1.608   1.870   9.568 -2.1238  0.4028  1.8405
 1133TIP3   OH227593   2.653   3.075   9.450 -0.1186  0.5318 -0.0312
 1133TIP3    H127594   2.723   3.019   9.415 -1.2199 -0.4325 -0.7372
 1133TIP3    H227595   2.638   3.041   9.538  1.1223  1.5430  0.6147
 1134TIP3   OH227596   5.158   2.837  10.267 -0.1242 -0.4752  0.2146
 1134TIP3    H127597   5.096   2.804  10.202  0.4258  0.7027 -0.9601
 1134TIP3    H227598   5.111   2.832  10.350 -1.1407 -1.2643 -0.3823
 1135TIP3   OH227599   5.016   4.081   9.491  0.2041  0.4383  0.0622
 1135TIP3    H127600   5.093   4.099   9.545 -0.4658  0.8620  0.9044
 1135TIP3    H227601   4.991   4.167   9.455  1.0078  0.0755 -1.4658
 1136TIP3   OH227602   0.895   3.253  10.575  0.2225 -0.4965  0.2147
 1136TIP3    H127603   0.907   3.335  10.623 -1.4461 -0.1204  0.0459
 1136TIP3    H227604   0.857   3.279  10.491  0.6294 -1.3635 -0.2576
 1137TIP3   OH227605   4.003   0.379  11.980  0.4071  0.0353 -0.0476
 1137TIP3    H127606   4.089   0.393  12.018 -0.3815  1.4033  1.3148
 1137TIP3    H227607   3.974   0.466  11.952 -1.5555  0.0730  1.8280
 1138TIP3   OH227608   3.870   3.859   8.642  0.5346 -1.0638  0.4897
 1138TIP3    H127609   3.913   3.941   8.668  0.1182 -1.1521  1.5074
 1138TIP3    H227610   3.900   3.844   8.553  0.3969  0.3515  0.1840
 1139TIP3   OH227611   3.087   3.936  10.178  0.3483 -0.7030 -0.0907
 1139TIP3    H127612   2.994   3.948  10.155  0.5247 -0.9884 -1.0051
 1139TIP3    H227613   3.092   3.845  10.208  0.1752 -0.4221  0.8138
 1140TIP3   OH227614   1.697   1.538   9.524  0.1476 -0.3712  0.1993
 1140TIP3    H127615   1.622   1.539   9.465 -0.0607 -1.7575  0.3995
 1140TIP3    H227616   1.706   1.446   9.550  2.3433 -0.3568 -0.3459
 1141TIP3   OH227617   2.207   2.533   9.942  0.1723 -0.3355  0.0804
 1141TIP3    H127618   2.188   2.440   9.930 -1.6756  0.0746 -0.4528
 1141TIP3    H227619   2.125   2.570   9.975  0.5654  1.2902 -0.6834
 1142TIP3   OH227620   0.240   3.534  10.164  0.4776 -1.0263 -0.2772
 1142TIP3    H127621   0.157   3.572  10.192  0.7179  1.2944 -2.4452
 1142TIP3    H227622   0.307   3.585  10.210  0.7837  1.0512 -2.8126
 1143TIP3   OH227623   5.198   0.620  12.084  0.1237  0.0456  0.2483
 1143TIP3    H127624   5.155   0.548  12.038  0.9459  0.0955 -0.6257
 1143TIP3    H227625   5.126   0.669  12.125 -0.7916  0.6910 -1.9524
 1144TIP3   OH227626   6.607   2.045  12.343  0.1741 -0.4092 -0.2481
 1144TIP3    H127627   6.697   2.012  12.352 -0.2761 -1.2575  1.8380
 1144TIP3    H227628   6.552   1.968  12.355 -0.8497  0.4497  0.9785
 1145TIP3   OH227629   6.166   1.238   9.260 -0.8181  0.2987  0.0920
 1145TIP3    H127630   6.215   1.305   9.212 -1.5905 -0.1514 -1.3866
 1145TIP3    H227631   6.175   1.159   9.208 -2.4482  0.0098  0.1872
 1146TIP3   OH227632   1.906   1.441   9.059  0.0743 -0.1487 -0.4993
 1146TIP3    H127633   1.855   1.418   8.981 -0.6328  0.1664 -0.1447
 1146TIP3    H227634   1.910   1.537   9.057  0.0589 -0.1392 -0.1543
 1147TIP3   OH227635   2.166   0.948  10.354  0.2636 -0.2709 -0.8016
 1147TIP3    H127636   2.156   0.948  10.449 -1.2720  1.1129 -0.9083
 1147TIP3    H227637   2.245   0.999  10.337 -0.3339  0.8570 -0.2895
 1148TIP3   OH227638   0.249   5.805  11.913 -0.4058  0.7281 -0.4595
 1148TIP3    H127639   0.183   5.743  11.883 -0.6550  0.7754 -0.0163
 1148TIP3    H227640   0.308   5.815  11.839 -0.4457  0.0717 -0.5841
 1149TIP3   OH227641   3.407   3.838  10.962 -0.1522  0.1839  0.1130
 1149TIP3    H127642   3.341   3.838  11.030 -1.2584  1.5767 -0.9099
 1149TIP3    H227643   3.423   3.745  10.944 -0.9696 -0.1736  1.1633
 1150TIP3   OH227644   3.024   5.118  11.044  0.2937  0.2108  0.4861
 1150TIP3    H127645   2.941   5.136  10.999  0.5046 -0.2401 -0.0882
 1150TIP3    H227646   3.010   5.153  11.133  0.3243  2.2985 -0.2616
 1151TIP3   OH227647   1.571   1.622  12.106  0.0504 -0.5487  0.4443
 1151TIP3    H127648   1.513   1.561  12.151  0.4596  0.4216  2.4156
 1151TIP3    H227649   1.577   1.697  12.166  1.1420  0.5517 -0.9792
 1152TIP3   OH227650   0.291   6.446  10.440 -0.2637  0.0180 -0.5115
 1152TIP3    H127651   0.205   6.472  10.407 -0.8834 -0.3856  0.7113
 1152TIP3    H227652   0.275   6.365  10.488  0.5682  0.5892  0.8018
 1153TIP3   OH227653   0.827   4.288  12.227  0.5772 -0.2042 -0.3468
 1153TIP3    H127654   0.809   4.235  12.304  1.5686 -0.9418 -0.5948
 1153TIP3    H227655   0.762   4.358  12.229 -1.6126 -2.0938 -0.6478
 1154TIP3   OH227656   5.546   1.304   9.670 -0.3901 -0.5087  0.2918
 1154TIP3    H127657   5.529   1.320   9.577 -0.5606  0.3692  0.4679
 1154TIP3    H227658   5.479   1.240   9.696 -1.5734  0.6940  0.2753
 1155TIP3   OH227659   1.655   2.207  11.386  0.4052 -0.1833 -0.3253
 1155TIP3    H127660   1.590   2.212  11.456  0.0860  0.0439 -0.6370
 1155TIP3    H227661   1.671   2.114  11.374 -1.4903 -0.3782 -1.7445
 1156TIP3   OH227662   1.612   0.389  12.356  0.3265 -0.6276  0.1269
 1156TIP3    H127663   1.697   0.370  12.395 -0.2317  0.4196  2.0043
 1156TIP3    H227664   1.552   0.328  12.399  0.1942 -1.8545 -1.7114
 1157TIP3   OH227665   5.120   4.468  11.082 -0.2775 -1.0852 -0.3939
 1157TIP3    H127666   5.025   4.458  11.086 -0.5189  1.0171  0.1509
 1157TIP3    H227667   5.150   4.448  11.171 -0.5033  0.5241  0.0718
 1158TIP3   OH227668   0.051   0.239  10.924  0.5561  0.4609  0.2525
 1158TIP3    H127669   0.070   0.319  10.972  0.9765  1.0992 -0.9366
 1158TIP3    H227670   0.032   0.268  10.835 -0.3030 -0.6748  0.0391
 1159TIP3   OH227671   3.601   2.540   9.795  0.3060 -0.7351  0.2238
 1159TIP3    H127672   3.555   2.622   9.779  0.7872 -0.3793  0.6161
 1159TIP3    H227673   3.694   2.563   9.785  0.5017 -0.9703  1.4318
 1160TIP3   OH227674   0.669   3.566  10.248  0.1445 -0.0655  0.3362
 1160TIP3    H127675   0.636   3.655  10.244 -0.5855 -0.2853  1.0258
 1160TIP3    H227676   0.663   3.534  10.158 -3.8479 -0.8609  0.6840
 1161TIP3   OH227677   3.405   4.473   9.490  0.4871  0.2043  0.2690
 1161TIP3    H127678   3.401   4.543   9.425  0.2854 -1.3535 -1.4569
 1161TIP3    H227679   3.405   4.519   9.574 -0.9253  2.2276 -0.7545
 1162TIP3   OH227680   6.511   2.504  10.961 -0.1865 -0.8213 -0.0735
 1162TIP3    H127681   6.515   2.589  11.003 -2.0471  0.2805 -1.8821
 1162TIP3    H227682   6.511   2.524  10.867 -1.0902 -2.7552 -0.5375
 1163TIP3   OH227683   3.263   3.398  10.887  0.0632  0.1925 -0.2371
 1163TIP3    H127684   3.321   3.471  10.909 -1.2378  1.0357  0.5085
 1163TIP3    H227685   3.293   3.327  10.944  0.6944  0.4538 -0.2337
 1164TIP3   OH227686   1.614   3.114  10.816 -0.2140 -0.5219 -0.1075
 1164TIP3    H127687   1.653   3.131  10.902  0.6563  2.5270 -0.9788
 1164TIP3    H227688   1.595   3.020  10.816  1.0328 -0.8735  2.8648
 1165TIP3   OH227689   1.400   4.595  11.128  0.1732 -0.6181 -0.2346
 1165TIP3    H127690   1.385   4.616  11.220 -1.9614  0.8056 -0.8184
 1165TIP3    H227691   1.369   4.505  11.119  2.6950 -1.6886  0.8605
 1166TIP3   OH227692   1.979   1.055  10.195 -0.0265 -0.0313 -0.5069
 1166TIP3    H127693   2.039   1.015  10.258 -1.8757 -0.7200  0.9138
 1166TIP3    H227694   1.945   1.132  10.240  0.5996  0.9886 -1.7306
 1167TIP3   OH227695   6.050   2.251   9.617  0.5634 -0.3327 -0.7101
 1167TIP3    H127696   6.137   2.216   9.637  0.3351 -1.2725 -1.2724
 1167TIP3    H227697   5.989   2.187   9.654  0.1009  0.3269 -0.2982
 1168TIP3   OH227698   0.118   3.021   9.421 -0.2921  0.0992  0.0109
 1168TIP3    H127699   0.212   3.012   9.438 -0.1400  1.1771 -0.1303
 1168TIP3    H227700   0.095   3.104   9.464 -0.7370  0.8556 -1.6089
 1169TIP3   OH227701   2.060   3.866  10.582 -0.6423 -0.0600 -0.2149
 1169TIP3    H127702   1.976   3.825  10.601 -0.4953 -0.0413  0.5001
 1169TIP3    H227703   2.120   3.829  10.647 -0.0286 -0.3045 -0.9093
 1170TIP3   OH227704   5.503   5.108  10.862  0.2997 -0.2536  0.3660
 1170TIP3    H127705   5.584   5.087  10.908  1.5857  1.1963 -1.1453
 1170TIP3    H227706   5.516   5.197  10.829 -0.1461 -1.4389 -3.5271
 1171TIP3   OH227707   1.848   3.978   9.720  0.2221 -0.1981 -0.1041
 1171TIP3    H127708   1.890   3.922   9.786  1.0720 -0.5710 -0.9334
 1171TIP3    H227709   1.809   4.049   9.771  1.5442 -0.0393  0.7468
 1172TIP3   OH227710   4.473   0.295  11.037 -0.0892 -0.4016  0.6635
 1172TIP3    H127711   4.524   0.340  11.105 -0.0866  0.6543 -0.0292
 1172TIP3    H227712   4.437   0.365  10.983  0.1416 -1.2300 -0.6032
 1173TIP3   OH227713   3.798   0.880  12.005 -0.4420  0.0651  0.1581
 1173TIP3    H127714   3.866   0.947  12.012  2.2826 -2.5717  0.9964
 1173TIP3    H227715   3.841   0.805  11.964 -3.0344 -1.5490  0.1381
 1174TIP3   OH227716   3.078   4.726  11.197  0.4403  0.4612 -0.6461
 1174TIP3    H127717   3.043   4.728  11.108 -0.4728  3.9997 -0.3385
 1174TIP3    H227718   3.169   4.752  11.187 -0.0827  2.5239 -0.4912
 1175TIP3   OH227719   2.067   2.255  11.780 -0.4155  0.5793  0.5832
 1175TIP3    H127720   2.096   2.169  11.748  0.3637 -0.4249  3.5910
 1175TIP3    H227721   1.979   2.265  11.745  0.5342 -0.0071 -2.2597
 1176TIP3   OH227722   1.082   0.626  10.197 -0.1600 -0.1981  0.1537
 1176TIP3    H127723   1.048   0.544  10.160 -1.2876  0.6940 -0.8332
 1176TIP3    H227724   1.154   0.650  10.140  0.1515 -0.4773  0.4260
 1177TIP3   OH227725   2.316   5.559  11.022 -0.0362 -0.2000  0.4006
 1177TIP3    H127726   2.394   5.504  11.014 -0.6111 -1.1305  1.0305
 1177TIP3    H227727   2.259   5.512  11.082 -1.0262  0.5495  0.0835
 1178TIP3   OH227728   2.398   1.508   9.231  0.4524 -0.2612 -0.0739
 1178TIP3    H127729   2.446   1.577   9.276  0.0953 -0.0491 -0.0173
 1178TIP3    H227730   2.320   1.551   9.196  1.3512 -0.1195 -2.0182
 1179TIP3   OH227731   4.166   1.295  11.239  0.0157 -0.3752  0.0279
 1179TIP3    H127732   4.083   1.291  11.285 -0.3024 -0.0710 -0.5037
 1179TIP3    H227733   4.190   1.388  11.242 -0.3272 -0.2403 -0.9529
 1180TIP3   OH227734   5.213   6.232   9.272 -0.5452  0.0958  0.3519
 1180TIP3    H127735   5.231   6.218   9.179 -1.1575 -1.5187  0.4340
 1180TIP3    H227736   5.138   6.291   9.273 -0.9982 -0.4539 -0.2096
 1181TIP3   OH227737   5.883   1.959  12.134 -0.0902 -0.2728 -0.4089
 1181TIP3    H127738   5.893   2.051  12.157 -0.3152 -0.1748 -0.6997
 1181TIP3    H227739   5.916   1.911  12.210 -0.3055  0.0461 -0.1135
 1182TIP3   OH227740   1.724   4.865   9.197 -1.1206 -0.6113 -0.2652
 1182TIP3    H127741   1.684   4.817   9.124  0.8453  0.8665 -2.4705
 1182TIP3    H227742   1.744   4.951   9.160 -0.8946  0.5435  2.3628
 1183TIP3   OH227743   5.307   0.314  10.424  0.1840 -0.0463 -0.3806
 1183TIP3    H127744   5.283   0.321  10.516  0.4766 -1.3461 -0.1937
 1183TIP3    H227745   5.388   0.262  10.424  0.5337  0.4722 -1.3247
 1184TIP3   OH227746   0.606   2.273  12.091  0.7353  0.5472  0.1244
 1184TIP3    H127747   0.676   2.211  12.072  1.5271  1.3220  0.4630
 1184TIP3    H227748   0.651   2.355  12.111 -0.1795  0.6388  2.0272
 1185TIP3   OH227749   0.683   4.881  12.253 -0.1181 -0.0014  0.4700
 1185TIP3    H127750   0.613   4.819  12.277 -0.6336  0.0718 -0.7776
 1185TIP3    H227751   0.681   4.946  12.323 -0.2652 -0.8226  1.2621
 1186TIP3   OH227752   3.472   5.719  11.531  0.7453  0.0042  0.1829
 1186TIP3    H127753   3.474   5.783  11.459  3.1398 -0.4855 -0.2715
 1186TIP3    H227754   3.498   5.770  11.608 -0.4548  0.2238  0.4629
 1187TIP3   OH227755   1.184   1.432   8.871 -0.4190 -0.3805  0.5216
 1187TIP3    H127756   1.239   1.354   8.872 -1.2538 -0.9779  0.4625
 1187TIP3    H227757   1.198   1.470   8.784 -0.8608 -1.0840  0.1335
 1188TIP3   OH227758   0.237   0.416  12.159  0.1779  0.2687 -0.7407
 1188TIP3    H127759   0.218   0.354  12.230  1.1406  3.5925  2.7230
 1188TIP3    H227760   0.310   0.376  12.111  0.7184 -1.3047  1.2631
 1189TIP3   OH227761   2.897   1.528  11.707  0.0297  0.2474  0.0865
 1189TIP3    H127762   2.807   1.512  11.737 -0.0081 -0.4328 -0.3604
 1189TIP3    H227763   2.931   1.441  11.687  0.2018  0.6113 -1.3786
 1190TIP3   OH227764   6.130   4.608  11.180 -0.5521 -0.1365 -0.3369
 1190TIP3    H127765   6.072   4.533  11.193 -1.5635  0.9202  1.8125
 1190TIP3    H227766   6.104   4.645  11.096 -0.7716 -1.5376 -0.9135
 1191TIP3   OH227767   3.677   3.661  11.388 -0.1619 -0.3972 -0.0172
 1191TIP3    H127768   3.754   3.614  11.356 -0.2839 -0.5175 -0.1351
 1191TIP3    H227769   3.713   3.733  11.439  0.0197 -0.9526  0.6526
 1192TIP3   OH227770   2.275   2.614  11.649 -0.0106 -0.4549 -0.4422
 1192TIP3    H127771   2.305   2.552  11.583 -0.7944 -0.5232 -0.7423
 1192TIP3    H227772   2.321   2.588  11.729  1.2033 -0.1673 -1.0081
 1193TIP3   OH227773   0.489   3.552   9.069 -0.1574  0.2197 -0.4074
 1193TIP3    H127774   0.418   3.491   9.049 -0.5745 -0.0200  1.6372
 1193TIP3    H227775   0.551   3.540   8.997 -0.5306 -2.1396 -0.4331
 1194TIP3   OH227776   5.741   3.135  11.986 -0.1686  0.8076  0.3685
 1194TIP3    H127777   5.651   3.163  11.967 -0.5831 -0.1675  0.8585
 1194TIP3    H227778   5.772   3.097  11.904  0.3751  2.5531 -0.2890
 1195TIP3   OH227779   3.966   0.185  11.548  0.4253 -0.3230  0.5098
 1195TIP3    H127780   3.932   0.210  11.462 -0.3750 -2.1074  0.2398
 1195TIP3    H227781   4.024   0.256  11.573 -1.6345  1.6944 -0.1405
 1196TIP3   OH227782   4.485   2.083   8.883 -0.4529 -0.2589 -0.1851
 1196TIP3    H127783   4.466   2.136   8.805  1.1490  2.5033  1.1617
 1196TIP3    H227784   4.408   2.094   8.939 -0.3196  0.3039 -0.1058
 1197TIP3   OH227785   1.941   4.534  12.138  0.8741  0.3235  0.3416
 1197TIP3    H127786   2.011   4.596  12.159  0.9467 -0.5328  2.9881
 1197TIP3    H227787   1.984   4.449  12.135  0.3689  0.0990 -0.7301
 1198TIP3   OH227788   3.928   2.531   9.344 -0.0013  0.2046  0.1997
 1198TIP3    H127789   3.906   2.465   9.410 -1.5144  1.0460  0.6004
 1198TIP3    H227790   3.939   2.612   9.395 -1.1568  0.8618 -0.5462
 1199TIP3   OH227791   0.401   6.101  11.776 -0.0288  0.0874 -0.5530
 1199TIP3    H127792   0.475   6.161  11.785  1.4301 -1.6900 -0.0580
 1199TIP3    H227793   0.436   6.015  11.800 -2.2803 -0.8300 -0.2549
 1200TIP3   OH227794   0.559   2.798   9.721 -0.5515  0.3004 -0.1969
 1200TIP3    H127795   0.578   2.813   9.629 -1.1676 -2.4957 -0.8675
 1200TIP3    H227796   0.643   2.806   9.765 -0.0625  0.5980 -1.1639
 1201TIP3   OH227797   6.333   3.428  11.705  0.0073 -0.0546  0.0282
 1201TIP3    H127798   6.421   3.395  11.693 -0.2069 -0.3001 -0.9152
 1201TIP3    H227799   6.304   3.453  11.617 -0.1689  1.8134  0.5651
 1202TIP3   OH227800   3.029   3.203   9.320 -0.5839  0.6873  0.1195
 1202TIP3    H127801   2.943   3.220   9.280 -0.5777  1.6773  0.5076
 1202TIP3    H227802   3.081   3.280   9.298 -0.1603  0.6221  0.8795
 1203TIP3   OH227803   3.040   3.437   9.832  0.2621 -0.4942 -0.1953
 1203TIP3    H127804   3.040   3.435   9.737  0.3621  0.5129 -0.2259
 1203TIP3    H227805   3.076   3.523   9.854 -2.3667  0.4631  0.7257
 1204TIP3   OH227806   1.412   3.053  10.616  0.0414 -0.3821 -0.5636
 1204TIP3    H127807   1.450   3.134  10.649  0.5784 -0.0638 -1.9407
 1204TIP3    H227808   1.480   3.015  10.561 -0.6669 -1.1417 -0.9294
 1205TIP3   OH227809   5.854   5.316   8.250 -0.1316 -0.2957 -0.1104
 1205TIP3    H127810   5.768   5.350   8.223 -0.1174  0.8142  1.1709
 1205TIP3    H227811   5.840   5.222   8.259 -1.0279 -0.2248 -0.6141
 1206TIP3   OH227812   0.750   2.495  12.178 -0.4421  0.4573  0.5430
 1206TIP3    H127813   0.836   2.482  12.218 -0.8141  1.4256  1.7486
 1206TIP3    H227814   0.760   2.576  12.127 -0.4008  0.0850 -0.0419
 1207TIP3   OH227815   2.659   0.052  11.049  0.6736  0.0117 -0.2682
 1207TIP3    H127816   2.716   0.105  10.993  3.1562 -3.2517 -1.2179
 1207TIP3    H227817   2.698   0.060  11.136  0.7557  0.1527 -0.3165
 1208TIP3   OH227818   3.466   4.996  10.402 -0.0669 -0.1108  0.5673
 1208TIP3    H127819   3.488   5.084  10.370 -0.4805  0.4778  1.8307
 1208TIP3    H227820   3.376   4.982  10.374 -0.5936  0.6028  1.8446
 1209TIP3   OH227821   0.502   1.783  10.975  0.0450 -0.4100  0.0888
 1209TIP3    H127822   0.588   1.824  10.968  0.5596 -1.1059  1.6988
 1209TIP3    H227823   0.448   1.830  10.912  1.1614  1.2226  0.2674
 1210TIP3   OH227824   1.130   6.554  10.392  0.1651 -0.4825 -0.0166
 1210TIP3    H127825   1.173   6.596  10.318  2.9784 -2.2198  0.4865
 1210TIP3    H227826   1.201   6.518  10.444 -1.8137 -0.9508  2.5729
 1211TIP3   OH227827   5.149   6.186  11.627 -0.2331 -0.2670 -0.2761
 1211TIP3    H127828   5.122   6.266  11.583  2.8323  1.9634  1.4669
 1211TIP3    H227829   5.119   6.197  11.718 -0.6163 -1.5988 -0.2180
 1212TIP3   OH227830   0.106   6.628  10.338 -0.2045 -0.2545  0.4882
 1212TIP3    H127831   0.126   6.645  10.430 -1.4984 -0.9454  0.9235
 1212TIP3    H227832   0.084   6.715  10.303 -0.2604 -0.0597  0.9865
 1213TIP3   OH227833   3.823   5.067   9.401  0.3963  0.0900 -0.6537
 1213TIP3    H127834   3.736   5.038   9.427 -0.0529  1.7814 -0.1506
 1213TIP3    H227835   3.807   5.143   9.345  1.5554  0.9974  0.2029
 1214TIP3   OH227836   5.053   0.886  11.758 -0.0392 -0.5839  0.1711
 1214TIP3    H127837   5.023   0.797  11.739 -0.9298 -0.5748  1.4160
 1214TIP3    H227838   5.096   0.878  11.844  0.5602  0.0508 -0.0653
 1215TIP3   OH227839   4.041   0.326  10.160 -0.4806  0.2822 -0.2943
 1215TIP3    H127840   4.102   0.366  10.222 -1.6410  0.7188  0.6159
 1215TIP3    H227841   4.074   0.237  10.147 -1.0301 -0.3995  2.2342
 1216TIP3   OH227842   5.593   2.403   9.193 -0.0335  0.0129  0.9062
 1216TIP3    H127843   5.507   2.362   9.203  0.0939 -0.3723  0.4797
 1216TIP3    H227844   5.587   2.484   9.244 -0.3914 -0.3816  1.5082
 1217TIP3   OH227845   3.967   4.276   9.571  0.7512  0.1718  0.2804
 1217TIP3    H127846   3.901   4.306   9.634  0.1102 -2.1476  0.8015
 1217TIP3    H227847   3.930   4.299   9.486 -1.0114 -1.4054  0.5308
 1218TIP3   OH227848   2.682   1.225  11.531 -0.1110 -0.3906  1.0111
 1218TIP3    H127849   2.674   1.192  11.441 -0.0115  0.9293  0.5008
 1218TIP3    H227850   2.733   1.158  11.577  0.4061 -0.7626 -0.0826
 1219TIP3   OH227851   1.774   0.884  10.692 -0.1024 -0.0727 -0.1589
 1219TIP3    H127852   1.824   0.966  10.693  0.1592 -0.2400  0.3813
 1219TIP3    H227853   1.702   0.901  10.630 -0.2783  0.6964  0.2476
 1220TIP3   OH227854   2.117   0.109  11.959 -0.5606  0.0916 -0.2064
 1220TIP3    H127855   2.047   0.143  12.014  0.7344  0.9066  1.0021
 1220TIP3    H227856   2.135   0.022  11.993 -0.0708  0.4186  0.3949
 1221TIP3   OH227857   2.095   5.250   9.396  0.1746  0.2911  0.4690
 1221TIP3    H127858   2.186   5.223   9.384  0.5992  1.8886 -0.0960
 1221TIP3    H227859   2.046   5.197   9.334  0.9103  0.4102 -0.2267
 1222TIP3   OH227860   1.861   5.774  11.393 -0.2019 -0.5887 -0.1323
 1222TIP3    H127861   1.903   5.859  11.393  1.1580 -1.2398 -0.2353
 1222TIP3    H227862   1.917   5.718  11.339 -1.9780 -1.1390 -1.5319
 1223TIP3   OH227863   4.775   0.135  11.199 -0.0481  0.0987  0.0705
 1223TIP3    H127864   4.772   0.056  11.145  1.7131  0.1104 -0.1076
 1223TIP3    H227865   4.739   0.108  11.284 -2.3593 -0.0522 -0.8865
 1224TIP3   OH227866   0.972   1.420  11.235 -0.7388 -0.0888  0.3305
 1224TIP3    H127867   1.033   1.356  11.198 -0.9638 -0.6262  0.8459
 1224TIP3    H227868   0.885   1.384  11.216 -0.8945  0.5806 -0.2473
 1225TIP3   OH227869   0.312   2.921  10.811 -0.1978  0.7385  0.1885
 1225TIP3    H127870   0.307   2.837  10.856 -0.7946  0.9676  0.5602
 1225TIP3    H227871   0.222   2.951  10.807  0.0616  1.5692  0.4429
 1226TIP3   OH227872   3.365   3.317  12.126  0.4899 -0.8949 -0.6076
 1226TIP3    H127873   3.357   3.252  12.196  1.7028 -0.8607 -0.4087
 1226TIP3    H227874   3.423   3.276  12.062  0.0031 -0.6182 -1.2305
 1227TIP3   OH227875   6.665   4.312  11.725  0.5571 -0.5585  0.2724
 1227TIP3    H127876   6.590   4.331  11.781 -0.5346 -0.6290 -1.1141
 1227TIP3    H227877   6.741   4.335  11.778 -0.4791  0.9003  1.1843
 1228TIP3   OH227878   3.743   0.963  10.459  0.4072  0.1636  0.2401
 1228TIP3    H127879   3.757   1.005  10.544  0.8176  0.5661 -0.0255
 1228TIP3    H227880   3.681   0.892  10.478  1.8967 -0.9246  1.2352
 1229TIP3   OH227881   4.491   4.512   9.315 -0.1299  0.6577 -0.0262
 1229TIP3    H127882   4.537   4.533   9.234  0.7169  1.8685  0.7485
 1229TIP3    H227883   4.500   4.590   9.369 -0.6226 -0.1604  1.2782
 1230TIP3   OH227884   5.690   4.929   9.949 -0.1286  0.3645 -0.1880
 1230TIP3    H127885   5.650   4.881  10.021 -0.9653  2.0107  0.5130
 1230TIP3    H227886   5.694   4.867   9.877  1.6316 -1.6553  1.5289
 1231TIP3   OH227887   1.929   4.357   9.715  0.0366 -0.1809 -0.5631
 1231TIP3    H127888   1.900   4.356   9.624 -1.0132  1.3980 -0.2831
 1231TIP3    H227889   1.934   4.450   9.738  3.0199 -0.3988  0.1798
 1232TIP3   OH227890   6.054   5.020  10.208  0.3707 -0.0788 -0.1986
 1232TIP3    H127891   6.109   5.058  10.139 -0.3157 -0.7611 -1.1597
 1232TIP3    H227892   5.974   5.073  10.207 -0.0181 -0.6526 -0.5828
 1233TIP3   OH227893   3.210   5.379  11.754 -0.4867  0.3595 -0.0976
 1233TIP3    H127894   3.182   5.373  11.845 -1.1470  1.0632 -0.2494
 1233TIP3    H227895   3.162   5.453  11.718  0.6970  0.8798 -0.6874
 1234TIP3   OH227896   2.100   4.083   9.973  0.3746  0.2919  0.0518
 1234TIP3    H127897   2.109   4.131   9.891  0.1769 -0.8202 -0.6409
 1234TIP3    H227898   2.133   4.144  10.040  1.0239  1.0271 -0.9029
 1235TIP3   OH227899   5.393   0.246  11.138  0.5837 -0.5265  0.0612
 1235TIP3    H127900   5.462   0.258  11.203  1.4551 -1.5678 -0.6463
 1235TIP3    H227901   5.431   0.274  11.055 -0.8816  1.8704  0.0954
 1236TIP3   OH227902   1.113   3.141   9.025 -0.6505  0.4675 -0.4844
 1236TIP3    H127903   1.125   3.172   8.935  1.2604  1.0894 -0.0660
 1236TIP3    H227904   1.182   3.185   9.075 -2.5992  1.3101  1.6177
 1237TIP3   OH227905   1.049   4.519   9.106 -0.2711  0.0845  0.0724
 1237TIP3    H127906   1.044   4.531   9.011  1.0638  0.3585  0.0214
 1237TIP3    H227907   0.979   4.575   9.140  1.2013  2.4831 -0.5943
 1238TIP3   OH227908   4.936   2.799  10.105 -0.2395 -0.3205  0.1693
 1238TIP3    H127909   4.922   2.804  10.011  2.5712 -1.3683 -0.4140
 1238TIP3    H227910   4.884   2.723  10.132 -0.8206 -0.2072 -0.5917
 1239TIP3   OH227911   3.245   1.884  10.333 -0.1466  0.0732  0.0654
 1239TIP3    H127912   3.173   1.947  10.332  0.7482  1.1571 -1.2652
 1239TIP3    H227913   3.228   1.826  10.259  0.0464 -0.0136  0.0877
 1240TIP3   OH227914   4.995   2.258  11.004  0.3651  1.0720  0.4697
 1240TIP3    H127915   4.998   2.327  10.938 -1.2361 -0.2376 -1.0726
 1240TIP3    H227916   5.086   2.227  11.010  0.5658  1.3124 -1.0459
 1241TIP3   OH227917   1.990   6.691  10.647  0.0254 -0.3154  0.6076
 1241TIP3    H127918   1.993   6.764  10.586  1.2638  0.1876  1.2370
 1241TIP3    H227919   2.035   6.619  10.602  1.2569  0.1632  1.0470
 1242TIP3   OH227920   5.695   5.345  10.740 -0.0900 -0.2661  0.4628
 1242TIP3    H127921   5.626   5.411  10.745  1.1928  1.1468  0.0303
 1242TIP3    H227922   5.760   5.382  10.680  0.8349 -1.7685  0.4842
 1243TIP3   OH227923   1.102   2.783   9.420 -0.3138 -0.1917  0.2577
 1243TIP3    H127924   1.195   2.761   9.410 -0.5016 -1.9155  1.7677
 1243TIP3    H227925   1.086   2.850   9.353  1.5747 -1.1565 -1.2814
 1244TIP3   OH227926   1.069   0.281   9.235  0.6993 -0.2332 -0.0345
 1244TIP3    H127927   1.164   0.292   9.245  0.4783  1.1201  0.8397
 1244TIP3    H227928   1.052   0.295   9.142  0.9793  3.1600  0.2972
 1245TIP3   OH227929   1.300   0.669   9.242 -0.5390 -0.4491 -0.1134
 1245TIP3    H127930   1.209   0.680   9.269 -0.4097  1.2647 -0.3090
 1245TIP3    H227931   1.337   0.757   9.246  0.6452 -0.8470 -1.7036
 1246TIP3   OH227932   5.371   4.434   8.696 -0.3302  0.4324  0.3848
 1246TIP3    H127933   5.374   4.346   8.659  0.1940  0.9475 -0.8569
 1246TIP3    H227934   5.330   4.488   8.628 -0.1134  1.2456  0.8837
 1247TIP3   OH227935   1.361   0.382  11.428  0.2947  0.5430 -0.1425
 1247TIP3    H127936   1.332   0.450  11.366  1.0415 -1.5999 -3.0369
 1247TIP3    H227937   1.289   0.319  11.429 -0.2951  1.1384  2.3570
 1248TIP3   OH227938   4.141   0.595  10.889 -0.0626  0.0826 -0.2788
 1248TIP3    H127939   4.072   0.606  10.825 -0.1607 -2.4671 -0.7008
 1248TIP3    H227940   4.181   0.682  10.897 -1.7891  1.0606 -1.7405
 1249TIP3   OH227941   5.421   5.151  11.880  0.7972  0.0863  0.3619
 1249TIP3    H127942   5.351   5.175  11.819 -0.8157 -0.4546  1.8900
 1249TIP3    H227943   5.428   5.056  11.870  0.2836 -0.0540  1.2065
 1250TIP3   OH227944   0.851   3.168  11.328 -0.5430  0.2434 -0.4114
 1250TIP3    H127945   0.902   3.122  11.262  0.5552 -0.7732  1.0770
 1250TIP3    H227946   0.822   3.099  11.388 -0.6959  1.2382  0.6836
 1251TIP3   OH227947   1.412   5.777  12.194  0.3443 -0.0348  0.2207
 1251TIP3    H127948   1.330   5.783  12.145 -0.4418  0.0099  1.4938
 1251TIP3    H227949   1.426   5.865  12.228  0.2249 -0.3290  1.0621
 1252TIP3   OH227950   3.884   2.813   8.631 -0.2701 -0.0803 -0.6349
 1252TIP3    H127951   3.822   2.876   8.595 -0.7672  0.9508  1.8534
 1252TIP3    H227952   3.967   2.860   8.634 -0.6418  0.5435  1.2271
 1253TIP3   OH227953   4.944   2.606  11.575 -0.1133 -0.4044  0.2898
 1253TIP3    H127954   4.904   2.592  11.490  1.0136  0.6098 -0.4433
 1253TIP3    H227955   4.926   2.526  11.624 -2.2801 -0.3237 -0.2600
 1254TIP3   OH227956   2.050   4.944  12.301 -0.1412  0.5230 -0.1118
 1254TIP3    H127957   1.990   5.003  12.255 -0.8971  0.1225  0.3294
 1254TIP3    H227958   1.997   4.907  12.372  0.6259  0.1288  0.2663
 1255TIP3   OH227959   5.257   2.174   9.491  0.4103 -0.2248  0.2320
 1255TIP3    H127960   5.303   2.101   9.451 -0.5453 -1.1918  0.8356
 1255TIP3    H227961   5.318   2.208   9.557  0.2292 -1.5812  1.1320
 1256TIP3   OH227962   0.675   3.375  11.331  0.3686  0.4948  0.1211
 1256TIP3    H127963   0.738   3.303  11.325 -0.1599  0.0997 -1.0622
 1256TIP3    H227964   0.727   3.450  11.361  1.2212 -0.0278 -0.0071
 1257TIP3   OH227965   5.884   0.355  11.487  0.2068 -0.0896 -0.0153
 1257TIP3    H127966   5.894   0.281  11.427 -0.4433 -0.2731  0.0972
 1257TIP3    H227967   5.967   0.401  11.482  0.8977 -1.2336  0.4571
 1258TIP3   OH227968   0.541   4.207   9.562  0.1140 -0.7184 -0.1582
 1258TIP3    H127969   0.583   4.290   9.542  0.2803 -1.0785 -1.4234
 1258TIP3    H227970   0.522   4.211   9.655 -4.1118  2.7054 -0.8440
 1259TIP3   OH227971   5.648   4.351  12.307  0.1529 -0.2589 -0.0071
 1259TIP3    H127972   5.694   4.279  12.351  0.8869 -0.5676 -1.2593
 1259TIP3    H227973   5.619   4.314  12.224  1.0272  1.0357 -0.9213
 1260TIP3   OH227974   3.920   3.830  11.183  0.1789  0.1170 -0.1061
 1260TIP3    H127975   3.854   3.811  11.117 -0.4568  1.3360  0.1556
 1260TIP3    H227976   3.981   3.756  11.178  0.1322  0.1506 -2.0160
 1261TIP3   OH227977   0.196   5.622  12.246  0.3967  0.0380  0.2750
 1261TIP3    H127978   0.120   5.590  12.295  0.2420 -0.6261 -0.3849
 1261TIP3    H227979   0.194   5.574  12.164  1.6988 -0.1920  0.3587
 1262TIP3   OH227980   0.722   1.864  10.675 -0.4703  0.0555 -0.2025
 1262TIP3    H127981   0.685   1.777  10.662  1.7410 -0.5927 -3.4559
 1262TIP3    H227982   0.662   1.922  10.628 -0.5979 -0.1101 -0.2448
 1263TIP3   OH227983   5.048   1.041  10.812  0.2887 -0.3029  0.4511
 1263TIP3    H127984   4.999   0.986  10.872 -1.3941  0.7648  0.1232
 1263TIP3    H227985   5.062   1.123  10.860  0.6222 -0.1354  0.0764
 1264TIP3   OH227986   1.547   5.123  12.091  0.4659 -0.1923 -0.2154
 1264TIP3    H127987   1.585   5.048  12.044  0.6907  0.9655 -1.9552
 1264TIP3    H227988   1.456   5.124  12.065  0.5508  0.3675 -0.4913
 1265TIP3   OH227989   1.557   6.110   9.839 -0.0901 -0.0077  0.0059
 1265TIP3    H127990   1.613   6.048   9.884 -0.3127  0.2970  0.7121
 1265TIP3    H227991   1.529   6.172   9.907 -0.4128  0.4700 -0.5484
 1266TIP3   OH227992   5.937   0.572  10.631  0.3192 -0.2996 -0.0700
 1266TIP3    H127993   5.943   0.637  10.701  0.5570 -1.4747  1.0405
 1266TIP3    H227994   5.844   0.560  10.616  0.2284 -0.9723  0.9644
 1267TIP3   OH227995   5.310   3.747   8.399  0.2847  0.2186  0.7104
 1267TIP3    H127996   5.356   3.758   8.315  1.6394 -0.3686  1.3313
 1267TIP3    H227997   5.221   3.777   8.382  0.7004  0.7170 -0.7628
 1268TIP3   OH227998   5.112   1.944   9.192  0.6319  0.4351 -0.1339
 1268TIP3    H127999   5.111   1.927   9.286 -1.4300 -0.5796 -0.2816
 1268TIP3    H228000   5.036   1.897   9.158 -0.0660  2.6753 -1.9782
 1269TIP3   OH228001   3.158   5.035  10.516  0.3059 -0.5878  0.0460
 1269TIP3    H128002   3.128   5.093  10.446  0.9329 -1.8766 -1.3547
 1269TIP3    H228003   3.087   4.971  10.525 -0.4977  0.4515  1.7538
 1270TIP3   OH228004   5.314   4.754   9.025  0.0891  0.1962 -0.5614
 1270TIP3    H128005   5.317   4.830   8.966 -0.6430  0.6977  0.0198
 1270TIP3    H228006   5.252   4.780   9.093  0.1983 -0.7482 -0.0918
 1271TIP3   OH228007   6.130   6.056   9.868 -0.2128 -0.2778 -0.1238
 1271TIP3    H128008   6.115   5.975   9.916  1.0254  0.8555  2.3686
 1271TIP3    H228009   6.217   6.045   9.828 -0.2119 -0.3319 -0.1063
 1272TIP3   OH228010   4.592   6.164  11.204  0.2253  0.1388 -0.0118
 1272TIP3    H128011   4.663   6.143  11.264  0.4836  1.3781  0.1498
 1272TIP3    H228012   4.517   6.180  11.261 -0.1720 -1.0496 -0.1747
 1273TIP3   OH228013   1.287   4.919  10.969 -0.2321  0.3845 -0.0033
 1273TIP3    H128014   1.192   4.919  10.980 -0.3232  0.3015 -0.6984
 1273TIP3    H228015   1.307   5.006  10.933 -0.0071  0.5119  0.4272
 1274TIP3   OH228016   6.666   3.814  11.635 -0.5589 -0.4518 -0.3703
 1274TIP3    H128017   6.703   3.789  11.550  0.3835  0.8112 -0.3757
 1274TIP3    H228018   6.668   3.910  11.634 -0.2087 -0.4123  1.1962
 1275TIP3   OH228019   5.220   2.734   9.542  0.4150  0.0175  0.0680
 1275TIP3    H128020   5.187   2.722   9.631 -1.6466 -0.9037 -0.7788
 1275TIP3    H228021   5.260   2.650   9.520 -0.3289 -0.2213 -0.3751
 1276TIP3   OH228022   2.506   3.262  11.291  0.8503 -0.2434 -0.4875
 1276TIP3    H128023   2.518   3.287  11.200  3.4333 -1.7683 -0.6425
 1276TIP3    H228024   2.458   3.179  11.287 -4.5009  2.3821 -0.0824
 1277TIP3   OH228025   0.751   5.386   9.092 -0.0827  0.3682  0.4140
 1277TIP3    H128026   0.673   5.406   9.041 -1.3278  1.6970  2.6706
 1277TIP3    H228027   0.780   5.470   9.127  2.2727 -0.1259 -0.1601
 1278TIP3   OH228028   5.727   5.045  11.672 -0.0402  0.0969 -0.1696
 1278TIP3    H128029   5.667   5.060  11.600 -1.7858  0.4175  1.2840
 1278TIP3    H228030   5.715   4.953  11.696 -1.0700  0.5227  1.0488
 1279TIP3   OH228031   6.623   4.101   8.511  0.0657  0.0303 -0.1991
 1279TIP3    H128032   6.687   4.166   8.479  1.1626 -1.0410 -0.2572
 1279TIP3    H228033   6.654   4.079   8.599 -1.3837  0.9473  0.5755
 1280TIP3   OH228034   4.894   6.229  10.090  0.0245 -0.0448 -0.3655
 1280TIP3    H128035   4.927   6.312  10.056  0.2039 -0.8120 -2.1804
 1280TIP3    H228036   4.813   6.213  10.041  0.1798 -1.1096 -0.3057
 1281TIP3   OH228037   0.674   0.177  11.465 -0.0933  0.6569 -0.2450
 1281TIP3    H128038   0.661   0.270  11.481  1.5617  0.6550  1.5305
 1281TIP3    H228039   0.737   0.174  11.393  0.7116  0.9587  0.4332
 1282TIP3   OH228040   2.744   6.211  10.625  0.0313  0.4429 -0.1876
 1282TIP3    H128041   2.732   6.246  10.713  1.2629 -0.3184  0.3175
 1282TIP3    H228042   2.836   6.229  10.605 -0.3980  1.2225 -1.6135
 1283TIP3   OH228043   6.538   3.469  11.082 -0.0661 -0.0210 -0.4713
 1283TIP3    H128044   6.485   3.389  11.083  1.6884 -1.2586  1.1302
 1283TIP3    H228045   6.508   3.519  11.157  0.7128 -0.5353  0.1991
 1284TIP3   OH228046   1.311   3.226  12.227  0.0890  1.0148 -0.1286
 1284TIP3    H128047   1.381   3.160  12.225  0.9411  1.9021 -0.3577
 1284TIP3    H228048   1.245   3.192  12.167 -0.5206 -0.7139  1.4344
 1285TIP3   OH228049   0.667   1.549  10.015 -0.5887  0.3755  0.1020
 1285TIP3    H128050   0.712   1.487  10.073  0.3264  0.3874 -0.5648
 1285TIP3    H228051   0.574   1.527  10.023 -0.1991 -2.0979 -1.2206
 1286TIP3   OH228052   0.765   3.349   9.431  0.1897  0.3626 -0.2565
 1286TIP3    H128053   0.788   3.396   9.511  2.2581 -0.5451 -0.2548
 1286TIP3    H228054   0.789   3.258   9.449  1.3096  0.2397 -2.0771
 1287TIP3   OH228055   6.473   0.988  10.042 -0.7429  0.1434 -0.0133
 1287TIP3    H128056   6.456   1.064   9.986 -1.8669  0.0096  0.1201
 1287TIP3    H228057   6.401   0.989  10.105 -0.3375 -0.5956  0.4713
 1288TIP3   OH228058   2.062   2.780  10.183  0.2439  0.3121  0.2002
 1288TIP3    H128059   2.125   2.819  10.243 -1.3676  0.0707  2.1500
 1288TIP3    H228060   2.041   2.694  10.221 -1.5668  0.5613 -0.1325
 1289TIP3   OH228061   1.221   4.323   9.714  0.4105  0.3193 -0.0092
 1289TIP3    H128062   1.286   4.367   9.660 -0.4394  1.2609 -0.2908
 1289TIP3    H228063   1.213   4.379   9.792  0.7335 -0.3758  0.5306
 1290TIP3   OH228064   2.130   6.298   9.808 -0.4591  0.6168  0.3114
 1290TIP3    H128065   2.100   6.208   9.822 -1.9074  0.9694 -0.2952
 1290TIP3    H228066   2.181   6.293   9.727 -1.0358  0.4360 -0.0473
 1291TIP3   OH228067   0.931   0.026  10.466 -0.2156  0.2427 -0.4890
 1291TIP3    H128068   0.998  -0.036  10.437 -1.4830 -2.2293  1.4023
 1291TIP3    H228069   0.979   0.095  10.510  1.2495  0.4616 -2.3154
 1292TIP3   OH228070   2.828   1.026   8.853 -0.3999  0.3106 -0.3027
 1292TIP3    H128071   2.888   1.093   8.822 -0.3241  0.3046 -0.1693
 1292TIP3    H228072   2.868   0.943   8.826 -0.2283  0.2951 -0.0120
 1293TIP3   OH228073   5.400   1.299  12.049  0.0760  0.4366 -0.0716
 1293TIP3    H128074   5.467   1.339  12.105  1.2043  1.5446 -2.0677
 1293TIP3    H228075   5.410   1.205  12.063  1.1383  0.6364  0.6796
 1294TIP3   OH228076   2.648   2.354  10.210  0.5212 -0.0244  0.1353
 1294TIP3    H128077   2.689   2.348  10.123 -0.2387 -2.2269 -0.1353
 1294TIP3    H228078   2.555   2.336  10.194 -0.1146  2.1185  1.1006
 1295TIP3   OH228079   2.474   4.915  11.671  0.1018 -0.7512  0.2658
 1295TIP3    H128080   2.497   4.976  11.601 -2.5284  0.1891  0.1071
 1295TIP3    H228081   2.447   4.835  11.626  1.3553 -1.2565  0.3788
 1296TIP3   OH228082   5.420   5.889   9.353 -0.7077 -0.1083 -0.0516
 1296TIP3    H128083   5.443   5.840   9.274 -0.5465  0.3302 -0.2789
 1296TIP3    H228084   5.424   5.824   9.423 -5.9592 -1.9085 -0.9945
 1297TIP3   OH228085   4.985   5.156  10.228 -0.6998 -0.5256 -0.3839
 1297TIP3    H128086   5.022   5.187  10.311 -2.1983  1.1811 -0.2952
 1297TIP3    H228087   5.059   5.116  10.183  0.5561  0.0932  1.0242
 1298TIP3   OH228088   6.229   4.483  11.499  0.3075  0.4711 -0.2298
 1298TIP3    H128089   6.277   4.408  11.534  0.9816  1.2821  0.6413
 1298TIP3    H228090   6.281   4.513  11.425 -0.8493 -0.9267 -1.6802
 1299TIP3   OH228091   4.104   5.318   9.143  0.5584 -0.0952 -0.1470
 1299TIP3    H128092   4.140   5.406   9.132 -1.5719  0.7766 -0.7344
 1299TIP3    H228093   4.012   5.326   9.117  0.5983 -2.7968 -1.5419
 1300TIP3   OH228094   1.075   3.973  10.638  0.3345  0.1382  0.1617
 1300TIP3    H128095   1.095   4.059  10.602 -0.7816  0.0312 -0.7383
 1300TIP3    H228096   1.002   3.988  10.698 -0.5747 -0.3148 -0.7918
 1301TIP3   OH228097   5.102   5.556   8.860 -0.0803  0.1663 -0.3733
 1301TIP3    H128098   5.016   5.597   8.868 -0.1020  0.8634 -3.0906
 1301TIP3    H228099   5.119   5.553   8.765  2.5985 -0.5706  0.0260
 1302TIP3   OH228100   0.023   2.102   9.700  0.0633  0.4332  0.6430
 1302TIP3    H128101   0.052   2.030   9.644 -0.5267 -0.1996  1.1331
 1302TIP3    H228102  -0.009   2.168   9.639 -1.2797 -0.5511  0.2330
 1303TIP3   OH228103   1.461   4.240   9.896  0.2394 -0.3858  0.2140
 1303TIP3    H128104   1.452   4.232   9.801 -2.4788  2.3565  0.0746
 1303TIP3    H228105   1.539   4.294   9.909  0.2384 -0.2054 -0.5039
 1304TIP3   OH228106   5.393   3.072   8.610  0.0992 -0.4504  0.5628
 1304TIP3    H128107   5.340   3.097   8.534 -1.4409 -1.3711  1.2877
 1304TIP3    H228108   5.454   3.006   8.577  2.0190  1.7740 -0.6504
 1305TIP3   OH228109   2.162   4.920  11.078 -0.5668 -0.8946 -0.4760
 1305TIP3    H128110   2.154   4.935  11.172 -0.7154 -1.3324 -0.4169
 1305TIP3    H228111   2.214   4.994  11.046 -2.3475  0.4770 -0.4053
 1306TIP3   OH228112   2.930   2.667  11.345 -0.3255 -0.1269 -0.0171
 1306TIP3    H128113   2.930   2.756  11.380  1.1295 -0.1572  0.0974
 1306TIP3    H228114   2.843   2.633  11.366 -1.0992  1.4426 -0.5283
 1307TIP3   OH228115   5.131   6.017  11.410 -0.2191  0.1807  0.1123
 1307TIP3    H128116   5.139   6.074  11.487  0.8025  0.2705 -0.0567
 1307TIP3    H228117   5.189   5.944  11.428 -0.8836 -0.4016 -0.0609
 1308TIP3   OH228118   4.677   1.940  10.440  0.1758  0.4797  0.8955
 1308TIP3    H128119   4.629   1.895  10.370 -1.5070  2.0077  0.9712
 1308TIP3    H228120   4.625   2.019  10.456  2.0007  1.5063  2.0165
 1309TIP3   OH228121   1.421   6.235  10.024 -0.8986 -0.6735 -0.4510
 1309TIP3    H128122   1.326   6.241  10.036 -0.7956  3.0414 -0.2297
 1309TIP3    H228123   1.454   6.205  10.109 -1.8142 -1.4239 -0.3419
 1310TIP3   OH228124   0.581   3.105  10.138 -0.4620  0.3654  0.4028
 1310TIP3    H128125   0.673   3.105  10.163 -0.3085  1.8590 -0.0840
 1310TIP3    H228126   0.536   3.062  10.211  0.4910  0.6726  1.1874
 1311TIP3   OH228127   0.205   1.318  11.389  0.3279  0.3797  0.2607
 1311TIP3    H128128   0.266   1.268  11.443  1.2140  1.6147  0.4666
 1311TIP3    H228129   0.193   1.265  11.310  1.0382 -0.2635  0.5719
 1312TIP3   OH228130   0.479   0.333   9.863  0.3264  0.7189  0.1834
 1312TIP3    H128131   0.511   0.408   9.913 -1.6495  1.3931  0.5262
 1312TIP3    H228132   0.410   0.369   9.807 -0.8448 -0.8712  0.5327
 1313TIP3   OH228133   0.609   1.315  11.659  0.3140 -0.1098  0.2612
 1313TIP3    H128134   0.617   1.285  11.750  2.8891 -0.9015 -0.1400
 1313TIP3    H228135   0.664   1.394  11.656  2.2078 -1.3885 -1.0588
 1314TIP3   OH228136   2.289   5.239  10.799  0.1352  0.3183  0.4660
 1314TIP3    H128137   2.228   5.311  10.813  0.1496  0.7236 -1.2922
 1314TIP3    H228138   2.364   5.259  10.856  0.3181  1.9269 -0.2856
 1315TIP3   OH228139   1.824   2.324  10.976  0.6474  0.1075  0.5898
 1315TIP3    H128140   1.793   2.378  10.904  3.9441  1.3376 -0.0859
 1315TIP3    H228141   1.773   2.354  11.052 -1.4282  0.2252 -0.7739
 1316TIP3   OH228142   0.647   2.057  11.771  0.2288 -0.7498  0.0007
 1316TIP3    H128143   0.706   2.070  11.845  0.4012  1.2031 -0.4276
 1316TIP3    H228144   0.564   2.031  11.811  0.5575 -0.5641  0.8307
 1317TIP3   OH228145   0.813   2.103  11.983 -0.3485  0.0767  0.3014
 1317TIP3    H128146   0.825   2.011  12.004 -1.2804 -0.4857 -1.4268
 1317TIP3    H228147   0.900   2.134  11.957 -0.0241 -0.2918  0.9395
 1318TIP3   OH228148   3.709   2.712  11.680  0.0730 -0.2164  0.0055
 1318TIP3    H128149   3.761   2.792  11.688 -0.5796  0.1464  0.7705
 1318TIP3    H228150   3.641   2.721  11.747 -0.0424 -1.3873  0.0679
 1319TIP3   OH228151   6.629   5.539  12.363  0.0553  0.0799 -0.1844
 1319TIP3    H128152   6.561   5.542  12.430 -1.0977  1.3656 -1.3618
 1319TIP3    H228153   6.582   5.530  12.281  1.1427  2.7211 -1.1933
 1320TIP3   OH228154   6.163   0.805  10.950 -0.4638  0.1538  0.0953
 1320TIP3    H128155   6.115   0.722  10.945 -0.8881  0.2620  1.9676
 1320TIP3    H228156   6.252   0.780  10.973 -0.8322  0.2550  1.7085
 1321TIP3   OH228157   6.676   1.841   8.826 -0.0189 -0.3117  0.0716
 1321TIP3    H128158   6.645   1.752   8.846 -0.3818  0.0639  1.2604
 1321TIP3    H228159   6.604   1.898   8.852  0.9363  0.4461  1.1484
 1322TIP3   OH228160   6.146   1.990   8.400 -0.1629 -0.2081 -0.0795
 1322TIP3    H128161   6.239   1.973   8.418 -0.0758 -0.1022 -0.4142
 1322TIP3    H228162   6.121   2.055   8.465 -0.0143 -0.2770  0.0477
 1323TIP3   OH228163   0.303   1.491   8.835  0.0668  0.2401  0.5634
 1323TIP3    H128164   0.321   1.428   8.766  1.3261 -0.1712  1.2390
 1323TIP3    H228165   0.390   1.521   8.864 -0.4749  2.0990  0.4366
 1324TIP3   OH228166   2.673   2.050  10.932 -0.3279  0.1639  0.0867
 1324TIP3    H128167   2.658   1.974  10.988  0.1826  0.7699  1.0768
 1324TIP3    H228168   2.751   2.027  10.881 -0.7867 -0.3853 -0.3736
 1325TIP3   OH228169   4.166   3.314  10.327 -0.4417 -0.0106 -0.5018
 1325TIP3    H128170   4.167   3.235  10.273  1.4311 -0.4198  0.0435
 1325TIP3    H228171   4.252   3.353  10.312  0.2475 -0.2545  2.2909
 1326TIP3   OH228172   1.528   3.563  11.709  0.5537 -0.0642  0.7514
 1326TIP3    H128173   1.495   3.633  11.765  0.9850 -0.6226  1.7173
 1326TIP3    H228174   1.623   3.574  11.710  0.5487  0.1908 -0.2414
 1327TIP3   OH228175   0.755   5.742  10.461 -0.0852  0.2939 -0.4616
 1327TIP3    H128176   0.833   5.723  10.410  0.7798  1.4059  0.3724
 1327TIP3    H228177   0.742   5.837  10.451 -0.0801  0.4874  1.0627
 1328TIP3   OH228178   3.106   3.321  11.939 -0.5214  0.4400 -0.1845
 1328TIP3    H128179   3.021   3.356  11.966 -0.1362  0.9174  0.4140
 1328TIP3    H228180   3.166   3.344  12.009  0.3839  1.2382 -1.1833
 1329TIP3   OH228181   2.939   0.388   9.722 -0.4184 -0.1588  0.1560
 1329TIP3    H128182   2.847   0.401   9.746  0.0877 -0.1465  2.1886
 1329TIP3    H228183   2.960   0.300   9.754  0.5455  0.2207  0.6022
 1330TIP3   OH228184   3.799   0.230  10.321 -0.2134  0.0116  0.3457
 1330TIP3    H128185   3.840   0.157  10.369 -0.9645 -0.4502  0.3002
 1330TIP3    H228186   3.873   0.276  10.281  0.2772 -0.7467  0.3475
 1331TIP3   OH228187   0.035   4.016  11.958 -0.8679 -0.3641  0.3731
 1331TIP3    H128188  -0.055   3.997  11.935 -1.0594 -0.6419  1.3032
 1331TIP3    H228189   0.085   3.996  11.879 -1.8444  1.9987 -0.9512
 1332TIP3   OH228190   3.194   4.018  10.442 -0.4223  0.7256  0.0176
 1332TIP3    H128191   3.179   4.112  10.430 -1.1245  0.7818  1.1605
 1332TIP3    H228192   3.138   3.976  10.377 -1.6418  1.0759  0.8013
 1333TIP3   OH228193   4.456   1.538   9.635  0.5326 -0.3470  0.0368
 1333TIP3    H128194   4.377   1.526   9.686 -0.2678 -0.7316 -1.2422
 1333TIP3    H228195   4.428   1.529   9.544  2.2848 -2.0818 -0.4235
 1334TIP3   OH228196   5.619   0.764   9.005  0.4886 -0.0174  0.5603
 1334TIP3    H128197   5.642   0.797   8.918  0.2187 -0.4105  0.3385
 1334TIP3    H228198   5.659   0.827   9.066  0.0428  0.6776  0.1419
 1335TIP3   OH228199   4.382   5.462  11.938 -0.7464  0.1337 -0.0060
 1335TIP3    H128200   4.385   5.557  11.955 -0.9315  0.2091 -0.3833
 1335TIP3    H228201   4.310   5.451  11.876  0.4839 -0.0090 -1.4698
 1336TIP3   OH228202   2.752   1.719   9.990 -0.0386  0.0105  0.2027
 1336TIP3    H128203   2.675   1.709   9.934 -0.9222  0.1834  1.3568
 1336TIP3    H228204   2.721   1.697  10.077  0.5911  2.3736  1.0973
 1337TIP3   OH228205   1.105   1.799  12.141 -0.4294 -0.3710  0.3077
 1337TIP3    H128206   1.052   1.852  12.201  2.5874  1.4668  1.5843
 1337TIP3    H228207   1.113   1.853  12.062 -0.6578 -0.7422  0.0301
 1338TIP3   OH228208   3.784   2.752   9.086 -0.4314  0.1291 -0.5163
 1338TIP3    H128209   3.712   2.700   9.051  0.1958 -1.4376  0.4169
 1338TIP3    H228210   3.847   2.687   9.119  0.7886  1.4699 -0.0838
 1339TIP3   OH228211   4.446   3.174  10.212 -0.0026 -0.5516  0.0812
 1339TIP3    H128212   4.414   3.092  10.249 -0.1736 -0.8130 -0.6202
 1339TIP3    H228213   4.519   3.148  10.156  0.7922 -0.0703  0.8718
 1340TIP3   OH228214   1.366   2.735   9.406  0.0972 -0.5791  0.3611
 1340TIP3    H128215   1.380   2.654   9.357 -0.7918 -1.8493  2.0957
 1340TIP3    H228216   1.420   2.725   9.484  0.4652  0.8088  0.3091
 1341TIP3   OH228217   6.132   1.536   9.831 -0.0106 -0.1841  0.0275
 1341TIP3    H128218   6.205   1.593   9.808  1.8921 -2.1935  0.6528
 1341TIP3    H228219   6.138   1.526   9.926  0.3873 -2.1606 -0.1535
 1342TIP3   OH228220   3.297   0.070  10.792 -0.1512  0.3966  0.4579
 1342TIP3    H128221   3.230   0.010  10.759  2.1229 -2.1988  0.1864
 1342TIP3    H228222   3.323   0.121  10.716 -0.7516  0.3633  0.2226
 1343TIP3   OH228223   5.518   2.615   9.367 -0.8563 -0.0965 -0.5876
 1343TIP3    H128224   5.441   2.567   9.397 -0.3740 -0.7765 -0.4028
 1343TIP3    H228225   5.587   2.590   9.428 -1.4451  3.9674  2.1339
 1344TIP3   OH228226   3.889   1.373   9.348 -0.2853  0.3255  0.4212
 1344TIP3    H128227   3.870   1.438   9.416  3.7136 -0.0299  2.1936
 1344TIP3    H228228   3.935   1.423   9.281  1.0771 -0.2622  0.8803
 1345TIP3   OH228229   5.285   5.711  11.353 -0.1104 -0.1458 -0.3088
 1345TIP3    H128230   5.367   5.759  11.363 -0.4105  0.2816  0.1771
 1345TIP3    H228231   5.290   5.640  11.417 -1.3048  1.5753  1.8603
 1346TIP3   OH228232   0.425   3.039   9.873 -0.1896  0.0428 -0.3526
 1346TIP3    H128233   0.377   3.086   9.942  0.1857  0.4391 -0.3570
 1346TIP3    H228234   0.503   3.005   9.918 -0.8401 -1.2609 -0.1644
 1347TIP3   OH228235   2.624   2.644  11.253  0.1934  0.2179 -0.3930
 1347TIP3    H128236   2.540   2.676  11.286 -0.2564 -0.2821 -1.0326
 1347TIP3    H228237   2.614   2.548  11.249  1.4689 -0.0428  1.3690
 1348TIP3   OH228238   0.650   5.369  11.599 -0.0580 -0.0526  0.4003
 1348TIP3    H128239   0.608   5.311  11.662 -2.0159 -0.8647 -1.5277
 1348TIP3    H228240   0.711   5.313  11.551 -0.1879  0.0479  0.1146
 1349TIP3   OH228241   3.294   3.446  10.469  0.0669  0.4827  0.0382
 1349TIP3    H128242   3.248   3.365  10.493 -0.5770  0.0690 -2.3221
 1349TIP3    H228243   3.377   3.416  10.433  1.0035  1.0709  1.6321
 1350TIP3   OH228244   6.626   5.258  11.143  0.2045  0.2824 -0.5590
 1350TIP3    H128245   6.564   5.236  11.073  0.3893  0.3651 -0.7529
 1350TIP3    H228246   6.576   5.250  11.224  0.4451 -1.5652 -0.5570
 1351TIP3   OH228247   0.365   4.717  10.278 -0.2593  0.4756  0.2412
 1351TIP3    H128248   0.368   4.659  10.202  1.4288  0.1044  0.5423
 1351TIP3    H228249   0.354   4.658  10.352  1.6640  0.4553  0.5681
 1352TIP3   OH228250   5.875   2.862  11.458 -0.5374  0.6548 -0.2161
 1352TIP3    H128251   5.884   2.828  11.547  2.1854  0.2449 -0.5530
 1352TIP3    H228252   5.785   2.844  11.433 -0.4850 -2.1305  1.3104
 1353TIP3   OH228253   2.918   4.314  12.260  0.4536  0.3868 -0.1865
 1353TIP3    H128254   3.014   4.318  12.258  0.4204  1.1276 -1.0668
 1353TIP3    H228255   2.897   4.232  12.216  0.6891 -0.1907  0.7396
 1354TIP3   OH228256   4.121   5.844  11.771 -0.4659 -0.1257  0.1224
 1354TIP3    H128257   4.040   5.813  11.731 -0.0831 -0.5237 -0.3629
 1354TIP3    H228258   4.126   5.798  11.855 -0.1497 -1.0310 -0.3729
 1355TIP3   OH228259   0.939   6.570  11.831 -0.0883  0.4514 -0.3704
 1355TIP3    H128260   0.934   6.660  11.863 -2.4077  1.1527 -2.3526
 1355TIP3    H228261   0.854   6.555  11.791 -0.8599 -3.6368  2.2311
 1356TIP3   OH228262   2.172   0.185  10.266  0.0584  0.1064  0.3215
 1356TIP3    H128263   2.120   0.236  10.204 -0.1794 -0.3608  0.1318
 1356TIP3    H228264   2.198   0.107  10.217  1.4999  0.6388  0.1974
 1357TIP3   OH228265   0.652   4.508  11.497  0.0330 -0.0308 -0.2448
 1357TIP3    H128266   0.648   4.596  11.533 -1.5884 -0.3296  0.4155
 1357TIP3    H228267   0.745   4.485  11.499  0.7613  2.3789 -2.3405
 1358TIP3   OH228268   4.578   1.852  10.717 -0.3559  0.0785 -0.0437
 1358TIP3    H128269   4.509   1.813  10.663  0.5851 -1.3080 -0.3156
 1358TIP3    H228270   4.645   1.879  10.654  0.7009 -1.4511  0.3525
 1359TIP3   OH228271   2.798   6.395  11.928 -0.4425 -0.6702  0.3920
 1359TIP3    H128272   2.832   6.481  11.952 -0.0453 -0.8891  0.6238
 1359TIP3    H228273   2.871   6.353  11.882 -1.3454 -0.0574 -1.7372
 1360TIP3   OH228274   5.472   5.941  11.385  0.0218  0.2123 -0.3436
 1360TIP3    H128275   5.566   5.927  11.392 -0.0244 -0.8326 -1.5018
 1360TIP3    H228276   5.461   6.005  11.314 -0.1144  1.0897  0.4428
 1361TIP3   OH228277   1.871   4.077  10.166 -0.2595 -0.1364 -0.4763
 1361TIP3    H128278   1.965   4.061  10.152  0.0053  1.0688 -0.2357
 1361TIP3    H228279   1.844   4.008  10.226  0.3976 -0.6931 -0.7972
 1362TIP3   OH228280   5.533   2.771  11.265  0.7119  0.0292  0.0911
 1362TIP3    H128281   5.500   2.790  11.352 -0.5842 -2.1746  0.1792
 1362TIP3    H228282   5.460   2.792  11.206  0.3712 -1.4619 -0.0819
 1363TIP3   OH228283   2.337   0.693   9.787 -0.2181 -0.7897  0.5515
 1363TIP3    H128284   2.418   0.726   9.750  0.2339 -2.7074 -0.3082
 1363TIP3    H228285   2.286   0.662   9.711 -1.3621 -0.4460  1.1472
 1364TIP3   OH228286   4.037   1.554  11.840  0.4948  0.4810 -0.6683
 1364TIP3    H128287   3.945   1.567  11.862  0.5321 -1.7233  1.1484
 1364TIP3    H228288   4.043   1.578  11.748 -2.6576 -2.3092 -1.8271
 1365TIP3   OH228289   0.236   4.162   9.672 -0.2119  0.0908  0.1289
 1365TIP3    H128290   0.248   4.147   9.766 -0.0859 -0.9856 -0.0382
 1365TIP3    H228291   0.266   4.251   9.657  1.3477 -0.2896  0.8323
 1366TIP3   OH228292   5.252   1.078  11.182  0.0506  0.0796 -0.1577
 1366TIP3    H128293   5.215   1.111  11.263 -0.4200 -1.1288  0.1473
 1366TIP3    H228294   5.252   1.153  11.123 -1.1454  0.5736  0.4313
 1367TIP3   OH228295   3.657   2.194  10.414  0.2851 -0.4145  0.0659
 1367TIP3    H128296   3.592   2.143  10.462 -1.4400  0.8809 -0.7702
 1367TIP3    H228297   3.709   2.236  10.482  0.4777 -1.7247  0.7593
 1368TIP3   OH228298   4.294   4.214  10.658  0.1357 -0.0153 -0.0711
 1368TIP3    H128299   4.384   4.186  10.646 -0.2609 -0.7832 -1.5335
 1368TIP3    H228300   4.296   4.271  10.735  1.7337 -0.5523  0.3155
 1369TIP3   OH228301   1.016   5.699  10.893 -0.0592  0.2063  0.2778
 1369TIP3    H128302   1.018   5.750  10.974 -1.4218  1.8948 -0.6878
 1369TIP3    H228303   1.107   5.670  10.881  0.0684 -0.6535  2.6887
 1370TIP3   OH228304   6.047   4.037   9.000  0.0878  0.2586 -0.3121
 1370TIP3    H128305   6.065   4.101   8.932 -0.1305 -0.1608 -0.7728
 1370TIP3    H228306   5.955   4.051   9.023  0.3477  0.8514  0.3838
 1371TIP3   OH228307   0.953   0.357  11.022 -0.8543  0.3163 -0.5956
 1371TIP3    H128308   0.969   0.348  10.928 -0.3496 -0.7524 -0.4209
 1371TIP3    H228309   0.941   0.267  11.053 -0.3060  0.5989  0.4873
 1372TIP3   OH228310   5.669   6.162   8.821  0.6546  0.5831  0.7042
 1372TIP3    H128311   5.585   6.195   8.853  0.2138 -0.8132  1.0634
 1372TIP3    H228312   5.708   6.236   8.776 -1.4572  0.8494 -0.8431
 1373TIP3   OH228313   4.748   1.114  10.918 -0.0955  0.3729 -0.3189
 1373TIP3    H128314   4.721   1.202  10.894 -2.9768 -0.4246 -0.3265
 1373TIP3    H228315   4.667   1.064  10.923  1.4700 -2.4513 -0.8812
 1374TIP3   OH228316   0.769   5.327  10.649 -0.0136 -0.2673  0.2114
 1374TIP3    H128317   0.676   5.303  10.646 -0.5245  1.5638 -0.0643
 1374TIP3    H228318   0.815   5.248  10.621 -1.7173 -0.1420 -3.5321
 1375TIP3   OH228319   4.728   1.632   9.297 -0.5083 -0.2566  0.2175
 1375TIP3    H128320   4.755   1.724   9.299 -1.1254 -0.0490 -0.4353
 1375TIP3    H228321   4.658   1.627   9.362 -1.4951  0.0957 -0.7768
 1376TIP3   OH228322   0.624   3.300  12.434  0.4540  0.2702  0.3446
 1376TIP3    H128323   0.586   3.386  12.413  0.1346 -0.1818 -1.0000
 1376TIP3    H228324   0.697   3.290  12.373 -0.2538 -0.9154 -0.3383
 1377TIP3   OH228325   4.868   1.300   8.436 -0.5860 -0.2042  0.1431
 1377TIP3    H128326   4.820   1.321   8.356 -2.1460  2.7379  1.7019
 1377TIP3    H228327   4.959   1.322   8.416 -0.9701  0.5942 -0.7982
 1378TIP3   OH228328   2.337   0.511   9.987  0.5136  0.5651  0.3150
 1378TIP3    H128329   2.317   0.587   9.931  0.6408  0.7386  0.5066
 1378TIP3    H228330   2.278   0.520  10.061  2.0119  1.6710  1.4356
 1379TIP3   OH228331   2.201   5.691   9.911  0.2075  0.1879 -0.6010
 1379TIP3    H128332   2.256   5.686   9.990 -0.5384  1.5657  0.0479
 1379TIP3    H228333   2.146   5.613   9.916  0.4073  0.0771  0.0552
 1380TIP3   OH228334   1.743   4.652  11.149  0.6553  0.3836 -0.3310
 1380TIP3    H128335   1.831   4.629  11.177  0.2118  0.5783  1.2961
 1380TIP3    H228336   1.716   4.579  11.093  1.3904 -0.2820  0.1607
 1381TIP3   OH228337   5.805   6.505   9.179 -0.0827  0.2492  0.6140
 1381TIP3    H128338   5.739   6.464   9.124 -0.7779  1.1766  0.7452
 1381TIP3    H228339   5.791   6.466   9.266 -1.1861  1.2414  0.8942
 1382TIP3   OH228340   4.373   5.858  11.171 -0.4382  0.1797 -0.4064
 1382TIP3    H128341   4.400   5.810  11.093  1.7806  1.7320 -0.6898
 1382TIP3    H228342   4.339   5.941  11.138  0.9069  1.0239  0.2279
 1383TIP3   OH228343   5.943   2.118  10.663 -0.1609  0.0631 -0.0926
 1383TIP3    H128344   6.032   2.110  10.698 -0.2505  3.6071  1.3803
 1383TIP3    H228345   5.921   2.030  10.632  3.9063 -0.9290 -0.7734
 1384TIP3   OH228346   4.219   6.509  11.261 -0.7266 -0.1802  0.3064
 1384TIP3    H128347   4.230   6.431  11.207 -1.2818 -0.4059  0.5123
 1384TIP3    H228348   4.286   6.570  11.230  0.8402 -1.3532  1.2539
 1385TIP3   OH228349   3.580   5.217  11.755 -0.3852  0.8196 -1.1092
 1385TIP3    H128350   3.508   5.278  11.771  0.2716  1.1296  0.9913
 1385TIP3    H228351   3.646   5.268  11.710 -0.4880  1.2223 -0.8095
 1386TIP3   OH228352   1.769   3.721  11.857  0.2180  0.2078  0.2216
 1386TIP3    H128353   1.798   3.679  11.776 -2.0689 -1.5737  0.2528
 1386TIP3    H228354   1.799   3.812  11.848  1.7059 -0.3877 -1.7094
 1387TIP3   OH228355   6.111   0.673  12.193 -0.3145 -0.0649 -0.1731
 1387TIP3    H128356   6.146   0.612  12.258 -1.0311 -0.2132  0.0901
 1387TIP3    H228357   6.106   0.622  12.112 -1.6525 -0.6303  0.2277
 1388TIP3   OH228358   6.188   5.286   8.543 -0.6270 -0.3609 -0.0191
 1388TIP3    H128359   6.232   5.307   8.461 -2.2376  0.0919 -0.8148
 1388TIP3    H228360   6.224   5.201   8.569 -0.5192 -0.8036 -1.5114
 1389TIP3   OH228361   5.201   4.293  12.097 -0.4762 -0.2646 -0.1515
 1389TIP3    H128362   5.255   4.372  12.108 -1.7534  0.6399 -0.1302
 1389TIP3    H228363   5.159   4.281  12.182 -1.0876 -0.3554 -0.4609
 1390TIP3   OH228364   0.150   4.380  11.914 -0.4946 -0.1005  0.0919
 1390TIP3    H128365   0.170   4.474  11.906 -0.1850 -0.2987 -1.9366
 1390TIP3    H228366   0.234   4.339  11.932 -0.4923 -0.0937  0.0968
 1391TIP3   OH228367   0.183   5.257  10.861 -0.1891  0.0685 -0.3524
 1391TIP3    H128368   0.272   5.276  10.889 -0.1217  0.3389 -0.7417
 1391TIP3    H228369   0.186   5.166  10.829 -0.1652 -0.0849  0.0804
 1392TIP3   OH228370   5.787   0.999   8.839  0.1624  0.1902  0.4227
 1392TIP3    H128371   5.734   0.930   8.798 -0.0038  0.9057 -0.6280
 1392TIP3    H228372   5.868   1.000   8.788 -0.4670  1.8075 -0.6563
 1393TIP3   OH228373   3.502   1.931  10.244  0.2130 -0.0155 -0.0624
 1393TIP3    H128374   3.550   1.951  10.325  1.1966 -0.9411 -0.3934
 1393TIP3    H228375   3.410   1.940  10.267  0.4843 -0.2150  1.1506
 1394TIP3   OH228376   0.283   6.222  12.003 -0.2732  0.0368 -0.3204
 1394TIP3    H128377   0.315   6.175  12.080 -0.7764 -0.0014 -0.1265
 1394TIP3    H228378   0.320   6.176  11.928 -0.5398 -0.5018 -0.1253
 1395TIP3   OH228379   5.535   4.591   8.484  0.6003 -0.0836  0.0917
 1395TIP3    H128380   5.585   4.673   8.478  0.5621  0.1435  2.2481
 1395TIP3    H228381   5.592   4.532   8.534  1.1528 -1.8713 -2.4266
 1396TIP3   OH228382   1.253   6.660  10.172 -0.2568 -0.3232  0.5281
 1396TIP3    H128383   1.266   6.654  10.078 -1.6020  1.8875  0.1029
 1396TIP3    H228384   1.329   6.709  10.204 -0.9932  1.1556  0.1294
 1397TIP3   OH228385   5.176   4.783   9.553 -0.5013 -0.1972 -0.0424
 1397TIP3    H128386   5.177   4.816   9.643  1.3029 -2.3196  0.8033
 1397TIP3    H228387   5.088   4.746   9.542 -0.6325 -0.2199  0.9858
 1398TIP3   OH228388   4.606   2.581  11.724 -0.0426 -0.8360 -0.0447
 1398TIP3    H128389   4.613   2.666  11.682 -0.9667  0.0884  1.5906
 1398TIP3    H228390   4.687   2.536  11.701  0.1447  0.1795 -1.5247
 1399TIP3   OH228391   2.529   1.787  11.966  0.5749 -0.3538 -0.6412
 1399TIP3    H128392   2.568   1.726  12.028 -0.8321  0.1562  0.8081
 1399TIP3    H228393   2.484   1.732  11.902  1.0824 -0.8675 -0.5579
 1400TIP3   OH228394   1.493   3.040  11.123  0.4726  0.5832  0.3769
 1400TIP3    H128395   1.578   3.073  11.093  0.0387  0.9767 -0.4480
 1400TIP3    H228396   1.439   3.119  11.133  0.5654  0.4670  2.1547
 1401TIP3   OH228397   5.911   6.623  10.464 -0.3577 -0.2425  0.3621
 1401TIP3    H128398   5.819   6.603  10.444 -0.1589  0.0888 -0.9481
 1401TIP3    H228399   5.911   6.715  10.488 -0.5486 -0.5628  1.6573
 1402TIP3   OH228400   6.170   1.862  11.679 -0.0317 -0.0828 -0.1729
 1402TIP3    H128401   6.106   1.829  11.742  1.1294 -1.3699  0.3970
 1402TIP3    H228402   6.161   1.804  11.604 -0.6697  0.7878 -0.7949
 1403TIP3   OH228403   3.806   5.881  11.701 -0.2373  0.1857 -0.3392
 1403TIP3    H128404   3.828   5.789  11.716 -1.0223  0.0427  0.0022
 1403TIP3    H228405   3.735   5.899  11.762 -0.7881  0.7305 -1.1173
 1404TIP3   OH228406   3.767   2.317  10.629  0.0546  0.3524  0.2338
 1404TIP3    H128407   3.702   2.317  10.700  1.1258  0.0948  1.2556
 1404TIP3    H228408   3.762   2.405  10.592  0.1332  0.8089  1.2722
 1405TIP3   OH228409   3.742   6.487  10.069 -0.1339  0.2610 -0.6488
 1405TIP3    H128410   3.651   6.497  10.095 -0.1663 -1.1535 -0.1219
 1405TIP3    H228411   3.771   6.408  10.114  1.1709  0.3334 -1.3125
 1406TIP3   OH228412   5.999   1.676   9.169 -0.2299  0.5770  0.0913
 1406TIP3    H128413   5.934   1.730   9.123  0.8997  0.3958 -1.8004
 1406TIP3    H228414   5.966   1.587   9.160  0.0168  0.5374 -0.3846
 1407TIP3   OH228415   5.911   0.527   9.533 -0.5106 -0.4984  0.9472
 1407TIP3    H128416   5.938   0.618   9.515  2.4213 -1.5093 -0.4931
 1407TIP3    H228417   5.838   0.512   9.472 -0.7985  0.7723  0.9400
 1408TIP3   OH228418   0.059   2.651   8.925 -0.0520  0.4162  0.0617
 1408TIP3    H128419   0.089   2.562   8.908 -1.0807 -0.4870  2.4721
 1408TIP3    H228420   0.137   2.699   8.951  0.1114 -0.5533  1.4337
 1409TIP3   OH228421   0.521   0.599  11.803 -0.3466 -0.3446 -0.5598
 1409TIP3    H128422   0.449   0.580  11.742 -1.1936 -1.9924  0.8595
 1409TIP3    H228423   0.600   0.584  11.752 -0.9465  1.7186 -2.2292
 1410TIP3   OH228424   0.186   3.500  12.193 -0.2199  0.6718 -0.6968
 1410TIP3    H128425   0.097   3.481  12.164 -0.2161  2.6484 -2.2848
 1410TIP3    H228426   0.175   3.555  12.270 -0.2974 -0.9077  0.4597
 1411TIP3   OH228427   6.170   1.516  10.105 -0.5881 -0.7026 -0.1431
 1411TIP3    H128428   6.195   1.426  10.129 -3.2233 -1.5410 -0.2485
 1411TIP3    H228429   6.178   1.565  10.187  0.5650 -1.0786 -0.0117
 1412TIP3   OH228430   2.923   3.512  11.181  0.3685 -0.0511 -0.0171
 1412TIP3    H128431   2.905   3.605  11.175  1.0197  0.1384  0.8124
 1412TIP3    H228432   2.873   3.473  11.109 -1.1251  0.7519  0.5362
 1413TIP3   OH228433   1.183   5.580  10.556  0.5750 -0.9894 -0.2171
 1413TIP3    H128434   1.168   5.490  10.529  0.2103 -1.3134  0.9909
 1413TIP3    H228435   1.098   5.611  10.586  0.6931 -0.2351 -0.6344
 1414TIP3   OH228436   3.816   4.018  11.700  0.5083 -0.0863 -0.0513
 1414TIP3    H128437   3.773   3.941  11.738 -2.0828  1.2853  0.0473
 1414TIP3    H228438   3.841   3.991  11.612 -0.7773 -0.9432 -0.1811
 1415TIP3   OH228439   1.314   0.342   9.235  0.2648 -0.2654 -0.2740
 1415TIP3    H128440   1.400   0.314   9.204  0.7205 -1.2623  1.7588
 1415TIP3    H228441   1.321   0.438   9.240  2.1606 -0.4427  2.1861
 1416TIP3   OH228442   1.959   2.695  10.451 -0.1444  0.3943 -0.2615
 1416TIP3    H128443   1.982   2.620  10.506 -0.9660  0.1291 -0.2732
 1416TIP3    H228444   2.022   2.763  10.475  0.5294 -0.2521 -0.1572
 1417TIP3   OH228445   2.155   6.150  10.564  0.1061 -0.2829 -0.0161
 1417TIP3    H128446   2.117   6.077  10.613 -0.6495  0.9037  1.2581
 1417TIP3    H228447   2.213   6.109  10.500  0.5278 -1.9495  1.3607
 1418TIP3   OH228448   5.133   2.672  11.336 -0.3757  0.0284 -0.1437
 1418TIP3    H128449   5.179   2.637  11.412 -0.7901 -1.4431 -0.5369
 1418TIP3    H228450   5.042   2.645  11.348 -0.6600  0.7553 -0.6072
 1419TIP3   OH228451   5.279   2.535  11.520 -0.0868 -0.1001 -0.1116
 1419TIP3    H128452   5.307   2.445  11.501 -1.0231 -0.2861 -0.6493
 1419TIP3    H228453   5.205   2.526  11.580 -1.1650  0.2287 -1.3532
 1420TIP3   OH228454   0.805   3.845   8.426  0.0182  0.5795  0.1306
 1420TIP3    H128455   0.840   3.820   8.340  2.1253  0.6910  0.8969
 1420TIP3    H228456   0.819   3.767   8.480 -1.5962  0.3940  0.3484
 1421TIP3   OH228457   6.578   6.082  10.976 -0.0067 -1.1981 -0.0672
 1421TIP3    H128458   6.488   6.082  10.945 -0.2739 -0.8332  0.6823
 1421TIP3    H228459   6.584   6.157  11.035  0.3269 -2.1377  1.1558
 1422TIP3   OH228460   6.468   4.981  12.134  0.1514 -0.1317  0.0302
 1422TIP3    H128461   6.554   4.948  12.160  0.8165 -0.5215 -2.4025
 1422TIP3    H228462   6.475   4.995  12.040 -2.0534  1.1390 -0.0171
 1423TIP3   OH228463   2.936   6.683  10.130  0.3757 -0.3033 -0.1754
 1423TIP3    H128464   2.856   6.678  10.079 -0.2861  0.4023  0.7601
 1423TIP3    H228465   2.961   6.775  10.128  0.0251 -0.1559  1.2172
 1424TIP3   OH228466   2.068   0.552  12.151  0.1250 -0.4975  0.3381
 1424TIP3    H128467   2.147   0.578  12.199  2.6364 -0.9430 -3.1719
 1424TIP3    H228468   2.026   0.635  12.128 -0.4936 -0.2534  2.1830
 1425TIP3   OH228469   1.976   3.064  12.433 -0.1431  0.0564  0.5368
 1425TIP3    H128470   2.000   3.126  12.503  0.4626 -0.9084  1.2184
 1425TIP3    H228471   2.052   3.064  12.375 -0.6653  0.8900 -0.1570
 1426TIP3   OH228472   0.596   2.376  12.399 -0.2849 -0.6722 -0.3139
 1426TIP3    H128473   0.665   2.391  12.463 -2.3474 -0.1793  1.9226
 1426TIP3    H228474   0.634   2.405  12.316  2.0283 -0.0472  0.8745
 1427TIP3   OH228475   6.109   6.208   9.106 -0.1923 -0.0646  0.2364
 1427TIP3    H128476   6.117   6.145   9.177 -2.2027 -0.8028 -0.1218
 1427TIP3    H228477   6.024   6.188   9.066 -0.5450  2.3668 -0.3831
 1428TIP3   OH228478   2.056   1.991   9.130  0.3121 -0.4625 -0.3788
 1428TIP3    H128479   2.006   2.037   9.063  0.7128  1.2838  0.4373
 1428TIP3    H228480   2.138   1.968   9.088  0.8453  1.2432 -0.3477
 1429TIP3   OH228481   5.171   5.784  11.114  0.1951 -0.3133 -0.0268
 1429TIP3    H128482   5.100   5.842  11.140  1.1034  1.6404 -1.6503
 1429TIP3    H228483   5.214   5.760  11.196  0.9463  2.9285  0.6498
 1430TIP3   OH228484   2.446   0.364  10.707 -0.4060 -0.3821 -0.1929
 1430TIP3    H128485   2.385   0.438  10.716 -0.4588 -0.5146  0.5792
 1430TIP3    H228486   2.392   0.287  10.726 -0.5419 -0.7111 -1.7288
 1431TIP3   OH228487   5.328   4.678   9.953  0.0486 -0.1790  0.2924
 1431TIP3    H128488   5.285   4.606   9.908  2.6733 -2.4294  1.0750
 1431TIP3    H228489   5.412   4.641   9.982  0.7009  2.6499  2.4540
 1432TIP3   OH228490   6.029   6.343  11.809 -0.4082  0.5745 -0.6417
 1432TIP3    H128491   6.020   6.321  11.901  1.6843 -2.0726 -0.9364
 1432TIP3    H228492   6.083   6.422  11.808  2.0852 -0.9821  0.4669
 1433TIP3   OH228493   1.849   2.913  11.936 -0.0389 -0.7427  0.5541
 1433TIP3    H128494   1.832   3.007  11.943 -0.5031 -0.8751  1.3972
 1433TIP3    H228495   1.937   2.908  11.899 -0.7643 -0.0126 -1.4347
 1434TIP3   OH228496   3.584   1.559   9.524  0.2746  0.3333 -0.1542
 1434TIP3    H128497   3.572   1.624   9.454  1.1474  0.5399 -0.1207
 1434TIP3    H228498   3.561   1.476   9.483  0.1295  0.5401 -0.4986
 1435TIP3   OH228499   4.197   1.830  11.519 -0.5148  0.0617  0.1784
 1435TIP3    H128500   4.197   1.925  11.530 -0.6844 -0.0034  0.7668
 1435TIP3    H228501   4.272   1.812  11.462 -0.4891  0.5437  0.0563
 1436TIP3   OH228502   5.475   5.791  11.016  0.2656  0.9137  0.2013
 1436TIP3    H128503   5.407   5.859  11.019 -0.1152  0.5176  1.0135
 1436TIP3    H228504   5.440   5.720  11.070  0.4752 -0.1060 -0.9593
 1437TIP3   OH228505   4.899   6.533  11.685 -0.0496 -0.3234  0.4277
 1437TIP3    H128506   4.953   6.607  11.660 -2.2100  1.0564 -0.4380
 1437TIP3    H228507   4.855   6.507  11.604 -3.1883  0.8186  1.5966
 1438TIP3   OH228508   2.681   4.861  10.229 -0.3320 -0.2221  0.0274
 1438TIP3    H128509   2.771   4.835  10.210 -0.3545 -0.1292 -0.2186
 1438TIP3    H228510   2.644   4.881  10.143 -1.0588 -1.7680 -0.0505
 1439TIP3   OH228511   0.169   1.938  12.271 -0.1075  0.7946 -0.2987
 1439TIP3    H128512   0.251   1.972  12.309 -0.0668 -0.7423  1.1014
 1439TIP3    H228513   0.140   2.007  12.212  1.2020  2.2033  0.6210
 1440TIP3   OH228514   2.208   0.854  10.605 -0.5461  0.3436 -0.6695
 1440TIP3    H128515   2.124   0.808  10.597 -0.8401  0.8945 -0.8568
 1440TIP3    H228516   2.207   0.890  10.694  1.0157 -2.5191  0.6147
 1441TIP3   OH228517   0.535   5.848   9.856 -0.1965  0.3069 -0.0245
 1441TIP3    H128518   0.558   5.912   9.789  0.4305  0.0632 -0.0462
 1441TIP3    H228519   0.585   5.875   9.933  2.5865 -1.9071 -0.8954
 1442TIP3   OH228520   4.298   4.380   9.598  0.3913 -0.3996  0.0419
 1442TIP3    H128521   4.274   4.352   9.686  1.9038  0.6349  0.8298
 1442TIP3    H228522   4.296   4.475   9.601  0.3819 -0.3475 -1.0819
 1443TIP3   OH228523   4.678   3.213  11.754  0.1305  0.0413  0.1333
 1443TIP3    H128524   4.708   3.134  11.799  1.6782  0.1847 -0.5922
 1443TIP3    H228525   4.680   3.281  11.821  0.4471 -0.1720  0.3409
 1444TIP3   OH228526   1.355   3.422  12.404 -0.2650 -0.1330  0.0576
 1444TIP3    H128527   1.307   3.399  12.483 -1.0153  0.0850 -0.3124
 1444TIP3    H228528   1.357   3.342  12.352 -0.4318 -0.0826 -0.0268
 1445TIP3   OH228529   3.050   5.138   9.657 -0.4242  0.5033  0.5098
 1445TIP3    H128530   2.979   5.081   9.685 -0.9185  0.8415 -0.0397
 1445TIP3    H228531   3.077   5.103   9.573  0.9555 -0.4167  1.2961
 1446TIP3   OH228532   1.210   4.545   9.878  0.1747 -0.0138 -0.4270
 1446TIP3    H128533   1.139   4.599   9.843  1.4163  1.4577 -0.7328
 1446TIP3    H228534   1.289   4.595   9.863  1.2649 -1.4354  0.3083
 1447TIP3   OH228535   2.271   2.775  10.366  0.5000 -0.3655 -0.5166
 1447TIP3    H128536   2.280   2.680  10.376  0.1744 -0.2344  1.4156
 1447TIP3    H228537   2.247   2.806  10.453 -0.8127  1.3347 -1.4128
 1448TIP3   OH228538   5.045   0.897  11.041  0.3766 -0.1892 -0.3596
 1448TIP3    H128539   5.053   0.833  11.113 -2.7404  0.6130  0.8358
 1448TIP3    H228540   5.105   0.968  11.066 -0.1348 -0.2391  1.1193
 1449TIP3   OH228541   1.180   6.313  11.397 -0.2921  0.2805 -0.2052
 1449TIP3    H128542   1.103   6.369  11.392  0.9160  2.0184 -0.2052
 1449TIP3    H228543   1.246   6.358  11.343  0.4264 -1.6968 -1.0957
 1450TIP3   OH228544   5.769   4.292   9.772 -0.1848  0.2163 -0.4620
 1450TIP3    H128545   5.790   4.254   9.857 -0.4570  1.9112  0.4034
 1450TIP3    H228546   5.777   4.386   9.785  2.1175  0.4944 -2.9462
 1451TIP3   OH228547   5.236   3.013   9.508 -0.2556 -0.1737  0.2945
 1451TIP3    H128548   5.317   2.999   9.556  0.0699  0.1214 -0.1602
 1451TIP3    H228549   5.174   2.952   9.548 -0.3906  1.0418  2.0217
 1452TIP3   OH228550   2.761   4.324   9.774  0.0036  0.4111  0.1899
 1452TIP3    H128551   2.688   4.312   9.714 -0.1266 -2.1703  0.7620
 1452TIP3    H228552   2.839   4.310   9.721 -0.0879 -1.1084  0.4267
 1453TIP3   OH228553   5.134   1.597  11.889  0.0550 -0.1412 -0.7422
 1453TIP3    H128554   5.171   1.680  11.921 -0.1632 -0.8215  1.4334
 1453TIP3    H228555   5.073   1.623  11.820  0.7242  1.4235 -0.7818
 1454TIP3   OH228556   4.948   2.447  11.916 -0.7122 -0.3848 -0.3950
 1454TIP3    H128557   4.890   2.466  11.842 -1.4638  1.6643  0.6268
 1454TIP3    H228558   4.893   2.400  11.978 -0.3094 -1.3819 -0.7729
 1455TIP3   OH228559   2.310   1.217  12.219 -0.3402  0.3565 -0.5297
 1455TIP3    H128560   2.321   1.300  12.173  0.0028  0.0069 -1.0941
 1455TIP3    H228561   2.356   1.153  12.165  2.3237  0.3169  1.5444
 1456TIP3   OH228562   0.498   1.097   9.688 -0.4377 -0.0972 -0.2379
 1456TIP3    H128563   0.413   1.125   9.653 -0.2688 -0.0277 -0.5946
 1456TIP3    H228564   0.552   1.083   9.611  0.4240  1.5828  0.0167
 1457TIP3   OH228565   3.344   4.046   9.016  0.4830 -0.8066  0.5416
 1457TIP3    H128566   3.431   4.009   9.002  0.3254 -1.0488  0.1880
 1457TIP3    H228567   3.334   4.112   8.947  1.4717  1.2194  2.2194
 1458TIP3   OH228568   1.105   3.122  10.226 -0.0656 -0.3230 -0.5862
 1458TIP3    H128569   1.133   3.147  10.314  1.3322  2.1165 -1.6221
 1458TIP3    H228570   1.180   3.144  10.170 -1.0038 -1.5546 -2.4399
 1459TIP3   OH228571   3.818   2.189   9.197 -0.0455  0.4676 -0.7408
 1459TIP3    H128572   3.826   2.242   9.118  1.0326  2.3141  0.5062
 1459TIP3    H228573   3.736   2.217   9.238 -0.5710 -0.4377 -1.1475
 1460TIP3   OH228574   6.619   4.495   9.604 -0.1852 -0.1232  0.2656
 1460TIP3    H128575   6.699   4.461   9.645  0.9311 -0.9007 -2.3140
 1460TIP3    H228576   6.646   4.518   9.515 -2.2736  2.1252  0.1020
 1461TIP3   OH228577   5.520   2.586  10.304  0.3435 -0.0554 -0.0610
 1461TIP3    H128578   5.537   2.610  10.213 -0.7283 -1.2418 -0.6125
 1461TIP3    H228579   5.453   2.648  10.333  0.0856 -0.2013 -0.3465
 1462TIP3   OH228580   1.719   2.451  11.222  0.2267  0.2337  0.0165
 1462TIP3    H128581   1.735   2.389  11.294 -2.8459  0.1678  0.7874
 1462TIP3    H228582   1.721   2.537  11.264  0.3523  0.3534 -0.2307
 1463TIP3   OH228583   3.965   5.874   9.672 -0.0106  0.0489  0.4336
 1463TIP3    H128584   3.922   5.833   9.598 -1.6965 -0.2381  1.5177
 1463TIP3    H228585   3.989   5.801   9.730  2.8364  0.0984 -0.5106
 1464TIP3   OH228586   4.816   1.037  10.597  0.1994 -0.0351 -0.0094
 1464TIP3    H128587   4.880   1.082  10.542 -0.4215  1.1956  0.2540
 1464TIP3    H228588   4.845   1.054  10.686 -0.5129  0.5631  0.1125
 1465TIP3   OH228589   3.007   1.263  11.619 -0.1328  0.1660  0.4900
 1465TIP3    H128590   2.958   1.185  11.645  1.7469 -1.0321  0.6403
 1465TIP3    H228591   3.092   1.230  11.590  1.2871  2.2654  1.9676
 1466TIP3   OH228592   4.245   3.086   9.953  0.0260 -0.5005  0.1105
 1466TIP3    H128593   4.306   3.052   9.887 -1.9843 -0.7739 -1.7298
 1466TIP3    H228594   4.278   3.173   9.974  1.7979 -1.1675  0.2265
 1467TIP3   OH228595   2.945   4.872  10.522 -0.6903  0.1432 -0.5301
 1467TIP3    H128596   2.885   4.890  10.595  0.0689 -1.6032  0.5988
 1467TIP3    H228597   2.900   4.805  10.470 -0.1766 -0.4565 -0.2214
 1468TIP3   OH228598   3.924   4.108  11.077  0.0992 -0.8245 -0.5088
 1468TIP3    H128599   3.931   4.019  11.110 -0.0397 -1.6972 -2.6879
 1468TIP3    H228600   3.832   4.117  11.050  0.1211 -0.0244 -0.3539
 1469TIP3   OH228601   4.320   1.229   8.861 -0.8811  0.4661 -0.6244
 1469TIP3    H128602   4.320   1.234   8.956 -0.4269 -0.4209 -0.5757
 1469TIP3    H228603   4.408   1.198   8.838 -1.6771 -1.4521 -1.2124
 1470TIP3   OH228604   2.761   2.865  10.987 -0.1063  0.2645  0.0461
 1470TIP3    H128605   2.793   2.836  10.902  0.6940  1.9109 -0.2540
 1470TIP3    H228606   2.787   2.795  11.047 -1.8542 -1.5599 -1.2078
 1471TIP3   OH228607   5.121   4.114  10.832  0.6456  0.1935  0.6021
 1471TIP3    H128608   5.190   4.135  10.769  0.4309 -1.2359 -0.1383
 1471TIP3    H228609   5.113   4.019  10.829 -1.1094  0.2880  0.9257
 1472TIP3   OH228610   3.538   4.860  12.277 -0.1817  0.4286  0.3991
 1472TIP3    H128611   3.490   4.896  12.351 -0.4734 -1.4960  1.1925
 1472TIP3    H228612   3.528   4.765  12.284  1.3838  0.0901 -1.0244
 1473TIP3   OH228613   1.812   3.978  11.765 -0.2445 -0.8999 -0.4522
 1473TIP3    H128614   1.778   3.962  11.677  0.5245 -0.1200 -0.9130
 1473TIP3    H228615   1.896   4.023  11.750 -0.7444  0.5019  0.6967
 1474TIP3   OH228616   4.465   2.742   9.331 -0.2920  0.0699  0.1953
 1474TIP3    H128617   4.435   2.830   9.307  0.9182  0.9269  1.5859
 1474TIP3    H228618   4.524   2.717   9.260  0.7948  1.2155  0.6336
 1475TIP3   OH228619   0.140   4.543  10.482  0.4893  0.1687 -0.4038
 1475TIP3    H128620   0.196   4.604  10.529 -1.0529  1.3182  0.0137
 1475TIP3    H228621   0.157   4.458  10.523  0.0776  0.9299  1.4367
 1476TIP3   OH228622   2.307   5.256  11.778 -0.0410 -0.0816  0.1412
 1476TIP3    H128623   2.351   5.219  11.854 -1.0792 -0.4828  0.5705
 1476TIP3    H228624   2.260   5.332  11.812  0.4267  0.4318 -0.3382
 1477TIP3   OH228625   4.275   4.621   9.906  0.0656 -0.1156 -0.1831
 1477TIP3    H128626   4.357   4.669   9.909  0.6684 -0.8692 -2.5892
 1477TIP3    H228627   4.207   4.687   9.921  1.0265  0.7789  0.3262
 1478TIP3   OH228628   5.549   2.786   8.985 -0.4027 -0.5282  0.5655
 1478TIP3    H128629   5.482   2.755   9.046 -1.5734  0.5374 -0.1241
 1478TIP3    H228630   5.524   2.876   8.966  1.4799  0.0210  0.5742
 1479TIP3   OH228631   2.413   3.164  10.666  0.3980 -0.5726  0.1620
 1479TIP3    H128632   2.400   3.086  10.720 -2.3391 -0.5260 -0.3043
 1479TIP3    H228633   2.325   3.196  10.648  1.4029  1.9890 -0.6432
 1480TIP3   OH228634   3.274   0.269  10.488  0.0393  0.8592  0.2038
 1480TIP3    H128635   3.300   0.336  10.424 -1.3971  1.3869  0.1313
 1480TIP3    H228636   3.239   0.198  10.435  3.5742 -1.0329  0.1232
 1481TIP3   OH228637   5.293   6.389   9.485 -0.3890 -0.0765 -0.3710
 1481TIP3    H128638   5.291   6.331   9.561 -1.1294  1.6369  0.9904
 1481TIP3    H228639   5.271   6.333   9.411  0.2066 -1.7740  0.6835
 1482TIP3   OH228640   6.367   4.797  10.428 -0.2567  0.1981 -0.6281
 1482TIP3    H128641   6.437   4.793  10.493 -0.8075 -0.2686 -0.0407
 1482TIP3    H228642   6.411   4.785  10.344  0.2381 -1.3342 -0.1797
 1483TIP3   OH228643   4.064   3.990  10.200 -0.0015  0.4856  0.0183
 1483TIP3    H128644   3.970   3.996  10.181  0.0214  0.8026  0.0067
 1483TIP3    H228645   4.072   4.011  10.293 -0.1206 -1.1421  0.4206
 1484TIP3   OH228646   3.490   5.465  10.648  0.2385  0.1811 -0.4769
 1484TIP3    H128647   3.541   5.464  10.729  1.8739 -3.0612 -1.3812
 1484TIP3    H228648   3.530   5.534  10.596 -0.2339  1.6805  1.0417
 1485TIP3   OH228649   6.263   4.190  11.615 -0.2944 -0.0280  0.4300
 1485TIP3    H128650   6.185   4.154  11.658 -0.7833 -0.3972 -0.7454
 1485TIP3    H228651   6.287   4.124  11.550 -0.1730  0.9815 -0.5710
 1486TIP3   OH228652   5.681   3.019   9.926  0.6088 -0.5886 -0.2539
 1486TIP3    H128653   5.735   3.022   9.847  0.3618 -0.4852 -0.4199
 1486TIP3    H228654   5.718   2.948   9.978  1.3612 -0.0583 -0.0378
 1487TIP3   OH228655   6.410   4.854   8.551  0.3307  0.6182  0.2032
 1487TIP3    H128656   6.495   4.846   8.508  0.6433  1.8487  0.5553
 1487TIP3    H228657   6.422   4.811   8.636  0.4829  0.4526  0.0983
 1488TIP3   OH228658   3.122   6.180   9.714  0.0443  0.1846  0.2421
 1488TIP3    H128659   3.133   6.203   9.806 -1.6437  0.3760  0.4273
 1488TIP3    H228660   3.197   6.220   9.670  0.4387  0.7759  1.4026
 1489TIP3   OH228661   4.116   4.141  11.501  0.1103  0.1415 -0.3747
 1489TIP3    H128662   4.093   4.048  11.495  1.6404 -0.3813  1.1140
 1489TIP3    H228663   4.148   4.163  11.414 -2.5364 -0.0132 -1.4776
 1490TIP3   OH228664   2.102   1.183  12.395 -0.6269  0.2718  0.7289
 1490TIP3    H128665   2.162   1.204  12.323 -0.2758  0.3413  1.0430
 1490TIP3    H228666   2.035   1.251  12.390 -0.7416  0.1319  0.3103
 1491TIP3   OH228667   0.209   3.873   9.906 -0.2303  0.1333  0.3484
 1491TIP3    H128668   0.184   3.860   9.998 -0.7198  1.0723  0.3563
 1491TIP3    H228669   0.296   3.912   9.910 -0.6090  0.9893  0.4490
 1492TIP3   OH228670   0.353   5.486  10.709 -0.2976  0.2888  0.0920
 1492TIP3    H128671   0.270   5.526  10.738 -0.4101  0.4249 -0.4156
 1492TIP3    H228672   0.372   5.529  10.626 -0.9795 -1.5073 -1.0259
 1493TIP3   OH228673   1.219   5.696   9.978 -0.1065 -0.3080  0.2914
 1493TIP3    H128674   1.269   5.730  10.052  1.1198 -0.5513 -0.3812
 1493TIP3    H228675   1.226   5.601   9.986 -0.5009 -0.3423  0.2177
 1494TIP3   OH228676   5.270   6.069   9.485  0.5374 -0.5313  0.2583
 1494TIP3    H128677   5.321   5.997   9.450  0.0207 -0.7455 -0.0692
 1494TIP3    H228678   5.247   6.122   9.408  0.2530 -0.4518  0.3941
 1495TIP3   OH228679   5.955   6.629   9.730  0.4879 -0.4707  0.2491
 1495TIP3    H128680   5.935   6.536   9.717  1.0007 -0.5752  0.2031
 1495TIP3    H228681   5.871   6.673   9.719  0.2547 -0.9221  0.1956
 1496TIP3   OH228682   6.017   0.813   9.513 -0.2155 -0.5817  0.1234
 1496TIP3    H128683   6.096   0.852   9.549  0.8373 -2.1397 -0.3914
 1496TIP3    H228684   6.007   0.853   9.427 -0.9727  0.8396  0.8326
 1497TIP3   OH228685   0.284   4.663  12.182  0.0863  0.3620 -0.0541
 1497TIP3    H128686   0.304   4.695  12.094  0.5681  2.5836  0.8027
 1497TIP3    H228687   0.189   4.648  12.182  0.1035  0.2067 -0.9721
 1498TIP3   OH228688   4.780   4.928   8.972 -0.1531 -0.2801 -0.3185
 1498TIP3    H128689   4.718   4.979   8.921 -0.5975  0.4213  0.8866
 1498TIP3    H228690   4.858   4.924   8.917 -1.4939 -1.9293 -2.2459
 1499TIP3   OH228691   3.335   5.326  10.830 -0.0170 -0.1219  0.1389
 1499TIP3    H128692   3.350   5.365  10.744 -1.8806  2.6476  0.9287
 1499TIP3    H228693   3.421   5.327  10.872  0.7256 -0.6120 -1.2947
 1500TIP3   OH228694   2.973   6.587   9.660 -0.4275 -0.1976  0.6372
 1500TIP3    H128695   2.991   6.549   9.746 -0.1662 -2.1039 -0.1919
 1500TIP3    H228696   3.026   6.535   9.599 -2.5008 -0.6164 -0.9446
 1501TIP3   OH228697   1.590   4.080  10.853 -0.0253 -0.7207 -0.0557
 1501TIP3    H128698   1.506   4.055  10.891 -0.3239 -0.7046 -0.6841
 1501TIP3    H228699   1.568   4.137  10.780  0.5166 -0.9250 -0.3934
 1502TIP3   OH228700   6.371   0.314  10.559 -0.3548 -0.6405 -0.3964
 1502TIP3    H128701   6.276   0.309  10.555 -0.4736  0.1814  0.7166
 1502TIP3    H228702   6.389   0.406  10.579  0.4117 -1.4683  3.7605
 1503TIP3   OH228703   3.024   0.250  10.326  0.2087  0.2188  0.5004
 1503TIP3    H128704   3.028   0.316  10.256 -1.0022 -0.8905 -0.6775
 1503TIP3    H228705   3.092   0.186  10.303  1.7553  1.2702  1.9353
 1504TIP3   OH228706   4.961   0.396  10.442  0.0470 -0.1535  0.0371
 1504TIP3    H128707   4.965   0.309  10.481 -0.1397  1.1616  3.3208
 1504TIP3    H228708   4.868   0.409  10.422  0.0901 -0.7113 -0.5488
 1505TIP3   OH228709   0.708   6.499   9.283  0.4189  0.2530  0.5810
 1505TIP3    H128710   0.795   6.504   9.244  1.0259 -0.6029  1.7811
 1505TIP3    H228711   0.663   6.577   9.250  0.7329 -0.6208 -2.1699
 1506TIP3   OH228712   2.554   0.556  11.975 -0.3165 -0.1272 -0.6285
 1506TIP3    H128713   2.625   0.581  11.917 -0.7290  0.4527 -0.8918
 1506TIP3    H228714   2.537   0.635  12.028 -0.8983 -0.1874 -0.7148
 1507TIP3   OH228715   4.190   1.916  11.863 -0.3135 -0.4429  0.4582
 1507TIP3    H128716   4.116   1.927  11.803  0.2843  0.4433 -0.1315
 1507TIP3    H228717   4.152   1.872  11.939 -1.4462  0.0011  0.1700
 1508TIP3   OH228718   1.562   2.313  10.827 -0.5622 -0.1884  0.0374
 1508TIP3    H128719   1.561   2.272  10.913  2.4620  1.9124  1.2661
 1508TIP3    H228720   1.562   2.407  10.845  0.7012  0.3248 -2.2129
 1509TIP3   OH228721   5.465   1.697  11.361  0.1512  0.8561  0.4097
 1509TIP3    H128722   5.538   1.635  11.358 -0.0747  0.6201 -0.4569
 1509TIP3    H228723   5.417   1.673  11.440  1.1517  1.1871  1.1456
 1510TIP3   OH228724   6.012   2.631  10.196 -0.0768  0.7820 -0.2485
 1510TIP3    H128725   6.082   2.646  10.259  0.6037 -2.5129 -0.0367
 1510TIP3    H228726   5.939   2.597  10.249 -1.1624  2.2274 -0.7361
 1511TIP3   OH228727   6.319   0.509  12.354 -0.0602  0.5907  0.2076
 1511TIP3    H128728   6.303   0.470  12.440  1.1106  0.9032  0.5780
 1511TIP3    H228729   6.387   0.453  12.315  0.1977  1.0906 -0.0669
 1512TIP3   OH228730   1.728   4.789  10.877 -0.0879 -0.4155 -0.4435
 1512TIP3    H128731   1.754   4.844  10.803 -0.6066  0.5464  0.0703
 1512TIP3    H228732   1.811   4.766  10.920  0.1641 -0.4461 -0.9284
 1513TIP3   OH228733   5.663   6.682   8.688 -0.3127  0.4196 -0.5056
 1513TIP3    H128734   5.606   6.751   8.724  0.2777  0.9648 -0.5914
 1513TIP3    H228735   5.717   6.728   8.624  1.9560  0.4703  1.3261
 1514TIP3   OH228736   0.895   5.753   9.743 -0.4524  0.5009  0.1267
 1514TIP3    H128737   0.825   5.691   9.722 -0.1807 -0.1273  1.0230
 1514TIP3    H228738   0.908   5.803   9.662 -0.5667 -0.7384 -0.6840
 1515TIP3   OH228739   0.231   6.540  12.282  0.0385  0.4041  0.2592
 1515TIP3    H128740   0.317   6.502  12.298 -0.5420 -1.4300 -0.6315
 1515TIP3    H228741   0.172   6.465  12.280 -1.1713  1.3231 -1.8273
 1516TIP3   OH228742   4.177   2.160   8.975 -0.3461  0.0661 -0.1531
 1516TIP3    H128743   4.194   2.091   9.039 -3.1995  0.0282  0.7263
 1516TIP3    H228744   4.090   2.140   8.941  0.3012  1.1605 -2.6977
 1517TIP3   OH228745   5.048   6.463  10.034  0.3573 -0.1418  0.3124
 1517TIP3    H128746   5.101   6.470   9.955 -0.1952  1.4092  0.0297
 1517TIP3    H228747   5.088   6.526  10.094  0.5552 -1.0522  1.1547
 1518TIP3   OH228748   3.311   4.297   9.796  0.1673 -0.4162 -0.4675
 1518TIP3    H128749   3.397   4.331   9.769 -0.5104  1.8719 -0.0067
 1518TIP3    H228750   3.298   4.333   9.884 -0.5545 -2.1636  0.1830
 1519TIP3   OH228751   0.543   5.861  10.223  0.3725  0.4216  0.2944
 1519TIP3    H128752   0.507   5.882  10.309  0.5333 -1.1917  0.7861
 1519TIP3    H228753   0.637   5.879  10.231  0.4868 -0.3160  0.6624
 1520TIP3   OH228754   2.915   3.165   9.009  0.1269  0.1334 -0.3150
 1520TIP3    H128755   2.979   3.213   8.956 -0.2650  0.3418 -0.6035
 1520TIP3    H228756   2.894   3.226   9.080  0.9553 -0.3006  0.3220
 1521TIP3   OH228757   2.660   2.259   9.938 -0.2951  0.2514  0.3856
 1521TIP3    H128758   2.584   2.234   9.885  1.0045 -0.0330 -1.3984
 1521TIP3    H228759   2.699   2.175   9.965 -1.4128  0.3594  2.6105
 1522TIP3   OH228760   1.548   5.630   9.187 -0.1058 -0.1260 -0.2227
 1522TIP3    H128761   1.557   5.552   9.132 -0.4571  0.1071 -0.6197
 1522TIP3    H228762   1.545   5.596   9.276 -1.0168 -0.6306 -0.4353
 1523TIP3   OH228763   0.722   2.599   9.287 -0.0410  0.1760  0.5976
 1523TIP3    H128764   0.743   2.675   9.233  0.9238  0.0805  0.8241
 1523TIP3    H228765   0.750   2.623   9.375  1.3833 -0.8719  0.4648
 1524TIP3   OH228766   3.740   2.593   8.714  0.1332 -0.4596 -0.3804
 1524TIP3    H128767   3.797   2.665   8.687 -0.1086 -0.4143 -0.7817
 1524TIP3    H228768   3.794   2.515   8.705  0.4337 -0.3243  0.1684
 1525TIP3   OH228769   6.448   5.866   8.864  0.2279  0.1373  0.0701
 1525TIP3    H128770   6.378   5.882   8.927  1.6596 -1.6537  2.3082
 1525TIP3    H228771   6.468   5.952   8.827 -1.2368  1.1426  1.4891
 1526TIP3   OH228772   4.398   0.639  10.066  0.5838 -0.4227  0.4929
 1526TIP3    H128773   4.312   0.669  10.096  0.6885  0.6820 -0.2678
 1526TIP3    H228774   4.379   0.592   9.984  0.5637 -1.4105  1.0453
 1527TIP3   OH228775   0.998   2.743   9.034 -0.8119  0.1900  0.5717
 1527TIP3    H128776   0.974   2.718   8.945  0.0608  1.1437  0.0545
 1527TIP3    H228777   1.051   2.670   9.066 -2.0626 -0.6748  0.7397
 1528TIP3   OH228778   1.983   5.475  11.704 -0.2660 -0.3226  0.1091
 1528TIP3    H128779   1.936   5.444  11.781  2.4806 -1.7384  1.3324
 1528TIP3    H228780   1.943   5.560  11.684 -0.8023  0.3057  3.3676
 1529TIP3   OH228781   5.654   6.336   9.417 -0.8476 -0.2591  0.3332
 1529TIP3    H128782   5.629   6.252   9.378 -0.7154  0.1275 -0.5950
 1529TIP3    H228783   5.685   6.312   9.505  1.3016 -1.4808 -0.6740
 1530TIP3   OH228784   6.028   4.399  10.458 -0.2956 -0.4117 -0.2516
 1530TIP3    H128785   6.041   4.438  10.372  1.2256  0.4513  0.3133
 1530TIP3    H228786   6.108   4.348  10.473  0.1061  0.5631  1.1679
 1531TIP3   OH228787   6.698   3.403  10.854 -0.1671  0.8893  0.2574
 1531TIP3    H128788   6.794   3.408  10.861 -0.1762  1.1440  0.1844
 1531TIP3    H228789   6.666   3.435  10.939 -0.1998  1.2462  0.1104
 1532TIP3   OH228790   2.964   5.619  10.273  0.2212  0.3348  0.1182
 1532TIP3    H128791   2.948   5.688  10.337  2.2675 -1.8015  3.1616
 1532TIP3    H228792   2.890   5.560  10.282  0.2507  0.2958  0.1038
 1533TIP3   OH228793   0.767   0.773  11.874  0.2863  0.0252 -0.6617
 1533TIP3    H128794   0.751   0.805  11.785 -2.4095  1.6309  0.2797
 1533TIP3    H228795   0.689   0.797  11.923  1.8168 -0.4488  2.2765
 1534TIP3   OH228796   5.346   1.628   9.702 -0.0336  0.0765 -0.0252
 1534TIP3    H128797   5.411   1.621   9.772  1.1901  0.7058 -1.0486
 1534TIP3    H228798   5.322   1.537   9.683 -1.1958 -0.0737  1.8761
 1535TIP3   OH228799   4.946   6.117   9.464 -0.1598 -0.1707 -0.4163
 1535TIP3    H128800   4.958   6.201   9.420 -2.1832  0.5137  0.1884
 1535TIP3    H228801   4.861   6.126   9.507 -0.4337 -2.5555 -0.3633
 1536TIP3   OH228802   1.265   3.641  10.500 -0.2172 -0.0603  0.0420
 1536TIP3    H128803   1.241   3.712  10.440 -0.5092 -1.6314 -1.7910
 1536TIP3    H228804   1.308   3.685  10.574  0.0553  1.9717 -1.2605
 1537TIP3   OH228805   2.793   4.637  10.463  0.3357 -0.6518  0.2873
 1537TIP3    H128806   2.699   4.628  10.479  0.4276 -0.8878  0.7050
 1537TIP3    H228807   2.811   4.579  10.389  0.0644 -0.2173 -0.1263
 1538TIP3   OH228808   0.721   1.957  10.941 -0.1352  0.3254  0.3964
 1538TIP3    H128809   0.675   2.040  10.927 -2.0723 -0.4400  1.8333
 1538TIP3    H228810   0.750   1.931  10.853 -1.6795  1.3185 -0.4553
 1539TIP3   OH228811   3.526   2.620   9.418  0.0628  0.2451  0.2867
 1539TIP3    H128812   3.562   2.657   9.498 -1.9076  2.2651  0.3517
 1539TIP3    H228813   3.508   2.696   9.362  0.5401 -1.0298 -1.7382
 1540TIP3   OH228814   4.353   5.124  11.315 -0.2559  0.2989 -0.1810
 1540TIP3    H128815   4.266   5.159  11.296 -0.0846 -0.0078 -1.5977
 1540TIP3    H228816   4.406   5.201  11.337 -0.7368  0.5440  0.1390
 1541TIP3   OH228817   3.548   6.431  11.786  0.3210 -0.0652 -0.0776
 1541TIP3    H128818   3.644   6.432  11.776  0.3931  0.6300  0.6429
 1541TIP3    H228819   3.521   6.519  11.760 -0.3412 -0.8296 -2.1795
 1542TIP3   OH228820   2.289   6.689   8.844 -0.5184  0.0130  0.5675
 1542TIP3    H128821   2.248   6.606   8.819 -0.6320  0.0758  0.5471
 1542TIP3    H228822   2.220   6.737   8.890 -0.4986  0.1621  0.4389
 1543TIP3   OH228823   0.151   6.322   9.852 -0.7353  0.2681 -0.1300
 1543TIP3    H128824   0.174   6.296   9.763  1.6648 -0.0728  0.5068
 1543TIP3    H228825   0.218   6.280   9.907  0.5273  3.8806  1.4286
 1544TIP3   OH228826   5.669   2.251  10.949 -0.0977 -0.2295 -0.2681
 1544TIP3    H128827   5.742   2.191  10.965 -0.1949 -0.2956 -0.0664
 1544TIP3    H228828   5.708   2.338  10.956  0.4591 -0.2439 -2.4379
 1545TIP3   OH228829   0.445   2.583  11.296 -0.0686 -0.1159 -0.5734
 1545TIP3    H128830   0.491   2.518  11.348 -0.7276  0.6597  1.0337
 1545TIP3    H228831   0.507   2.608  11.228  1.6548  0.4188  1.1229
 1546TIP3   OH228832   5.345   3.295  10.951  0.0092 -0.0108 -0.7493
 1546TIP3    H128833   5.405   3.331  10.885 -0.8102  0.7625 -1.0880
 1546TIP3    H228834   5.402   3.247  11.011  0.8480 -0.1763 -1.6498
 1547TIP3   OH228835   5.978   0.933   9.251 -0.3998  0.4336  0.2502
 1547TIP3    H128836   5.884   0.918   9.237 -0.2722 -0.3888  0.2084
 1547TIP3    H228837   6.020   0.885   9.179  0.0949 -0.2303  0.9652
 1548TIP3   OH228838   4.262   2.372   8.826  0.2144  0.2943 -0.2483
 1548TIP3    H128839   4.202   2.306   8.860  0.8916 -0.4514 -0.4656
 1548TIP3    H228840   4.314   2.326   8.760 -1.4106  1.8191 -2.7310
 1549TIP3   OH228841   2.654   3.365   8.975  0.2112 -0.2494 -0.2595
 1549TIP3    H128842   2.604   3.289   8.945 -0.7010 -0.6772  2.0772
 1549TIP3    H228843   2.703   3.333   9.051  1.6208  0.9584 -0.6086
 1550TIP3   OH228844   4.525   5.973  11.872  0.1716 -0.0993  0.3696
 1550TIP3    H128845   4.469   6.036  11.917  0.3214  1.3182 -1.3060
 1550TIP3    H228846   4.614   5.993  11.902 -0.1127 -3.1143  3.9421
 1551TIP3   OH228847   4.710   6.193   9.584 -0.1614 -0.6241 -0.0166
 1551TIP3    H128848   4.658   6.153   9.653  1.5182  0.5848  2.0657
 1551TIP3    H228849   4.657   6.266   9.553 -0.1304  0.0410  1.4345
 1552TIP3   OH228850   4.014   5.242  10.491 -0.0910  0.1429  1.5446
 1552TIP3    H128851   4.070   5.309  10.454 -1.4704  0.6415  0.2509
 1552TIP3    H228852   3.963   5.287  10.559 -1.8708  0.7920 -0.1225
 1553TIP3   OH228853   4.319   5.801  11.456  0.2321  0.3816  0.3362
 1553TIP3    H128854   4.345   5.827  11.368 -0.3424 -1.9919 -0.6157
 1553TIP3    H228855   4.225   5.820  11.460 -0.0551 -0.8603 -0.1330
 1554TIP3   OH228856   4.032   1.371   9.995 -0.1031  0.3808  0.0510
 1554TIP3    H128857   4.127   1.381   9.998 -0.1813  1.2002 -0.0481
 1554TIP3    H228858   4.018   1.277  10.011  0.6118  0.6153  2.4546
 1555TIP3   OH228859   1.563   4.213   9.464 -0.3968 -0.1275 -0.1412
 1555TIP3    H128860   1.521   4.132   9.493  0.0640 -0.2185  0.2904
 1555TIP3    H228861   1.510   4.243   9.390  0.0411 -1.3819 -0.9957
 1556TIP3   OH228862   0.475   0.357  11.965  0.0571 -0.5373  0.2840
 1556TIP3    H128863   0.405   0.317  11.914 -1.4239  0.6290  1.3517
 1556TIP3    H228864   0.479   0.448  11.935  1.7978 -0.7941 -0.4277
 1557TIP3   OH228865   3.632   4.795  11.340 -0.0779 -0.0111  0.2645
 1557TIP3    H128866   3.617   4.886  11.312  2.9874  0.4427 -0.3247
 1557TIP3    H228867   3.663   4.751  11.262  1.2553 -0.7617  1.1694
 1558TIP3   OH228868   5.248   4.411  10.277 -0.2606  0.3968  0.3007
 1558TIP3    H128869   5.300   4.333  10.300 -0.1532  0.4659  0.2932
 1558TIP3    H228870   5.313   4.478  10.258 -0.3095  0.0308 -1.3444
 1559TIP3   OH228871   3.644   1.764  11.677  0.0009 -0.3482 -0.6282
 1559TIP3    H128872   3.584   1.838  11.675  0.3361 -0.0878 -1.9387
 1559TIP3    H228873   3.731   1.804  11.676  0.2092 -0.7391  0.4287
 1560TIP3   OH228874   1.941   1.293  11.143  0.1204  1.2688 -0.0950
 1560TIP3    H128875   2.028   1.329  11.128  0.9589  0.1249  1.7352
 1560TIP3    H228876   1.911   1.266  11.056  1.3595  2.1162 -0.8173
 1561TIP3   OH228877   5.215   4.010   9.764 -0.1079  0.3665  0.0185
 1561TIP3    H128878   5.263   4.000   9.846  0.5933 -0.3386 -0.4561
 1561TIP3    H228879   5.186   4.101   9.763 -2.8080 -0.2864  2.4822
 1562TIP3   OH228880   5.865   0.537  10.154 -0.1373 -0.5934  0.4653
 1562TIP3    H128881   5.919   0.483  10.096 -0.7969  0.5025 -1.2696
 1562TIP3    H228882   5.782   0.547  10.107 -1.0279 -0.3514  2.0173
 1563TIP3   OH228883   5.476   5.542  10.696  0.8753 -0.0231 -0.7405
 1563TIP3    H128884   5.393   5.572  10.733  1.3178  0.5454 -0.1658
 1563TIP3    H228885   5.452   5.485  10.624 -0.0123  0.6075 -0.9528
 1564TIP3   OH228886   0.318   2.153  11.908  0.5068  0.3087 -0.2970
 1564TIP3    H128887   0.336   2.238  11.947 -0.1087  0.8809 -1.1980
 1564TIP3    H228888   0.336   2.165  11.815  0.3937 -0.5434 -0.4424
 1565TIP3   OH228889   4.560   1.828   9.746  0.0426 -0.2087  0.0757
 1565TIP3    H128890   4.514   1.749   9.716  0.9765 -0.1079 -1.7457
 1565TIP3    H228891   4.492   1.879   9.790 -1.3286 -0.6045 -1.4664
 1566TIP3   OH228892   2.185   1.287  11.530  0.3303 -0.2842 -0.2990
 1566TIP3    H128893   2.110   1.275  11.588  0.1979  0.2228 -0.3572
 1566TIP3    H228894   2.165   1.367  11.481  1.1395  0.1525  0.0557
 1567TIP3   OH228895   2.259   0.565  11.580 -0.5150 -0.1238 -0.2442
 1567TIP3    H128896   2.285   0.645  11.626  2.2585 -0.6837 -0.6885
 1567TIP3    H228897   2.194   0.525  11.638 -1.3056  1.9552  0.4144
 1568TIP3   OH228898   5.821   0.700  12.097  0.3640 -0.4510 -0.1903
 1568TIP3    H128899   5.752   0.767  12.088  0.1718 -0.5372  0.5449
 1568TIP3    H228900   5.850   0.709  12.188  1.1861 -0.5601 -0.4350
 1569TIP3   OH228901   3.013   5.446   9.416 -0.4547 -0.1717  0.3195
 1569TIP3    H128902   2.944   5.509   9.396 -0.9256 -1.3459 -1.9716
 1569TIP3    H228903   2.977   5.361   9.389  1.1719 -1.0727  0.8716
 1570TIP3   OH228904   3.649   2.380  11.239 -0.2645  0.3267 -0.1278
 1570TIP3    H128905   3.676   2.322  11.310 -0.6806 -2.4239 -2.0549
 1570TIP3    H228906   3.624   2.461  11.283 -1.6774 -1.5991  3.0226
 1571TIP3   OH228907   5.016   1.095   9.317  0.0274 -0.4776 -0.0355
 1571TIP3    H128908   5.008   1.173   9.371 -0.3286 -0.4501 -0.1268
 1571TIP3    H228909   5.108   1.070   9.325 -0.0177 -0.4650  0.5669
 1572TIP3   OH228910   5.932   1.431   9.238 -0.0055 -0.2304 -0.5787
 1572TIP3    H128911   5.971   1.350   9.272 -2.4548 -1.8958 -1.4940
 1572TIP3    H228912   5.931   1.490   9.313  0.2278 -1.6743  0.6024
 1573TIP3   OH228913   6.187   0.303  11.661 -0.1171  0.0802 -0.0164
 1573TIP3    H128914   6.144   0.231  11.707 -1.3067 -0.3265 -1.6736
 1573TIP3    H228915   6.155   0.382  11.705 -0.6454 -0.3101  0.3154
 1574TIP3   OH228916   5.792   6.216  11.687  0.5270 -1.0502 -1.0035
 1574TIP3    H128917   5.801   6.211  11.592 -0.0955  2.9203 -1.4554
 1574TIP3    H228918   5.870   6.263  11.716  0.1317 -1.1550  0.2746
 1575TIP3   OH228919   6.594   0.522  10.530 -0.4931 -0.2405  0.0156
 1575TIP3    H128920   6.632   0.599  10.574  1.3466 -0.5607 -0.8948
 1575TIP3    H228921   6.534   0.559  10.465 -1.7627  0.2915  1.4295
 1576TIP3   OH228922   6.525   1.652  10.389 -0.3627 -0.0693 -0.0077
 1576TIP3    H128923   6.485   1.652  10.302  1.0153  0.7115 -0.6802
 1576TIP3    H228924   6.454   1.625  10.448 -0.9907 -1.8846 -1.4996
 1577TIP3   OH228925   3.979   0.667   9.342 -0.0214 -0.1147  0.0466
 1577TIP3    H128926   4.069   0.680   9.372  0.2380 -1.8456  0.0842
 1577TIP3    H228927   3.927   0.662   9.422 -0.0209 -0.0390  0.0522
 1578TIP3   OH228928   4.869   4.231  12.159 -0.2947 -0.2154  0.3814
 1578TIP3    H128929   4.902   4.275  12.081 -0.3270  0.4911  0.7587
 1578TIP3    H228930   4.816   4.297  12.204 -0.0017 -0.5017  1.1690
 1579TIP3   OH228931   5.679   4.977  10.345  0.5609 -0.0212 -0.5114
 1579TIP3    H128932   5.661   4.896  10.296 -0.8833  0.7595 -1.3360
 1579TIP3    H228933   5.757   4.957  10.395  0.5580 -1.7583 -1.1182
 1580TIP3   OH228934   3.418   5.853  10.542 -0.7189 -0.1242 -0.5994
 1580TIP3    H128935   3.496   5.804  10.516 -0.3201  1.2544 -2.0800
 1580TIP3    H228936   3.383   5.888  10.461 -1.0755  1.9167  0.3742
 1581TIP3   OH228937   2.274   4.860  10.150 -0.0080 -0.1946 -0.4112
 1581TIP3    H128938   2.317   4.783  10.112 -2.4395 -1.1212 -1.4793
 1581TIP3    H228939   2.230   4.826  10.228 -0.3647  0.3092 -0.3942
 1582TIP3   OH228940   4.605   4.009  11.657 -0.3645 -0.0638  0.0325
 1582TIP3    H128941   4.610   4.049  11.570  0.5013 -0.7453 -0.2454
 1582TIP3    H228942   4.575   4.080  11.714 -3.0718 -0.1076 -1.1400
 1583TIP3   OH228943   0.856   2.463  10.995 -0.2681  0.5125  0.1674
 1583TIP3    H128944   0.762   2.477  11.008 -1.0836 -1.4838 -2.6208
 1583TIP3    H228945   0.890   2.443  11.083 -2.5917  0.4577  1.1285
 1584TIP3   OH228946   5.166   3.920  12.149  0.1078 -0.0656 -0.0975
 1584TIP3    H128947   5.257   3.891  12.151 -0.6911 -2.9892 -0.7760
 1584TIP3    H228948   5.154   3.968  12.230  1.8525 -1.0388  0.7842
 1585TIP3   OH228949   1.650   1.025   9.012  0.9320  0.2235  0.0472
 1585TIP3    H128950   1.729   1.040   8.960  0.7106  1.2327  0.0005
 1585TIP3    H228951   1.581   1.008   8.947  1.0784 -0.5682  0.0866
 1586TIP3   OH228952   3.900   1.189  11.275 -0.6009  0.8002 -0.4316
 1586TIP3    H128953   3.807   1.187  11.294 -0.0971 -0.1993  2.4529
 1586TIP3    H228954   3.942   1.173  11.360  2.1776 -0.0343 -1.8460
 1587TIP3   OH228955   2.540   6.070  11.195 -0.0423  0.2237  0.3736
 1587TIP3    H128956   2.624   6.111  11.215 -0.1709  0.5474  0.2685
 1587TIP3    H228957   2.492   6.137  11.145 -0.2158 -0.0975  0.1027
 1588TIP3   OH228958   3.582   0.662  11.668 -0.2960 -0.1920  0.0646
 1588TIP3    H128959   3.520   0.719  11.622 -0.4725 -1.2440 -1.0242
 1588TIP3    H228960   3.666   0.707  11.660 -0.3131 -0.3723 -1.3572
 1589TIP3   OH228961   2.182   5.554   8.806 -0.2274  0.2411 -0.3168
 1589TIP3    H128962   2.140   5.475   8.772 -0.9963 -0.2016  1.5486
 1589TIP3    H228963   2.113   5.599   8.855  0.4158  1.6523 -0.6659
 1590TIP3   OH228964   0.781   6.468   9.556  0.3702 -0.0900  0.0904
 1590TIP3    H128965   0.769   6.562   9.569 -1.3930 -0.1505 -0.7024
 1590TIP3    H228966   0.733   6.449   9.475 -0.9805 -1.9764  1.2316
 1591TIP3   OH228967   1.801   0.018  12.286 -0.0476 -0.0033 -0.3341
 1591TIP3    H128968   1.797   0.082  12.357 -0.3547  0.3334 -0.6465
 1591TIP3    H228969   1.846   0.065  12.215 -1.7693  0.4726 -1.1659
 1592TIP3   OH228970   4.324   1.422   9.416 -0.2506 -0.0817  0.2502
 1592TIP3    H128971   4.236   1.407   9.381 -1.2327 -1.1402  2.9171
 1592TIP3    H228972   4.368   1.338   9.410  1.3226  0.8248 -2.6789
 1593TIP3   OH228973   3.052   4.718  11.700  0.3392  0.3824  0.6622
 1593TIP3    H128974   3.112   4.664  11.751 -0.0209  0.1535  0.8546
 1593TIP3    H228975   3.016   4.780  11.763  1.6295  1.6430  0.2060
 1594TIP3   OH228976   0.760   0.694  10.429  0.7232 -0.0140  0.3801
 1594TIP3    H128977   0.849   0.672  10.457  0.7300 -1.6614 -0.7781
 1594TIP3    H228978   0.704   0.668  10.502  1.2093  2.0566  1.5840
 1595TIP3   OH228979   3.499   1.786   9.371 -0.5353  0.4076  0.7845
 1595TIP3    H128980   3.508   1.881   9.365  1.1288  0.2387  0.0252
 1595TIP3    H228981   3.443   1.762   9.298  0.5293  0.6498 -0.1326
 1596TIP3   OH228982   6.075   3.925  10.534 -0.4465  0.0768  0.4683
 1596TIP3    H128983   6.159   3.880  10.530  0.1169  0.9989  1.3529
 1596TIP3    H228984   6.094   4.006  10.582 -1.1024  1.9642 -2.2178
 1597TIP3   OH228985   0.789   4.131   9.126 -0.2958 -0.1154  0.2300
 1597TIP3    H128986   0.727   4.188   9.081  0.8988  0.2490 -0.9899
 1597TIP3    H228987   0.875   4.165   9.104  0.4048 -1.4870  0.7006
 1598TIP3   OH228988   1.553   5.636  10.830 -0.0759 -0.1951 -0.0793
 1598TIP3    H128989   1.596   5.550  10.840  0.7106  0.0905 -0.8577
 1598TIP3    H228990   1.622   5.693  10.797 -0.6076  0.7375  0.3890
 1599TIP3   OH228991   4.233   1.596  10.663 -0.4108  0.5107 -0.2444
 1599TIP3    H128992   4.207   1.567  10.576 -1.0968  2.5740 -0.7864
 1599TIP3    H228993   4.156   1.643  10.697  0.3970  1.1251  0.8048
 1600TIP3   OH228994   3.564   4.383  10.998  0.2167  0.1113 -0.4988
 1600TIP3    H128995   3.524   4.465  10.967 -1.7320 -0.3381  0.6197
 1600TIP3    H228996   3.504   4.352  11.066  0.9364 -2.2215 -0.8470
 1601TIP3   OH228997   2.366   2.371  10.135  0.0758  0.0781  0.3357
 1601TIP3    H128998   2.291   2.337  10.087  0.1094 -1.1782  1.1510
 1601TIP3    H228999   2.381   2.458  10.097 -1.4502  0.1312 -0.1916
 1602TIP3   OH229000   4.142   0.554  10.390 -0.6678  0.2047 -0.0760
 1602TIP3    H129001   4.054   0.539  10.426 -0.6666 -1.5424 -0.6835
 1602TIP3    H229002   4.187   0.470  10.403  0.0904  0.2597 -1.9863
 1603TIP3   OH229003   4.096   3.698  10.310 -0.4169  0.2049 -0.6849
 1603TIP3    H129004   4.098   3.778  10.257 -0.3558 -0.1420 -1.2143
 1603TIP3    H229005   4.116   3.628  10.248 -0.1569 -0.1897 -0.1613
 1604TIP3   OH229006   0.722   6.009  10.435 -0.0801  0.1908  0.2306
 1604TIP3    H129007   0.783   6.026  10.363 -0.2428 -2.0129 -0.5065
 1604TIP3    H229008   0.701   6.096  10.469  2.4185  1.1204 -0.3339
 1605TIP3   OH229009   4.576   1.640  11.564  0.2633 -0.3008  0.0043
 1605TIP3    H129010   4.559   1.656  11.657  0.1390  3.0071 -0.4839
 1605TIP3    H229011   4.642   1.705  11.540 -0.0162 -0.8034 -2.3307
 1606TIP3   OH229012   3.216   3.946   9.581 -0.2950  0.5440 -0.0525
 1606TIP3    H129013   3.260   4.025   9.549  0.5039  0.2890  0.3874
 1606TIP3    H229014   3.261   3.874   9.537  1.6036  0.0980  2.3564
 1607TIP3   OH229015   0.893   2.313   9.023  0.4506  0.1116  0.4303
 1607TIP3    H129016   0.854   2.337   8.938  1.4019  1.6698  0.3896
 1607TIP3    H229017   0.983   2.289   9.001  0.6308  0.2955  0.9700
 1608TIP3   OH229018   0.941   6.504  10.202 -0.0348  0.0854  0.4994
 1608TIP3    H129019   1.010   6.537  10.260 -0.0525 -0.4214  0.8073
 1608TIP3    H229020   0.881   6.456  10.259  0.8056 -1.8176 -0.1277
 1609TIP3   OH229021   6.068   3.100  11.699 -0.1310  0.4332 -0.6271
 1609TIP3    H129022   6.066   3.136  11.787 -1.9827  1.3146 -0.9814
 1609TIP3    H229023   5.986   3.051  11.691 -0.5590  1.3345 -2.2255
 1610TIP3   OH229024   3.014   4.333  11.612 -0.4598  0.2378 -0.7153
 1610TIP3    H129025   3.069   4.409  11.595  0.6054 -0.4955 -0.6634
 1610TIP3    H229026   2.926   4.369  11.626 -0.1671  1.3650 -1.6312
 1611TIP3   OH229027   0.224   4.588  11.333 -0.3959 -0.2487 -0.2902
 1611TIP3    H129028   0.167   4.628  11.398  0.9831 -0.2196  0.9765
 1611TIP3    H229029   0.289   4.540  11.385 -0.4552 -1.9858 -1.7005
 1612TIP3   OH229030   1.900   6.108   9.859 -0.4460  0.0292 -0.0118
 1612TIP3    H129031   1.858   6.049   9.922  1.1383  0.3859  1.4597
 1612TIP3    H229032   1.921   6.052   9.784 -2.4958 -0.3730 -0.3336
 1613TIP3   OH229033   3.967   3.484  10.008 -0.4124  0.0419  0.8685
 1613TIP3    H129034   4.049   3.526  10.035 -1.1897  1.3609  1.3007
 1613TIP3    H229035   3.990   3.433   9.930  0.5794  1.3278  0.2850
 1614TIP3   OH229036   4.693   4.528  10.873 -0.2392 -0.1224 -0.1711
 1614TIP3    H129037   4.601   4.546  10.858 -0.0989 -1.1823 -2.7311
 1614TIP3    H229038   4.738   4.610  10.848 -0.4593  0.5128  1.4074
 1615TIP3   OH229039   4.836   2.900   9.485 -0.0435  0.4735  1.0121
 1615TIP3    H129040   4.766   2.963   9.505 -0.4773  0.6357 -0.7810
 1615TIP3    H229041   4.899   2.950   9.433 -0.0597 -0.3632  0.1473
 1616TIP3   OH229042   5.441   1.169  10.806 -0.1591  0.2375 -0.2040
 1616TIP3    H129043   5.384   1.110  10.757  1.9429 -2.0811 -0.0991
 1616TIP3    H229044   5.500   1.110  10.854  0.9295  2.4608  1.3570
 1617TIP3   OH229045   4.611   3.452  10.110 -0.2863  0.0805 -0.1049
 1617TIP3    H129046   4.592   3.537  10.069 -0.1852  0.0403 -0.2369
 1617TIP3    H229047   4.707   3.448  10.113 -0.2628 -0.5021 -1.1134
 1618TIP3   OH229048   1.804   1.481  11.847 -0.2705  0.0062  0.5835
 1618TIP3    H129049   1.827   1.404  11.899 -0.5773 -0.0262  0.6740
 1618TIP3    H229050   1.712   1.497  11.868 -0.0301  0.7914  1.0631
 1619TIP3   OH229051   5.470   2.845  11.784  0.3071 -0.7083  0.0984
 1619TIP3    H129052   5.531   2.818  11.852  0.5457 -0.1876  0.1001
 1619TIP3    H229053   5.389   2.865  11.831  1.2345  2.2653  0.6576
 1620TIP3   OH229054   3.802   3.507  10.866  0.2069 -0.0789  0.6167
 1620TIP3    H129055   3.792   3.597  10.897  0.7644  0.8318 -1.6206
 1620TIP3    H229056   3.780   3.512  10.773  1.4350 -2.0238  0.1775
 1621TIP3   OH229057   5.780   3.036  11.745  0.3508 -0.1589 -0.1939
 1621TIP3    H129058   5.713   3.093  11.706  1.9631  0.8834 -1.5671
 1621TIP3    H229059   5.759   2.949  11.713 -0.4204  0.1269 -0.4957
 1622TIP3   OH229060   1.662   3.647  11.362 -0.0103  0.5510  0.3924
 1622TIP3    H129061   1.692   3.652  11.453 -2.1900 -0.0526  1.2084
 1622TIP3    H229062   1.667   3.554  11.340 -1.3127  0.4065  0.6059
 1623TIP3   OH229063   1.049   3.765  11.449  0.0463  0.4912 -0.4816
 1623TIP3    H129064   1.018   3.695  11.506  0.4421  1.7799  1.3775
 1623TIP3    H229065   1.144   3.762  11.456  0.3863 -1.3741 -3.6713
 1624TIP3   OH229066   4.638   2.627  10.898 -0.0093  0.1584 -0.2113
 1624TIP3    H129067   4.616   2.707  10.852 -0.1829  0.3937  0.2816
 1624TIP3    H229068   4.727   2.607  10.869  0.1373  0.6776 -0.1222
 1625TIP3   OH229069   5.660   2.812  10.840  0.0829  0.1879  0.4621
 1625TIP3    H129070   5.655   2.865  10.760  1.7976  1.4646  1.1626
 1625TIP3    H229071   5.595   2.851  10.899  0.5272  0.7751  0.5628
 1626TIP3   OH229072   6.492   4.996  11.843  0.5727  0.3665  0.1938
 1626TIP3    H129073   6.469   4.959  11.758  1.8394  2.3245 -1.0743
 1626TIP3    H229074   6.495   5.091  11.828  1.8611  0.6960  2.1622
 1627TIP3   OH229075   5.854   1.856  10.765 -0.3638 -0.5668  0.2787
 1627TIP3    H129076   5.815   1.820  10.845 -0.1312 -1.8584 -0.1707
 1627TIP3    H229077   5.929   1.799  10.747 -0.0803  0.0532 -0.5506
 1628TIP3   OH229078   4.534   5.128  11.668  0.1715 -0.4475 -0.2762
 1628TIP3    H129079   4.534   5.223  11.655  0.8205 -0.5227 -0.9382
 1628TIP3    H229080   4.494   5.115  11.754  0.0794  0.4267 -0.1770
 1629TIP3   OH229081   0.302   0.256  11.778 -0.0957  0.3131  0.6775
 1629TIP3    H129082   0.292   0.170  11.737 -0.9681  0.4791  0.5165
 1629TIP3    H229083   0.215   0.295  11.772  0.5453  1.6681 -0.2810
 1630TIP3   OH229084   2.649   1.938  10.441  0.4264 -0.3036 -0.2289
 1630TIP3    H129085   2.571   1.921  10.493  0.2175  0.5109 -0.2636
 1630TIP3    H229086   2.685   2.019  10.476  0.7889 -0.2193 -0.7660
 1631TIP3   OH229087   2.846   0.842  12.087 -0.0949  0.5185  0.2375
 1631TIP3    H129088   2.757   0.817  12.110 -0.6125  0.5791 -1.5216
 1631TIP3    H229089   2.864   0.795  12.006  0.8421  1.7914 -0.3303
 1632TIP3   OH229090   1.698   3.372  11.343 -0.1370 -0.1590  0.5740
 1632TIP3    H129091   1.749   3.386  11.423 -0.4822  0.0595  0.7564
 1632TIP3    H229092   1.618   3.329  11.372 -1.2028  1.7617  0.6368
 1633TIP3   OH229093   4.653   0.104  10.197  0.2253 -0.1449 -0.1395
 1633TIP3    H129094   4.731   0.061  10.232 -0.4067 -0.7207  0.5951
 1633TIP3    H229095   4.585   0.037  10.199 -0.7213  0.8013  0.8188
 1634TIP3   OH229096   5.168   0.964   9.632 -0.8494  0.2516  0.4608
 1634TIP3    H129097   5.133   0.882   9.598 -0.8615  1.3073 -2.3254
 1634TIP3    H229098   5.093   1.023   9.636 -0.4530  0.7920  0.1759
 1635TIP3   OH229099   6.507   1.232   9.179  0.1962 -0.3867  0.4947
 1635TIP3    H129100   6.414   1.233   9.158  0.1876  3.0620  0.1775
 1635TIP3    H229101   6.551   1.231   9.094  0.6032 -3.3267  0.6256
 1636TIP3   OH229102   5.005   3.153  11.246 -0.4040 -0.0488 -0.1397
 1636TIP3    H129103   5.070   3.108  11.300  0.5948 -0.0539 -1.2995
 1636TIP3    H229104   4.928   3.159  11.302  1.1593  1.6726  1.9907
 1637TIP3   OH229105   2.549   0.785  10.083  0.4321  0.1616  0.1787
 1637TIP3    H129106   2.497   0.745  10.152  0.9581 -1.3030 -0.2445
 1637TIP3    H229107   2.596   0.712  10.042 -0.6654  0.7927 -2.4432
 1638TIP3   OH229108   3.720   5.054   9.966  0.3220 -0.3019  0.5435
 1638TIP3    H129109   3.738   4.989  10.034 -1.0361 -0.8043  0.4508
 1638TIP3    H229110   3.802   5.104   9.958  1.3091 -1.8126  0.8110
 1639TIP3   OH229111   1.645   4.206   8.712  0.4672  0.3440 -0.3097
 1639TIP3    H129112   1.569   4.150   8.729  0.2689  0.9777  1.0044
 1639TIP3    H229113   1.719   4.145   8.709  0.3353  0.0346  1.6610
 1640TIP3   OH229114   4.105   2.380  11.224  0.1787 -0.0676  0.7695
 1640TIP3    H129115   4.076   2.300  11.268 -1.2631  0.0140  0.0091
 1640TIP3    H229116   4.167   2.350  11.158  0.5058 -0.4331  1.2342
 1641TIP3   OH229117   2.742   1.359  11.836 -0.1615  0.2057  0.2374
 1641TIP3    H129118   2.736   1.287  11.898  1.4719 -0.4649 -0.3425
 1641TIP3    H229119   2.724   1.319  11.751  0.8161  0.4366 -0.0941
 1642TIP3   OH229120   5.056   6.491  10.613 -0.1243 -0.1897  0.1311
 1642TIP3    H129121   4.999   6.538  10.553  0.0465 -0.3675 -0.1713
 1642TIP3    H229122   5.018   6.506  10.699 -1.1916 -1.0983 -0.1630
 1643TIP3   OH229123   4.558   6.091  10.699  0.0387  0.5636  0.1075
 1643TIP3    H129124   4.516   6.097  10.785  0.6235 -0.1941  0.4609
 1643TIP3    H229125   4.560   5.997  10.680 -0.9301  0.7705 -1.1781
 1644TIP3   OH229126   3.411   0.862  11.299 -0.1723  0.2204 -0.1005
 1644TIP3    H129127   3.345   0.895  11.239  0.5726 -0.8857 -1.5805
 1644TIP3    H229128   3.412   0.768  11.286  2.6004  0.2951 -1.1428
 1645TIP3   OH229129   4.538   4.130  10.061 -0.5091 -0.1125 -0.4071
 1645TIP3    H129130   4.502   4.212  10.094  1.2099  0.3231  0.5277
 1645TIP3    H229131   4.626   4.154  10.030 -0.0118 -1.5731 -0.2090
 1646TIP3   OH229132   3.243   1.947  10.879 -0.2760 -0.1630 -0.2897
 1646TIP3    H129133   3.323   1.987  10.914  0.0328 -0.2128 -0.9209
 1646TIP3    H229134   3.216   1.885  10.946 -0.0603  0.2090  0.1475
 1647TIP3   OH229135   4.027   0.471   9.750 -0.2732 -0.2971 -1.2929
 1647TIP3    H129136   4.081   0.394   9.734  2.8035  1.6740 -1.2085
 1647TIP3    H229137   4.015   0.510   9.663 -1.2291 -0.4774 -1.2526
 1648TIP3   OH229138   0.463   1.487  10.198  0.0873 -0.6287  0.0677
 1648TIP3    H129139   0.396   1.431  10.238 -0.9136  0.0389 -0.6308
 1648TIP3    H229140   0.421   1.572  10.188  1.3565  0.0673  0.4488
 1649TIP3   OH229141   1.833   1.034   9.281 -0.3222  0.0084  0.4131
 1649TIP3    H129142   1.926   1.034   9.256 -0.2145 -1.2884  0.7565
 1649TIP3    H229143   1.804   1.124   9.263  0.7032  0.1296 -0.7741
 1650TIP3   OH229144   4.880   1.046   9.924  0.1480  0.5238 -0.0845
 1650TIP3    H129145   4.939   0.979   9.960  0.4835  0.7563 -0.1902
 1650TIP3    H229146   4.792   1.016   9.947  0.3244  0.3265  0.3443
 1651TIP3   OH229147   5.352   5.128   9.860 -0.3370 -0.0186 -0.0439
 1651TIP3    H129148   5.395   5.174   9.788 -1.3248 -0.4185 -0.9235
 1651TIP3    H229149   5.352   5.036   9.832 -1.7815 -0.0230 -0.1078
 1652TIP3   OH229150   6.346   4.047   9.793  0.3922  0.4692  0.1819
 1652TIP3    H129151   6.257   4.072   9.770 -0.3924 -2.2910 -0.1338
 1652TIP3    H229152   6.398   4.071   9.715 -0.6401 -0.5320 -0.8623
 1653TIP3   OH229153   0.664   0.622  11.324  0.4805 -0.4554 -0.0370
 1653TIP3    H129154   0.598   0.682  11.289 -1.1825 -1.2956  1.4743
 1653TIP3    H229155   0.687   0.566  11.250  0.2085  0.4481 -0.8325
 1654TIP3   OH229156   0.329   4.723   9.647 -0.2270 -0.4542  0.0831
 1654TIP3    H129157   0.258   4.769   9.693  0.3877  0.6072  0.0060
 1654TIP3    H229158   0.335   4.768   9.562 -0.1663 -1.2396 -0.3400
 1655TIP3   OH229159   1.767   4.839   9.865 -0.4729  0.8672 -0.0170
 1655TIP3    H129160   1.785   4.920   9.818 -0.1168  0.2755 -0.9348
 1655TIP3    H229161   1.685   4.856   9.912  0.0711  2.0514  0.5354
 1656TIP3   OH229162   5.035   5.020  11.155  0.0876  0.3674  0.2548
 1656TIP3    H129163   4.963   5.045  11.098  1.2257  1.3499 -0.8112
 1656TIP3    H229164   5.039   4.924  11.148 -0.5428  0.3806 -0.3641
 1657TIP3   OH229165   5.069   1.243  10.354  0.3909 -0.3037 -0.6869
 1657TIP3    H129166   5.000   1.309  10.345  0.7760  0.4268  1.1208
 1657TIP3    H229167   5.114   1.243  10.269 -0.8236  0.3623 -1.3568
 1658TIP3   OH229168   6.186   0.470   9.361  0.3820  0.5494  0.5507
 1658TIP3    H129169   6.102   0.494   9.402 -1.3451 -3.4535 -0.2074
 1658TIP3    H229170   6.219   0.398   9.415  1.3829 -0.4520 -1.3196
 1659TIP3   OH229171   6.190   1.354  11.690 -0.1384 -0.1074 -0.0932
 1659TIP3    H129172   6.124   1.313  11.634  1.2418 -1.4423 -0.8185
 1659TIP3    H229173   6.176   1.315  11.777 -1.6390  1.2256  0.3116
 1660TIP3   OH229174   3.868   1.182   8.529  0.1790 -0.3144  0.7104
 1660TIP3    H129175   3.916   1.264   8.545 -1.0190  0.8541 -1.3575
 1660TIP3    H229176   3.915   1.141   8.456  0.3062 -1.1307  1.2344
 1661TIP3   OH229177   5.033   3.160   9.864  0.4089  0.4292 -0.8098
 1661TIP3    H129178   4.995   3.234   9.817 -0.9484  0.2525 -0.0329
 1661TIP3    H229179   5.030   3.186   9.956 -0.4110 -0.7079 -0.4956
 1662TIP3   OH229180   6.083   6.243   8.579 -0.1461  0.4794  0.2364
 1662TIP3    H129181   6.065   6.293   8.658  0.9811  0.5176  0.4846
 1662TIP3    H229182   6.135   6.168   8.610 -0.3047  0.1085 -0.3741
 1663TIP3   OH229183   4.183   0.741  10.179 -0.1379 -0.8073  0.5211
 1663TIP3    H129184   4.129   0.819  10.196 -0.9348 -0.8609 -1.5228
 1663TIP3    H229185   4.145   0.674  10.236 -2.6930 -0.9939 -1.2605
 1664TIP3   OH229186   3.902   5.251   9.693 -0.5126  0.0262 -0.1809
 1664TIP3    H129187   3.884   5.249   9.787  0.7157 -0.4529  0.0662
 1664TIP3    H229188   3.992   5.285   9.687 -0.8614  0.8031 -1.2322
 1665TIP3   OH229189   3.931   4.643  11.843 -0.7893  0.1609  0.3198
 1665TIP3    H129190   3.871   4.570  11.828 -2.6633  1.5553  0.6388
 1665TIP3    H229191   3.897   4.686  11.921  0.3889  1.2587  0.2608
 1666TIP3   OH229192   0.153   5.287  10.295 -0.7986  0.1783  0.5944
 1666TIP3    H129193   0.150   5.380  10.316  0.0858  0.7715 -1.6017
 1666TIP3    H229194   0.073   5.271  10.245  0.4318  0.5144 -1.5845
 1667TIP3   OH229195   4.194   0.277   9.599 -0.2489 -0.0342  0.2539
 1667TIP3    H129196   4.110   0.259   9.558 -0.5349  0.6905  0.5048
 1667TIP3    H229197   4.245   0.320   9.531 -0.1426 -0.3153  0.1559
 1668TIP3   OH229198   6.076   0.365  10.536  0.1861  0.2389  0.3422
 1668TIP3    H129199   6.063   0.349  10.442 -0.7777 -1.2861  0.7143
 1668TIP3    H229200   6.011   0.432  10.557 -0.6467 -0.5004  0.2073
 1669TIP3   OH229201   4.159   2.124  11.544  0.0437  0.3107 -0.1007
 1669TIP3    H129202   4.068   2.138  11.518 -0.3950 -2.7235 -0.5847
 1669TIP3    H229203   4.158   2.134  11.640 -0.6479  0.8877 -0.1597
 1670TIP3   OH229204   0.250   0.364  10.533 -0.6448  0.4378 -0.2020
 1670TIP3    H129205   0.264   0.300  10.463 -0.5396  0.5123 -0.2487
 1670TIP3    H229206   0.332   0.360  10.584 -0.5493  0.7020 -0.3364
 1671TIP3   OH229207   6.386   4.311  12.053 -0.2720 -0.7365 -0.4485
 1671TIP3    H129208   6.391   4.339  11.961  0.0445 -1.2890 -0.6018
 1671TIP3    H229209   6.476   4.288  12.076 -0.1796  0.2768  0.2847
 1672TIP3   OH229210   1.995   4.079  11.573 -0.1649  0.4478  0.3580
 1672TIP3    H129211   2.052   4.002  11.575 -2.2880 -1.2309  0.5933
 1672TIP3    H229212   1.945   4.071  11.492 -0.8223  1.2478  0.6608
 1673TIP3   OH229213   1.218   5.378  12.017  0.1121  0.4377  0.2048
 1673TIP3    H129214   1.268   5.386  11.935 -0.3526  0.9588 -0.0354
 1673TIP3    H229215   1.181   5.465  12.031 -1.3861 -0.1242 -0.0468
 1674TIP3   OH229216   0.250   5.704   9.039  0.4467 -0.1066  0.8086
 1674TIP3    H129217   0.294   5.680   8.958  1.0855 -0.6191  1.2953
 1674TIP3    H229218   0.159   5.721   9.013  0.2426 -1.8556  0.2259
 1675TIP3   OH229219   0.349   1.266   8.637  0.0570  0.1756  0.1103
 1675TIP3    H129220   0.431   1.302   8.602  0.8935 -0.7920  1.0065
 1675TIP3    H229221   0.347   1.176   8.605 -0.2237 -0.0643  0.7904
 1676TIP3   OH229222   0.601   5.388  12.263  0.3725  0.2556 -0.0517
 1676TIP3    H129223   0.573   5.316  12.319 -1.4568  1.4620  0.6815
 1676TIP3    H229224   0.665   5.349  12.203 -0.2012 -1.8404  0.6315
 1677TIP3   OH229225   0.393   6.528  11.660 -0.4046 -0.0475  0.1504
 1677TIP3    H129226   0.348   6.476  11.727  0.3031 -2.1771 -0.9237
 1677TIP3    H229227   0.334   6.602  11.644 -1.0113  0.0628  2.4439
 1678TIP3   OH229228   4.719   5.971  10.257 -0.2852 -0.5246 -0.0932
 1678TIP3    H129229   4.704   6.041  10.321  0.0275 -0.8336  0.3288
 1678TIP3    H229230   4.640   5.917  10.262  0.3337 -1.3526  1.0868
 1679TIP3   OH229231   1.979   0.189  11.028 -0.6192  0.1077  0.1310
 1679TIP3    H129232   2.046   0.178  11.095 -0.1368  0.4603 -0.2846
 1679TIP3    H229233   1.947   0.100  11.011  1.9269 -0.5257 -1.8854
 1680TIP3   OH229234   5.632   3.525   8.351 -0.3274  0.0700  0.1010
 1680TIP3    H129235   5.636   3.461   8.280 -1.7283 -0.6457  0.6372
 1680TIP3    H229236   5.702   3.499   8.411  1.3978  1.1449 -1.3318
 1681TIP3   OH229237   2.127   2.030   9.445  0.2644 -0.7073 -0.3411
 1681TIP3    H129238   2.087   1.943   9.456 -3.3497  0.7115 -1.0141
 1681TIP3    H229239   2.123   2.047   9.351  3.4304 -0.7246 -0.6143
 1682TIP3   OH229240   6.355   5.427  10.134  0.0010 -0.8607 -0.7098
 1682TIP3    H129241   6.399   5.441  10.050 -0.3594  0.7447 -0.6514
 1682TIP3    H229242   6.388   5.497  10.190 -1.7289 -0.3099 -0.3195
 1683TIP3   OH229243   0.224   3.881  10.349 -0.0547 -0.0730  0.3108
 1683TIP3    H129244   0.233   3.965  10.304  0.7772 -1.1306 -1.6030
 1683TIP3    H229245   0.309   3.867  10.391  1.5951 -1.9961 -3.2435
 1684TIP3   OH229246   4.322   4.844  11.683 -0.1775 -0.2281 -0.1047
 1684TIP3    H129247   4.319   4.771  11.745 -0.9081  2.1687  2.9252
 1684TIP3    H229248   4.231   4.871  11.674  0.1791  0.9192 -0.3716
 1685TIP3   OH229249   5.202   4.312  10.021  0.5900 -0.1000 -0.2743
 1685TIP3    H129250   5.160   4.226  10.030 -1.1228  0.6603 -0.6456
 1685TIP3    H229251   5.210   4.343  10.111  0.0755 -0.1316 -0.2141
 1686TIP3   OH229252   3.927   1.873   9.522 -0.3202  0.0183 -0.3885
 1686TIP3    H129253   3.871   1.856   9.598  0.3839  0.4330  0.2369
 1686TIP3    H229254   3.907   1.963   9.496 -0.9958 -0.3151 -1.0888
 1687TIP3   OH229255   1.813   0.923   9.778 -0.0504  0.6002  0.0547
 1687TIP3    H129256   1.733   0.964   9.744 -0.9722  0.4506  1.9138
 1687TIP3    H229257   1.857   0.889   9.700 -0.0988  3.5705 -1.3829
 1688TIP3   OH229258   5.381   1.894  10.936 -0.2509 -0.3664 -0.0086
 1688TIP3    H129259   5.436   1.944  10.996  0.9129 -1.4241 -0.1583
 1688TIP3    H229260   5.372   1.809  10.977 -1.9021 -0.1822  0.0596
 1689TIP3   OH229261   6.468   5.580  11.283 -0.6928 -0.0564  0.3105
 1689TIP3    H129262   6.416   5.660  11.288 -1.0124 -0.3182  1.6598
 1689TIP3    H229263   6.500   5.577  11.193 -3.8678 -0.4208 -0.9289
 1690TIP3   OH229264   5.964   5.831   8.853  0.2304  0.1862 -0.2578
 1690TIP3    H129265   5.923   5.764   8.907 -0.5099 -0.5367 -1.6500
 1690TIP3    H229266   5.937   5.810   8.764  2.6080  0.4370 -1.1246
 1691TIP3   OH229267   6.315   0.396   9.037 -0.1623  0.5377 -0.5143
 1691TIP3    H129268   6.400   0.373   8.999  0.6242  2.1364  0.1807
 1691TIP3    H229269   6.251   0.363   8.974  0.8615 -2.2213 -0.2503
 1692TIP3   OH229270   0.634   6.432  10.026 -0.0940  0.4561 -0.3766
 1692TIP3    H129271   0.609   6.525  10.022  0.9714  0.7715 -0.0094
 1692TIP3    H229272   0.685   6.425  10.107 -1.1492 -0.7142  0.2274
 1693TIP3   OH229273   6.263   6.626   9.967 -0.0003 -0.4491 -0.3499
 1693TIP3    H129274   6.227   6.711   9.940 -1.3279 -1.3873 -1.7169
 1693TIP3    H229275   6.298   6.641  10.055 -1.0837  1.2736 -0.1711
 1694TIP3   OH229276   0.266   3.686   9.488 -0.2692  0.1591 -0.0706
 1694TIP3    H129277   0.229   3.773   9.476 -1.6362 -0.2601  0.7834
 1694TIP3    H229278   0.341   3.683   9.430 -0.1535  1.9269 -0.0657
 1695TIP3   OH229279   2.992   1.769  11.315 -0.8089  0.0932  0.3331
 1695TIP3    H129280   3.041   1.713  11.255 -0.7033 -1.2445  1.5931
 1695TIP3    H229281   3.055   1.833  11.347 -0.5603  0.0322 -0.0371
 1696TIP3   OH229282   6.025   3.438   9.058  0.0450  0.4518  0.1854
 1696TIP3    H129283   6.041   3.445   8.964 -0.3572 -0.9951 -0.0123
 1696TIP3    H229284   6.111   3.452   9.097  0.7776 -1.5324 -0.5684
 1697TIP3   OH229285   6.661   4.931   8.728 -0.7857 -0.2223 -0.7249
 1697TIP3    H129286   6.733   4.872   8.749 -1.4441 -0.9959 -0.5919
 1697TIP3    H229287   6.644   4.916   8.635 -0.9340 -0.2193 -0.6983
 1698TIP3   OH229288   2.539   4.701  10.447  0.6585  0.3258 -0.1772
 1698TIP3    H129289   2.459   4.751  10.465 -0.0725 -0.3584 -1.3891
 1698TIP3    H229290   2.586   4.753  10.383  1.6216  1.1335  1.1468
 1699TIP3   OH229291   3.453   6.181  11.048 -0.0878 -0.3544  0.0982
 1699TIP3    H129292   3.497   6.134  11.118  1.9093  1.1479 -0.0648
 1699TIP3    H229293   3.492   6.146  10.968  1.2584  1.3522 -0.0317
 1700TIP3   OH229294   1.495   2.673  11.080  0.3162 -0.2811 -0.0056
 1700TIP3    H129295   1.449   2.589  11.076  0.6262 -0.4159 -2.6917
 1700TIP3    H229296   1.426   2.738  11.067  0.3177 -0.2345  0.2239
 1701TIP3   OH229297   3.209   0.446  11.940 -0.3228 -0.1862 -0.4516
 1701TIP3    H129298   3.222   0.435  12.035  1.3422 -1.1305 -0.7424
 1701TIP3    H229299   3.290   0.486  11.910 -1.5445  1.8223 -1.2641
 1702TIP3   OH229300   4.262   5.420   9.355 -0.5227 -0.1684  0.5105
 1702TIP3    H129301   4.231   5.471   9.280 -1.5352 -0.0722  0.9830
 1702TIP3    H229302   4.205   5.343   9.357 -0.5108 -0.1603  1.2010
 1703TIP3   OH229303   2.321   5.818  10.277 -0.2934  0.2167 -0.0833
 1703TIP3    H129304   2.386   5.780  10.218 -0.5757  0.1385 -0.3435
 1703TIP3    H229305   2.316   5.757  10.350 -1.8491 -1.0686 -1.1971
 1704TIP3   OH229306   4.521   1.627  11.839  0.1812 -0.3752  0.3373
 1704TIP3    H129307   4.447   1.567  11.838 -0.2467  0.1484  0.1761
 1704TIP3    H229308   4.597   1.571  11.853 -0.2415 -0.9182  0.4930
 1705TIP3   OH229309   4.975   0.252   9.396 -0.0254  0.2849  0.3436
 1705TIP3    H129310   4.934   0.186   9.340  0.3691 -0.4818  0.9513
 1705TIP3    H229311   4.987   0.209   9.480  0.3712  1.0872  0.7092
 1706TIP3   OH229312   0.777   6.133   9.420 -0.1848  0.0974 -0.4127
 1706TIP3    H129313   0.707   6.196   9.399  1.0318  1.4774 -0.4638
 1706TIP3    H229314   0.822   6.119   9.337 -1.3358 -2.0786 -0.7565
 1707TIP3   OH229315   3.274   1.864  11.844  0.1363  0.4086 -0.1419
 1707TIP3    H129316   3.309   1.794  11.900  0.1203  0.4309 -0.1040
 1707TIP3    H229317   3.193   1.828  11.808  0.9174 -0.2182 -1.3908
 1708TIP3   OH229318   2.071   2.089  10.406 -0.1272 -0.1077 -0.2482
 1708TIP3    H129319   2.121   2.170  10.402 -0.4502  0.0847 -0.4400
 1708TIP3    H229320   2.047   2.071  10.316 -2.4223  1.0806  0.0445
 1709TIP3   OH229321   3.444   2.871   9.333 -0.2836  0.4402 -0.0319
 1709TIP3    H129322   3.466   2.914   9.250 -0.6458  0.2539 -0.2232
 1709TIP3    H229323   3.348   2.867   9.334 -0.3740  1.9795  1.1662
 1710TIP3   OH229324   6.552   2.217  12.000 -0.7798 -0.5207  0.1352
 1710TIP3    H129325   6.573   2.301  11.958  1.7332 -1.1320  0.0092
 1710TIP3    H229326   6.629   2.198  12.055 -2.6383 -1.2397  2.6687
 1711TIP3   OH229327   0.467   6.260  11.062  0.2599  0.7131 -0.2025
 1711TIP3    H129328   0.381   6.288  11.030  0.8452  2.5596 -0.2849
 1711TIP3    H229329   0.511   6.342  11.088  1.7001 -0.2587  0.5781
 1712TIP3   OH229330   5.104   6.252  10.779 -0.2011 -0.4149  0.5472
 1712TIP3    H129331   5.055   6.244  10.698 -1.6814 -1.4633  1.5085
 1712TIP3    H229332   5.132   6.344  10.780  0.2232 -0.4758 -1.3190
 1713TIP3   OH229333   5.908   1.905   9.652 -0.1378  0.1426  0.3185
 1713TIP3    H129334   5.837   1.886   9.591 -0.6480  2.4004  0.1336
 1713TIP3    H229335   5.874   1.974   9.709  1.0550 -0.4550  1.8286
 1714TIP3   OH229336   6.447   1.111   8.853 -0.0217 -0.3575 -0.1937
 1714TIP3    H129337   6.432   1.185   8.794 -0.3308 -1.5741 -1.7040
 1714TIP3    H229338   6.543   1.105   8.859  0.0258  0.9584  1.0443
 1715TIP3   OH229339   2.792   3.278   9.231  0.3295 -0.7148  0.4279
 1715TIP3    H129340   2.787   3.356   9.286 -1.8997 -0.1470 -0.4718
 1715TIP3    H229341   2.739   3.212   9.277  0.7036 -1.1155  0.2936
 1716TIP3   OH229342   1.285   5.683  10.780  0.1080 -0.5172 -0.3044
 1716TIP3    H129343   1.373   5.676  10.819  0.7558  0.6897 -1.4738
 1716TIP3    H229344   1.290   5.627  10.702 -0.1879 -0.5104 -0.3266
 1717TIP3   OH229345   1.017   0.614  10.470  0.0923  0.0025  0.0472
 1717TIP3    H129346   1.035   0.639  10.380  0.8628 -0.2557  0.1237
 1717TIP3    H229347   1.017   0.519  10.470  5.3409 -0.3232  1.1733
 1718TIP3   OH229348   0.682   4.967   9.260 -0.0166  0.2519  0.1186
 1718TIP3    H129349   0.777   4.966   9.267  0.1258  0.3367 -1.4579
 1718TIP3    H229350   0.651   4.963   9.350  1.4748  0.9117  0.6812
 1719TIP3   OH229351   4.105   0.931  11.800  0.2418 -0.1921 -0.1608
 1719TIP3    H129352   4.055   1.001  11.840  1.3509  0.8853 -0.6172
 1719TIP3    H229353   4.123   0.870  11.871 -0.0382  0.3867  0.4116
 1720TIP3   OH229354   0.469   5.584   9.855  0.0153 -0.2629  0.1456
 1720TIP3    H129355   0.496   5.676   9.859  1.3541 -0.5378 -1.3510
 1720TIP3    H229356   0.468   5.555   9.946 -0.2509  1.1680  0.6316
 1721TIP3   OH229357   6.049   3.178   9.938 -0.7740 -0.1246 -0.1038
 1721TIP3    H129358   6.110   3.244   9.905 -0.0024 -1.2156 -0.8995
 1721TIP3    H229359   6.103   3.119   9.991 -1.2576 -0.7364 -0.2820
 1722TIP3   OH229360   4.391   2.061  11.991  0.7840  0.5069 -0.6304
 1722TIP3    H129361   4.311   2.026  11.954 -0.7986  1.0059  2.0573
 1722TIP3    H229362   4.422   2.124  11.926 -0.0875 -0.8204 -2.4150
 1723TIP3   OH229363   1.524   0.231   9.549  0.1752 -0.0698 -0.5883
 1723TIP3    H129364   1.461   0.293   9.586 -0.6665 -1.1883 -0.1236
 1723TIP3    H229365   1.576   0.284   9.488 -1.2970  0.8506 -1.0854
 1724TIP3   OH229366   5.994   0.782  11.737 -0.5850  0.2857 -0.3121
 1724TIP3    H129367   6.053   0.852  11.709 -0.4572 -0.3471 -1.6674
 1724TIP3    H229368   5.950   0.753  11.657 -1.2986 -0.5869  0.3723
 1725TIP3   OH229369   0.915   4.795  10.289 -0.4227 -0.1331 -0.1402
 1725TIP3    H129370   0.975   4.869  10.281 -0.3212 -0.1598  0.3055
 1725TIP3    H229371   0.828   4.834  10.278 -0.2917 -0.3082 -2.1565
 1726TIP3   OH229372   5.080   0.835  10.334 -1.2875 -0.3015 -0.4574
 1726TIP3    H129373   5.157   0.890  10.345 -0.3981 -0.3113 -4.8529
 1726TIP3    H229374   5.110   0.747  10.360  0.5271 -0.4270 -2.6477
 1727TIP3   OH229375   1.647   5.326  11.418  0.5612 -0.1059  0.0173
 1727TIP3    H129376   1.743   5.320  11.425  0.5751  0.2065  0.0963
 1727TIP3    H229377   1.622   5.245  11.373  0.8022 -0.4706  0.5234
 1728TIP3   OH229378   4.686   2.616  10.570 -0.2423 -0.3567  0.0467
 1728TIP3    H129379   4.781   2.607  10.580  0.0224 -0.3339 -2.0419
 1728TIP3    H229380   4.664   2.695  10.619  0.9907  0.2524 -0.3416
 1729TIP3   OH229381   0.408   5.629   8.802  0.5159  0.0629 -0.1440
 1729TIP3    H129382   0.345   5.570   8.760  2.3359 -2.6320  0.6390
 1729TIP3    H229383   0.391   5.714   8.763 -3.0521 -0.6825 -0.5324
 1730TIP3   OH229384   4.934   4.460   9.702  0.6429 -0.1879  0.1234
 1730TIP3    H129385   4.898   4.371   9.697 -0.6132  0.2534  0.9403
 1730TIP3    H229386   4.878   4.512   9.645  0.5500  0.3385  0.6814
 1731TIP3   OH229387   0.495   5.256  10.698  0.4305 -0.1141 -0.1008
 1731TIP3    H129388   0.455   5.217  10.621  0.2755  0.0859 -0.1260
 1731TIP3    H229389   0.436   5.329  10.721 -0.3428 -1.0716  1.0800
 1732TIP3   OH229390   3.797   5.650  10.908  0.1439  0.2611 -0.6441
 1732TIP3    H129391   3.884   5.658  10.948 -0.1549 -0.1456  0.1052
 1732TIP3    H229392   3.788   5.730  10.856 -0.4680  2.1482  2.1261
 1733TIP3   OH229393   1.573   3.449  10.988  0.1312  0.1614  0.6606
 1733TIP3    H129394   1.503   3.514  10.991 -0.2551 -0.2308  0.2571
 1733TIP3    H229395   1.631   3.479  10.918 -0.1620 -0.0464  0.3294
 1734TIP3   OH229396   5.713   0.078   9.740 -0.4323 -0.4787  0.6617
 1734TIP3    H129397   5.631   0.032   9.758 -1.3170  1.1799  1.1366
 1734TIP3    H229398   5.691   0.171   9.754  1.4197  0.0329  0.3762
 1735TIP3   OH229399   5.563   1.638   9.470  0.0025 -0.3948 -0.0588
 1735TIP3    H129400   5.490   1.648   9.530  0.4286  0.4730  0.3361
 1735TIP3    H229401   5.524   1.641   9.383 -0.6393 -1.8396  0.1688
 1736TIP3   OH229402   1.425   2.359   9.996  0.1543  0.1899  0.3847
 1736TIP3    H129403   1.448   2.430  10.056  0.9527  0.8068 -0.6263
 1736TIP3    H229404   1.380   2.402   9.924  1.7849 -0.1231 -0.8746
 1737TIP3   OH229405   1.361   2.430  11.038 -0.1399  0.0120  0.0969
 1737TIP3    H129406   1.399   2.343  11.050  0.8137  0.4885  0.7126
 1737TIP3    H229407   1.323   2.428  10.951 -0.9159 -1.2988  0.4406
 1738TIP3   OH229408   3.539   2.751  11.437 -0.3732 -0.5090 -0.1097
 1738TIP3    H129409   3.503   2.663  11.427 -0.2491 -0.7837  1.5395
 1738TIP3    H229410   3.596   2.744  11.513 -0.9227  1.1622  0.4902
 1739TIP3   OH229411   2.286   1.915  12.209  0.2992  0.7815  0.3583
 1739TIP3    H129412   2.270   1.847  12.274  0.3805  0.7925  0.3902
 1739TIP3    H229413   2.294   1.868  12.126 -0.7360  0.8497  0.2118
 1740TIP3   OH229414   0.479   3.436   9.780 -0.2292 -0.2938  0.0033
 1740TIP3    H129415   0.432   3.509   9.819 -0.8150 -0.1287 -0.9694
 1740TIP3    H229416   0.566   3.439   9.820 -0.4638  0.5172  0.4758
 1741TIP3   OH229417   3.887   0.283  10.720  0.0027 -0.0522 -0.0434
 1741TIP3    H129418   3.982   0.278  10.714  0.0183 -0.8033  0.6140
 1741TIP3    H229419   3.870   0.316  10.808 -0.3510  0.3714 -0.2632
 1742TIP3   OH229420   2.138   3.539  11.795 -0.0852  0.1355 -0.4092
 1742TIP3    H129421   2.216   3.489  11.821  1.3124  1.8733 -1.0565
 1742TIP3    H229422   2.107   3.580  11.875  0.1973  0.1413 -0.3021
 1743TIP3   OH229423   1.345   4.499  10.583 -0.3571  0.5102  0.1945
 1743TIP3    H129424   1.310   4.583  10.551 -0.8010 -1.0007 -3.8231
 1743TIP3    H229425   1.374   4.454  10.504 -0.8105 -3.4379  2.0783
 1744TIP3   OH229426   1.712   4.173   9.058 -0.2549  0.3038  0.6109
 1744TIP3    H129427   1.687   4.265   9.056  0.7847  0.5794 -0.9823
 1744TIP3    H229428   1.656   4.132   8.992  1.4290  0.4065 -0.9400
 1745TIP3   OH229429   3.018   6.316   9.385 -0.8506  0.5010 -0.2717
 1745TIP3    H129430   3.088   6.370   9.423 -0.2781  0.2453 -0.9344
 1745TIP3    H229431   2.974   6.374   9.324 -1.8267  0.9380  0.8180
 1746TIP3   OH229432   0.157   2.442   9.583  0.6143  0.0075 -0.2035
 1746TIP3    H129433   0.133   2.507   9.516 -0.2474  0.7481  0.7916
 1746TIP3    H229434   0.203   2.493   9.650 -0.0404 -0.4074  0.5770
 1747TIP3   OH229435   0.444   5.442  12.007 -0.0533 -0.0300  0.0839
 1747TIP3    H129436   0.466   5.527  11.968 -0.4458  0.4832  0.9518
 1747TIP3    H229437   0.497   5.437  12.086 -0.5549 -0.2827  0.4080
 1748TIP3   OH229438   6.467   3.762   8.418 -0.2303  0.3521 -0.8158
 1748TIP3    H129439   6.444   3.690   8.360  1.9374  1.2669 -2.9693
 1748TIP3    H229440   6.559   3.781   8.398 -0.1597  2.4619  1.0631
 1749TIP3   OH229441   3.215   2.532  10.951 -0.9745 -0.2128 -0.2280
 1749TIP3    H129442   3.143   2.587  10.981  0.2565  3.3063 -3.0099
 1749TIP3    H229443   3.290   2.557  11.005 -0.2881  1.4445 -1.8237
 1750TIP3   OH229444   0.385   2.825  11.435 -0.2393  0.7188  0.0528
 1750TIP3    H129445   0.295   2.809  11.407 -0.4291  1.2383  0.3518
 1750TIP3    H229446   0.430   2.742  11.420 -1.2884 -0.2723  2.0126
 1751TIP3   OH229447   2.027   4.753  10.895  0.6137 -0.2012 -0.6761
 1751TIP3    H129448   2.013   4.811  10.821  1.0648 -1.1742 -1.5492
 1751TIP3    H229449   2.053   4.811  10.967 -1.2004  0.9149 -0.8468
 1752TIP3   OH229450   0.587   1.995  12.242 -0.2119 -0.0109  0.1264
 1752TIP3    H129451   0.593   2.088  12.264  2.3118 -0.5737  2.2473
 1752TIP3    H229452   0.517   1.962  12.299 -0.6075  0.4129 -0.1015
 1753TIP3   OH229453   3.533   3.997  10.496 -0.4031  0.3742 -0.5722
 1753TIP3    H129454   3.514   4.014  10.588 -0.9495 -1.8373 -0.2152
 1753TIP3    H229455   3.484   3.917  10.476  0.4132  0.3103 -2.5365
 1754TIP3   OH229456   6.529   3.284   8.528 -0.0508 -0.8876 -0.1555
 1754TIP3    H129457   6.591   3.295   8.456  0.2683  0.0413  0.2484
 1754TIP3    H229458   6.488   3.199   8.512  0.5815 -1.0412 -0.9973
 1755TIP3   OH229459   0.439   3.083  11.519 -0.4952 -0.0730  0.3694
 1755TIP3    H129460   0.528   3.054  11.498 -0.6679  0.2832 -0.9278
 1755TIP3    H229461   0.387   3.003  11.515 -0.6810  0.0835 -1.5951
 1756TIP3   OH229462   5.398   4.038  11.307  0.2985  0.0115  0.1492
 1756TIP3    H129463   5.378   4.115  11.361  0.1455 -0.3230  0.5754
 1756TIP3    H229464   5.316   4.017  11.263  0.4397  0.3229 -0.2671
 1757TIP3   OH229465   3.297   1.582   9.309 -0.4744  0.0496  0.1438
 1757TIP3    H129466   3.298   1.492   9.276 -3.3396  0.1738 -0.5141
 1757TIP3    H229467   3.276   1.572   9.402 -1.0392  0.0416  0.0169
 1758TIP3   OH229468   0.860   3.472   9.683 -0.1343  0.3580  0.0287
 1758TIP3    H129469   0.807   3.533   9.734  1.3104  0.9100  0.9311
 1758TIP3    H229470   0.923   3.528   9.637  0.8483 -0.3993  0.4176
 1759TIP3   OH229471   6.211   2.433  11.846 -0.0297 -0.1704 -0.8837
 1759TIP3    H129472   6.250   2.364  11.792  0.9774 -2.1715  2.1375
 1759TIP3    H229473   6.124   2.399  11.868  0.8974 -1.1875  1.5672
 1760TIP3   OH229474   0.064   4.606  10.008  0.6995  0.1474  0.3846
 1760TIP3    H129475   0.056   4.549  10.084  1.1136 -0.5503 -0.0852
 1760TIP3    H229476   0.090   4.548   9.936  0.4935  0.8205 -0.2533
 1761TIP3   OH229477   3.197   6.535  11.580  0.5846  0.4541 -0.3188
 1761TIP3    H129478   3.256   6.460  11.590 -0.6098 -0.1870  3.4143
 1761TIP3    H229479   3.214   6.589  11.657  0.8706  3.7898 -2.5051
 1762TIP3   OH229480   2.775   3.394  10.937  0.0629 -0.3944  0.6077
 1762TIP3    H129481   2.726   3.426  10.861  0.8379 -1.9496 -0.6034
 1762TIP3    H229482   2.714   3.336  10.982  0.1756 -0.9062  0.1188
 1763TIP3   OH229483   1.096   1.401  12.013 -0.5117  0.6574 -0.2505
 1763TIP3    H129484   1.035   1.354  11.957  0.2358  0.6882 -1.1114
 1763TIP3    H229485   1.163   1.434  11.954  1.0143 -0.4276  0.7921
 1764TIP3   OH229486   0.776   4.301  10.176  0.2668 -0.1611 -0.2060
 1764TIP3    H129487   0.862   4.314  10.135 -0.4252  1.6708 -1.2041
 1764TIP3    H229488   0.761   4.381  10.226  0.1437 -1.4741  1.9964
 1765TIP3   OH229489   2.021   5.345  10.897  0.1810  0.0782  0.2844
 1765TIP3    H129490   2.085   5.319  10.964 -0.3125 -0.4051  0.5834
 1765TIP3    H229491   1.965   5.268  10.888  0.7331 -0.1721 -1.3003
 1766TIP3   OH229492   2.110   6.225  11.637 -0.3612 -0.3385  0.2178
 1766TIP3    H129493   2.070   6.239  11.723  1.0392  0.6023  0.7479
 1766TIP3    H229494   2.151   6.138  11.644  0.1439 -0.0724  0.6784
 1767TIP3   OH229495   3.464   5.452  11.801  0.3328 -0.3317 -0.2753
 1767TIP3    H129496   3.370   5.437  11.791  0.6140 -1.5307 -1.2827
 1767TIP3    H229497   3.477   5.542  11.770 -0.5705  0.0988  0.5428
 1768TIP3   OH229498   4.572   0.302  11.813  0.3000  0.3079 -0.2182
 1768TIP3    H129499   4.508   0.262  11.871  0.2060 -0.9877 -1.1753
 1768TIP3    H229500   4.534   0.293  11.725  1.2706  0.5466 -0.6791
 1769TIP3   OH229501   4.744   0.359   8.756 -0.1602 -0.4773 -0.0329
 1769TIP3    H129502   4.802   0.367   8.681 -1.2073 -0.4210 -0.8515
 1769TIP3    H229503   4.656   0.358   8.719 -0.6574 -1.6172  1.0973
 1770TIP3   OH229504   2.842   3.704  10.522 -0.2057  0.3876  0.4480
 1770TIP3    H129505   2.927   3.712  10.565 -0.2416  0.4177  0.5127
 1770TIP3    H229506   2.835   3.781  10.467  0.5411 -0.4283 -0.8498
 1771TIP3   OH229507   0.857   5.132  11.004 -0.0887 -0.4012 -0.0414
 1771TIP3    H129508   0.827   5.189  11.074 -0.1135 -0.1048 -0.2926
 1771TIP3    H229509   0.777   5.108  10.956 -0.0008 -0.1167 -0.3329
 1772TIP3   OH229510   3.675   1.332  10.652 -0.1487  0.1513 -0.1586
 1772TIP3    H129511   3.642   1.341  10.563 -1.5301  0.8510  0.4010
 1772TIP3    H229512   3.673   1.238  10.670  0.4207 -0.0165 -0.9604
 1773TIP3   OH229513   5.843   2.327   9.227 -0.1576 -0.0050 -0.3033
 1773TIP3    H129514   5.750   2.348   9.217 -0.0624 -0.0901 -1.5109
 1773TIP3    H229515   5.863   2.267   9.155  1.1222  1.0193 -0.8514
 1774TIP3   OH229516   0.890   0.696  11.615 -0.3456  0.3958  0.3889
 1774TIP3    H129517   0.944   0.737  11.683  0.0661  2.2478 -0.9723
 1774TIP3    H229518   0.819   0.758  11.600  0.0299  0.4512 -1.4184
 1775TIP3   OH229519   2.460   2.994  11.352  0.3678  0.2174  0.4527
 1775TIP3    H129520   2.409   3.022  11.428  0.4992 -1.6745  1.2744
 1775TIP3    H229521   2.429   2.906  11.333 -2.4018  1.8452 -4.0973
 1776TIP3   OH229522   5.967   0.307  11.922  0.1729 -0.3346 -0.0335
 1776TIP3    H129523   5.889   0.304  11.978 -0.3952 -1.9669 -0.8503
 1776TIP3    H229524   5.981   0.400  11.907 -3.0445  0.0425 -1.7211
 1777TIP3   OH229525   1.768   0.348  10.115 -0.2319  0.3053 -0.1378
 1777TIP3    H129526   1.783   0.255  10.098 -0.1870  0.2365  0.2675
 1777TIP3    H229527   1.855   0.388  10.109 -0.3534  0.4508 -1.0706
 1778TIP3   OH229528   2.060   5.443  10.264  0.3382 -0.2028  0.4932
 1778TIP3    H129529   1.975   5.446  10.222  1.2318 -2.9221 -1.8155
 1778TIP3    H229530   2.110   5.514  10.224 -1.1313  2.4935  3.0261
 1779TIP3   OH229531   0.406   0.068  11.320  0.6412 -0.2197  0.1818
 1779TIP3    H129532   0.451   0.108  11.394 -1.0096 -0.0370  1.1396
 1779TIP3    H229533   0.343   0.135  11.292 -0.0262 -0.9900 -0.1855
 1780TIP3   OH229534   0.725   0.797   9.610 -0.1777 -0.3062  0.5000
 1780TIP3    H129535   0.746   0.800   9.517  0.2677 -0.1707  0.6047
 1780TIP3    H229536   0.629   0.807   9.613 -0.1208  0.4526  0.0910
 1781TIP3   OH229537   2.587   2.047  11.964 -0.1081  0.0330 -0.1321
 1781TIP3    H129538   2.583   1.953  11.949  0.2981  0.1794 -1.2498
 1781TIP3    H229539   2.643   2.081  11.894  0.4944  1.0014  0.7830
 1782TIP3   OH229540   2.387   6.035   9.545  0.7855  0.3318  0.1616
 1782TIP3    H129541   2.297   6.068   9.547  0.6748  0.0288  2.3501
 1782TIP3    H229542   2.378   5.942   9.563  1.5972  0.4924  1.4570
 1783TIP3   OH229543   3.511   2.306  11.672  0.3509 -0.0868 -0.1816
 1783TIP3    H129544   3.430   2.345  11.704  0.9845  0.2491  1.0958
 1783TIP3    H229545   3.531   2.355  11.593 -0.9795 -0.5609 -0.8397
 1784TIP3   OH229546   0.673   4.206  11.171 -0.0602  0.0014 -0.0692
 1784TIP3    H129547   0.667   4.149  11.094 -0.9633 -0.3935  0.2780
 1784TIP3    H229548   0.601   4.268  11.160  0.9460  1.1440 -0.4726
 1785TIP3   OH229549   0.711   1.008  11.325  0.3084 -0.3628  0.0079
 1785TIP3    H129550   0.652   0.965  11.387  1.1399 -1.0625  0.3348
 1785TIP3    H229551   0.736   0.939  11.264  3.1025 -0.9399  1.6050
 1786TIP3   OH229552   3.163   6.503  11.007 -0.0029  0.2935  0.2053
 1786TIP3    H129553   3.096   6.545  10.953  0.3648 -0.2311 -0.6820
 1786TIP3    H229554   3.115   6.464  11.080 -0.4846  1.1759  0.3683
 1787TIP3   OH229555   3.418   4.960  10.004  0.2583 -0.6681  0.0718
 1787TIP3    H129556   3.496   4.912   9.977  0.3929  0.3997 -1.5619
 1787TIP3    H229557   3.443   5.052   9.997 -1.2003 -0.3030 -0.6611
 1788TIP3   OH229558   5.163   6.602  11.940  0.5516 -0.1645 -0.0179
 1788TIP3    H129559   5.223   6.538  11.900 -0.3472 -1.3834  0.5226
 1788TIP3    H229560   5.084   6.552  11.958  0.0608  0.9586  1.0432
 1789TIP3   OH229561   1.899   3.005  10.256  0.0139  0.3777  0.2582
 1789TIP3    H129562   1.929   2.914  10.254  0.8487  0.6329  0.6162
 1789TIP3    H229563   1.909   3.032  10.347  0.9372  1.1864 -0.0627
 1790TIP3   OH229564   1.845   0.573  10.423 -0.0258  0.8621 -0.4484
 1790TIP3    H129565   1.886   0.615  10.348 -0.0764 -1.3078 -1.7815
 1790TIP3    H229566   1.754   0.557  10.396 -0.0809  0.1646  0.1027
 1791TIP3   OH229567   0.856   3.964  10.810 -0.8391 -0.5871  0.3469
 1791TIP3    H129568   0.793   3.906  10.851 -2.8557  1.2496  0.0057
 1791TIP3    H229569   0.837   4.051  10.846  2.1531 -0.0680  0.9523
 1792TIP3   OH229570   5.336   5.933  10.140  0.0212 -0.6111  0.3105
 1792TIP3    H129571   5.400   5.923  10.211 -0.2212 -0.2979  0.5735
 1792TIP3    H229572   5.367   6.007  10.089  0.0336 -0.6508  0.2598
 1793TIP3   OH229573   4.711   1.437  10.123 -0.1694 -0.8780 -0.2603
 1793TIP3    H129574   4.798   1.476  10.119 -0.2047 -0.6040  1.1731
 1793TIP3    H229575   4.702   1.391  10.040  3.1078 -4.6055  1.1440
 1794TIP3   OH229576   6.432   1.030  11.057 -0.3731  0.3327 -0.4037
 1794TIP3    H129577   6.418   0.940  11.027  0.7204 -1.2994  3.2640
 1794TIP3    H229578   6.524   1.048  11.036  0.3056 -0.6952  1.3563
 1795TIP3   OH229579   2.055   0.503  10.137 -0.2925 -0.6609  0.4854
 1795TIP3    H129580   2.029   0.553  10.060  1.1014  0.1595  0.5317
 1795TIP3    H229581   2.052   0.566  10.209  0.6127 -0.8615  0.7045
 1796TIP3   OH229582   1.201   1.812   9.807  0.2343 -0.0980  0.3230
 1796TIP3    H129583   1.200   1.737   9.747  1.0576  0.6569 -0.6636
 1796TIP3    H229584   1.247   1.881   9.759  2.6059 -0.0265  2.4560
 1797TIP3   OH229585   4.755   2.037  12.007 -0.2433  0.4286  0.1286
 1797TIP3    H129586   4.739   2.131  12.007  0.7248  0.6440  2.2965
 1797TIP3    H229587   4.717   2.005  12.089  1.4891 -0.6469  0.5789
 1798TIP3   OH229588   1.838   4.347   9.463  0.5675  0.2650  0.6303
 1798TIP3    H129589   1.758   4.295   9.464  0.1481  0.9050  0.3136
 1798TIP3    H229590   1.833   4.398   9.383  1.7624 -0.4160  0.0981
 1799TIP3   OH229591   1.761   6.291   9.659 -0.2754  0.7339 -0.2683
 1799TIP3    H129592   1.783   6.243   9.579 -0.3732  1.3603 -0.6838
 1799TIP3    H229593   1.801   6.241   9.730 -0.6743 -0.1451 -0.6537
 1800TIP3   OH229594   0.478   3.922  11.162  0.2621  0.0375  0.4969
 1800TIP3    H129595   0.385   3.907  11.177 -0.1349  1.7757 -0.0063
 1800TIP3    H229596   0.520   3.895  11.243 -0.8560  0.6370  1.3113
 1801TIP3   OH229597   4.482   1.502  11.268  0.1176  0.1573  0.4518
 1801TIP3    H129598   4.495   1.470  11.357 -1.4063 -2.3121 -0.1239
 1801TIP3    H229599   4.468   1.424  11.216 -0.1325  1.6028 -1.7743
 1802TIP3   OH229600   5.389   0.065  10.572  0.4039 -0.4387 -0.9963
 1802TIP3    H129601   5.360  -0.026  10.563 -1.0190  0.0994 -2.2992
 1802TIP3    H229602   5.348   0.094  10.653  0.9225 -0.9718 -0.5353
 1803TIP3   OH229603   3.157   1.356  11.154 -0.2653 -0.3360  0.2259
 1803TIP3    H129604   3.064   1.350  11.176 -0.3477 -1.2768 -0.3140
 1803TIP3    H229605   3.167   1.300  11.077  0.4572  1.0210 -0.6966
 1804TIP3   OH229606   1.374   3.399   9.936 -0.5430  0.0949  0.5694
 1804TIP3    H129607   1.343   3.365  10.020 -0.7074 -0.6460  0.2151
 1804TIP3    H229608   1.409   3.322   9.890 -0.0928  0.5611  0.1173
 1805TIP3   OH229609   4.258   1.466   9.091  0.2025  0.1997  0.0608
 1805TIP3    H129610   4.222   1.379   9.105 -0.4354  0.6258  1.2101
 1805TIP3    H229611   4.340   1.467   9.140 -0.4554  0.6639  1.1820
 1806TIP3   OH229612   0.257   5.905  12.172  0.0638  0.5677 -0.0510
 1806TIP3    H129613   0.223   5.833  12.225 -0.5773  0.9763  0.1018
 1806TIP3    H229614   0.260   5.871  12.083  0.5504  0.0837  0.1446
 1807TIP3   OH229615   1.478   3.950  11.703  0.4696 -0.0816  0.3995
 1807TIP3    H129616   1.483   4.041  11.733  0.0060  0.2704 -0.5492
 1807TIP3    H229617   1.477   3.898  11.783  0.1012  0.7828  0.9701
 1808TIP3   OH229618   5.299   3.363   9.280 -0.3040 -0.0415  0.5995
 1808TIP3    H129619   5.365   3.295   9.269 -0.5068 -0.1602  0.0948
 1808TIP3    H229620   5.278   3.392   9.191  0.6633  1.5561  0.8421
 1809TIP3   OH229621   0.657   0.134  11.028  0.5935 -0.1155 -0.3862
 1809TIP3    H129622   0.720   0.126  10.956  0.5480  2.2646 -0.7837
 1809TIP3    H229623   0.582   0.180  10.989 -1.1748 -2.2334  0.2492
 1810TIP3   OH229624   3.819   2.888   9.348 -0.5086 -0.0787  0.2985
 1810TIP3    H129625   3.811   2.974   9.307 -2.6754  0.1143  1.0049
 1810TIP3    H229626   3.827   2.827   9.275  1.5370  0.7130 -0.2016
 1811TIP3   OH229627   2.674   5.162  11.840  0.6571 -0.6741  0.3951
 1811TIP3    H129628   2.719   5.239  11.805  0.6997  0.0131  1.8790
 1811TIP3    H229629   2.625   5.127  11.766  1.3232  0.2756 -0.5225
 1812TIP3   OH229630   0.068   1.669  10.668  0.0068  0.6367  0.2489
 1812TIP3    H129631   0.134   1.720  10.622 -1.2394  0.6877 -1.6463
 1812TIP3    H229632  -0.015   1.702  10.634 -0.9816  0.0655  1.9735
 1813TIP3   OH229633   6.241   6.429   9.751 -0.2464 -0.7571 -0.1663
 1813TIP3    H129634   6.324   6.383   9.764  0.7014  0.9630  0.0818
 1813TIP3    H229635   6.246   6.505   9.809 -1.8550 -0.4204 -0.4172
 1814TIP3   OH229636   5.605   6.544  10.234 -0.1081 -0.4408  0.5635
 1814TIP3    H129637   5.520   6.539  10.278  0.6781 -1.2182  2.0318
 1814TIP3    H229638   5.584   6.529  10.141 -1.2214 -4.0822  1.2545
 1815TIP3   OH229639   1.787   6.352  11.226 -0.2589  0.0552  0.3858
 1815TIP3    H129640   1.731   6.297  11.282  2.8229 -2.2623  1.4545
 1815TIP3    H229641   1.750   6.342  11.138 -1.9251 -0.7346  1.1231
 1816TIP3   OH229642   2.935   2.880  10.763 -0.6604 -0.7300 -0.3993
 1816TIP3    H129643   2.998   2.813  10.790 -0.0167  0.1884  0.4533
 1816TIP3    H229644   2.984   2.936  10.702 -0.4336  0.3239  0.7091
 1817TIP3   OH229645   4.737   5.799  10.001  0.2555  0.6944  0.1487
 1817TIP3    H129646   4.722   5.852  10.079 -0.2535  0.3405  0.2999
 1817TIP3    H229647   4.768   5.715  10.035 -0.0898  0.4979 -0.0217
 1818TIP3   OH229648   4.542   3.754   9.122  0.4623 -0.7991 -0.1089
 1818TIP3    H129649   4.560   3.807   9.200  1.6568 -2.2393  0.6592
 1818TIP3    H229650   4.570   3.808   9.049 -2.1485  1.2389  0.2419
 1819TIP3   OH229651   0.916   5.024  11.295  0.6550 -0.3462 -0.1331
 1819TIP3    H129652   0.883   5.036  11.206 -1.5488  1.3935  0.8369
 1819TIP3    H229653   1.009   5.048  11.289  0.5671 -0.3254 -1.9649
 1820TIP3   OH229654   4.878   2.908  11.525  0.0884 -0.3729 -0.4827
 1820TIP3    H129655   4.899   2.818  11.551 -0.8429 -0.4274  0.1309
 1820TIP3    H229656   4.935   2.963  11.579 -1.8218 -0.4832  1.8045
 1821TIP3   OH229657   3.788   2.259  11.028 -0.0333 -0.4107 -0.4585
 1821TIP3    H129658   3.766   2.315  11.102  0.9460 -0.4353 -0.1298
 1821TIP3    H229659   3.873   2.221  11.051  0.1688 -0.6183 -1.4817
 1822TIP3   OH229660   0.475   0.974  11.134  0.3887  0.2855 -0.0377
 1822TIP3    H129661   0.498   1.063  11.162  0.4043 -0.5562  3.0973
 1822TIP3    H229662   0.445   0.983  11.044  3.4030  2.9592 -0.9533
 1823TIP3   OH229663   6.267   4.996   9.136  0.1048  0.2093  0.7239
 1823TIP3    H129664   6.242   5.041   9.055  1.9156  1.4823  0.8248
 1823TIP3    H229665   6.300   4.911   9.106  1.3815  0.9227  0.0354
 1824TIP3   OH229666   2.483   1.474  11.565 -0.1554 -0.1310  0.0671
 1824TIP3    H129667   2.554   1.507  11.510  0.5457 -1.2246  0.2913
 1824TIP3    H229668   2.456   1.393  11.523 -1.7648  0.6117 -0.3983
 1825TIP3   OH229669   0.668   2.190  11.263  0.1224 -0.0799 -0.1591
 1825TIP3    H129670   0.687   2.114  11.318  0.9411  0.8596  0.9065
 1825TIP3    H229671   0.747   2.200  11.209 -0.1368 -0.2053 -0.5635
 1826TIP3   OH229672   4.923   1.725  10.660  0.2594 -0.6277 -0.4617
 1826TIP3    H129673   4.908   1.633  10.682 -1.2387 -0.3170 -0.0544
 1826TIP3    H229674   4.924   1.728  10.565 -0.6599 -0.9516 -0.4915
 1827TIP3   OH229675   4.951   1.678   8.531  0.2106 -0.5968 -0.6684
 1827TIP3    H129676   4.937   1.715   8.444  1.3346  0.3485 -0.4692
 1827TIP3    H229677   4.880   1.614   8.542  0.4033 -1.1611 -2.4950
 1828TIP3   OH229678   3.937   0.295  11.280 -0.4904  0.1127 -0.6210
 1828TIP3    H129679   3.977   0.378  11.304 -0.1818 -0.3265  0.4005
 1828TIP3    H229680   3.849   0.299  11.317 -0.2630 -0.2696 -0.0396
 1829TIP3   OH229681   1.115   5.889  11.091  0.5053  0.6801  0.1214
 1829TIP3    H129682   1.209   5.883  11.112  0.5464  2.3607  0.5181
 1829TIP3    H229683   1.112   5.947  11.014 -0.1510 -0.1976 -0.5363
 1830TIP3   OH229684   1.401   2.147  11.555 -0.2189  0.4715 -0.0426
 1830TIP3    H129685   1.398   2.066  11.606  1.4939 -0.4683 -1.3058
 1830TIP3    H229686   1.338   2.133  11.484  0.3265  0.0662 -0.4598
 1831TIP3   OH229687   3.330   1.129  11.940  0.3466  0.4215  0.2081
 1831TIP3    H129688   3.243   1.109  11.974  0.2627  1.0028  0.3466
 1831TIP3    H229689   3.387   1.063  11.979 -0.1299 -0.3555 -0.3837
 1832TIP3   OH229690   4.913   5.457  11.012  0.0231  0.2949 -0.2963
 1832TIP3    H129691   4.988   5.504  10.975 -0.7503  0.2136 -2.0263
 1832TIP3    H229692   4.878   5.406  10.939 -0.8878 -0.7615  0.8375
 1833TIP3   OH229693   5.591   1.968   9.890  0.3096 -0.0762  0.5982
 1833TIP3    H129694   5.548   1.883   9.888  0.8458 -0.3447 -1.2267
 1833TIP3    H229695   5.648   1.964   9.967 -1.8942 -0.1710  2.3335
 1834TIP3   OH229696   5.564   4.520   9.993 -0.0216 -0.3448  0.0873
 1834TIP3    H129697   5.603   4.465  10.062  1.5458  1.7719  0.9985
 1834TIP3    H229698   5.630   4.522   9.924 -0.2734 -0.0031 -0.1467
 1835TIP3   OH229699   1.606   0.861  10.217  1.2209  0.9831 -0.3490
 1835TIP3    H129700   1.670   0.836  10.150  2.1950 -0.2514  0.9762
 1835TIP3    H229701   1.537   0.794  10.210  1.0213  1.2069 -0.5201
 1836TIP3   OH229702   4.345   5.805   8.846 -0.9319  0.9800 -0.1901
 1836TIP3    H129703   4.419   5.831   8.791 -0.2909 -0.1791  0.0911
 1836TIP3    H229704   4.286   5.760   8.786  0.6239 -1.9513  0.3170
 1837TIP3   OH229705   5.130   0.531  11.434  0.1271 -0.9823 -0.3549
 1837TIP3    H129706   5.158   0.459  11.377 -0.7935 -0.7171 -1.1621
 1837TIP3    H229707   5.039   0.512  11.455  0.0759 -0.4027 -0.0255
 1838TIP3   OH229708   2.360   6.589   9.692 -0.1047 -0.2221 -0.4898
 1838TIP3    H129709   2.442   6.566   9.736 -0.5209 -1.2244 -0.2109
 1838TIP3    H229710   2.373   6.560   9.601 -0.1220 -0.3078 -0.4649
 1839TIP3   OH229711   5.115   5.839   9.680 -0.2087 -0.2437  0.0009
 1839TIP3    H129712   5.095   5.875   9.766 -1.2080  1.7754 -1.0132
 1839TIP3    H229713   5.079   5.902   9.618  2.6931 -0.2913 -1.9597
 1840TIP3   OH229714   0.960   0.134  11.936  0.1044 -0.3200  0.3015
 1840TIP3    H129715   1.001   0.175  11.860  2.8660 -0.9472  1.3360
 1840TIP3    H229716   0.877   0.180  11.946  0.0474  0.3914 -2.5104
 1841TIP3   OH229717   4.844   2.921   9.868 -0.1019  0.2805 -0.1307
 1841TIP3    H129718   4.887   2.889   9.788  0.2020  0.1299  0.0890
 1841TIP3    H229719   4.897   2.996   9.895  1.5904 -1.4022  1.5444
 1842TIP3   OH229720   2.100   0.511  11.334 -0.7879 -0.5282  0.1686
 1842TIP3    H129721   2.168   0.517  11.401 -2.1081  0.2949  1.4985
 1842TIP3    H229722   2.130   0.571  11.264 -0.3622  0.1685  0.9284
 1843TIP3   OH229723   6.266   6.242  11.453  0.2235  0.1263  0.5301
 1843TIP3    H129724   6.192   6.225  11.394  0.2222  0.1591  0.5222
 1843TIP3    H229725   6.314   6.313  11.411 -0.3779  0.8876  1.1156
 1844TIP3   OH229726   3.311   0.895  11.038  0.8929 -0.1318  0.2164
 1844TIP3    H129727   3.385   0.948  11.007 -0.7647  1.5276 -1.1310
 1844TIP3    H229728   3.234   0.944  11.012 -0.7423 -2.3623  0.5382
 1845TIP3   OH229729   5.401   2.801   9.802 -0.0895  0.0882  0.1184
 1845TIP3    H129730   5.408   2.897   9.806 -2.0185  0.4554 -2.4042
 1845TIP3    H229731   5.327   2.780   9.859 -0.6089  0.3082 -0.4586
 1846TIP3   OH229732   5.930   2.802  10.526 -0.0366  0.1378  0.1095
 1846TIP3    H129733   5.876   2.733  10.487  1.0082 -0.1205 -0.9184
 1846TIP3    H229734   5.873   2.842  10.592 -1.6574  0.1845 -1.2576
 1847TIP3   OH229735   4.240   5.226  12.108  0.0552 -0.5754 -0.1121
 1847TIP3    H129736   4.274   5.304  12.065  0.0991  1.2765  2.9622
 1847TIP3    H229737   4.316   5.170  12.121  0.9125  0.8496  1.3924
 1848TIP3   OH229738   0.434   4.373  11.054 -0.2119 -0.2726  0.6718
 1848TIP3    H129739   0.416   4.449  10.999 -2.4933 -1.0707  0.2306
 1848TIP3    H229740   0.418   4.298  10.997  2.0644 -1.1589  1.0760
 1849TIP3   OH229741   1.337   4.409  10.076 -0.2655 -0.1618 -0.2708
 1849TIP3    H129742   1.376   4.347  10.015 -2.0614 -0.0486 -1.6060
 1849TIP3    H229743   1.283   4.466  10.021 -2.5340 -0.4925  1.4644
 1850TIP3   OH229744   0.035   3.241   9.548  0.2218  0.5519  0.2697
 1850TIP3    H129745  -0.053   3.278   9.548  0.0102  0.1638 -1.2637
 1850TIP3    H229746   0.092   3.313   9.523  0.3953  0.8682  1.5180
 1851TIP3   OH229747   4.603   4.299   9.432 -0.0296 -0.0624 -0.0161
 1851TIP3    H129748   4.671   4.290   9.365 -1.1865 -1.9311 -1.0245
 1851TIP3    H229749   4.550   4.373   9.403  0.5513  0.3166 -0.1423
 1852TIP3   OH229750   6.542   5.638  11.005 -0.0082  0.0901 -0.1110
 1852TIP3    H129751   6.620   5.608  11.052 -0.7559 -1.5243  0.1800
 1852TIP3    H229752   6.569   5.719  10.962  0.5315  2.1094  3.6206
 1853TIP3   OH229753   4.718   3.873  10.905  0.1458  0.2090  0.4181
 1853TIP3    H129754   4.812   3.871  10.891  0.2150 -0.7020  0.9425
 1853TIP3    H229755   4.682   3.821  10.833 -0.1354  1.9746 -0.8205
 1854TIP3   OH229756   5.940   4.692  11.594 -0.2817  0.4464  0.7890
 1854TIP3    H129757   5.918   4.617  11.650  1.6148 -0.1437  0.8093
 1854TIP3    H229758   5.984   4.754  11.652  0.3209  0.5060  0.2834
 1855TIP3   OH229759   0.920   5.571  12.187  0.4755  0.2024 -0.4490
 1855TIP3    H129760   0.867   5.650  12.198  0.5282  0.6314 -2.7660
 1855TIP3    H229761   0.859   5.499  12.204 -0.6389  0.7098 -2.1273
 1856TIP3   OH229762   4.944   4.324   9.353 -0.1039 -0.6811  0.7252
 1856TIP3    H129763   4.865   4.325   9.299 -0.0801  1.7431  0.6184
 1856TIP3    H229764   5.009   4.374   9.303  1.0363 -1.3668  1.4653
 1857TIP3   OH229765   2.890   3.846   9.284 -0.6304 -0.2867 -0.4028
 1857TIP3    H129766   2.976   3.885   9.297 -0.8488  0.0203  0.1237
 1857TIP3    H229767   2.861   3.880   9.199 -0.8397  0.7403  0.0698
 1858TIP3   OH229768   0.053   3.009  10.841  0.1073 -0.4375 -0.4680
 1858TIP3    H129769  -0.019   2.987  10.783  0.7359  0.7384 -1.7559
 1858TIP3    H229770   0.011   3.038  10.922 -0.8975  0.4066 -1.2586
 1859TIP3   OH229771   1.270   5.488  11.493 -0.0326 -0.0307  0.1039
 1859TIP3    H129772   1.267   5.544  11.571  0.6905 -0.0917  0.1744
 1859TIP3    H229773   1.242   5.546  11.421 -0.5078  0.0788  0.3727
 1860TIP3   OH229774   3.231   5.636  10.607 -0.7210  0.4356  0.0264
 1860TIP3    H129775   3.313   5.678  10.582 -0.8028  1.1757  0.9576
 1860TIP3    H229776   3.220   5.565  10.544  0.4791  0.5153 -0.2841
 1861TIP3   OH229777   0.148   4.164  10.574 -0.5772 -0.2365 -0.3436
 1861TIP3    H129778   0.178   4.226  10.641 -1.9629  0.6118 -0.4579
 1861TIP3    H229779   0.078   4.115  10.617  1.3964 -2.7433  0.1944
 1862TIP3   OH229780   0.155   4.942   9.010 -0.0320 -0.3199 -0.2667
 1862TIP3    H129781   0.111   4.858   9.001 -0.4320  0.0961 -3.3230
 1862TIP3    H229782   0.084   5.005   9.027 -0.0994 -0.2234 -0.8936
 1863TIP3   OH229783   3.112   2.584   8.715  0.2977  0.3329 -0.0939
 1863TIP3    H129784   3.123   2.503   8.664  0.8806  2.0252 -2.9077
 1863TIP3    H229785   3.173   2.646   8.675 -1.4979  2.7396  0.6290
 1864TIP3   OH229786   5.486   2.433   9.980 -0.2739  0.3507 -0.1118
 1864TIP3    H129787   5.545   2.385  10.039 -0.4667  0.7305  0.3994
 1864TIP3    H229788   5.411   2.375   9.969  0.4062 -0.3628 -1.1813
 1865TIP3   OH229789   1.517   0.646  11.310  0.1333 -0.2730  0.0418
 1865TIP3    H129790   1.440   0.617  11.261 -0.4544 -0.7904  1.2472
 1865TIP3    H229791   1.580   0.574  11.300  0.6939  0.3734 -1.3800
 1866TIP3   OH229792   5.799   6.373  10.751 -0.0112  0.3252 -0.3023
 1866TIP3    H129793   5.819   6.306  10.818  1.3990  0.0726 -0.9380
 1866TIP3    H229794   5.729   6.334  10.699 -0.7294  0.2807  0.6577
 1867TIP3   OH229795   2.057   5.444  12.096 -0.0395  0.0172 -0.1575
 1867TIP3    H129796   2.034   5.520  12.149 -0.4117  0.3108 -0.7323
 1867TIP3    H229797   2.129   5.474  12.041 -0.0573 -0.1087 -0.2511
 1868TIP3   OH229798   3.054   0.252  11.818  0.1274  0.4098  0.1707
 1868TIP3    H129799   3.095   0.303  11.887  0.2402 -2.3575  2.3366
 1868TIP3    H229800   2.960   0.259  11.835  0.0882  0.6485 -0.1303
 1869TIP3   OH229801   1.393   1.216   9.846  0.5426 -0.1209  0.0922
 1869TIP3    H129802   1.388   1.163   9.926 -0.5403 -1.3730 -0.7760
 1869TIP3    H229803   1.435   1.297   9.874  0.7277 -0.7730  1.8086
 1870TIP3   OH229804   1.345   4.795  11.317  0.7802  0.2944  0.0258
 1870TIP3    H129805   1.290   4.870  11.340 -0.2213 -0.7609  1.2076
 1870TIP3    H229806   1.405   4.829  11.250 -0.8775  1.6447 -0.8501
 1871TIP3   OH229807   4.209   0.224  11.215 -0.1062  0.3173 -0.3942
 1871TIP3    H129808   4.118   0.219  11.244  0.2518  0.0460  0.7468
 1871TIP3    H229809   4.227   0.318  11.207 -0.0294  0.4389  0.9637
 1872TIP3   OH229810   6.456   0.760  12.338 -0.1664  0.3449 -0.4754
 1872TIP3    H129811   6.439   0.841  12.386  1.5238  0.0865  0.6581
 1872TIP3    H229812   6.408   0.692  12.386  0.3254  0.3214 -0.0078
 1873TIP3   OH229813   5.728   0.342  12.023 -0.2678 -0.4617 -0.1003
 1873TIP3    H129814   5.667   0.299  11.963 -0.6034 -0.3850  0.1839
 1873TIP3    H229815   5.692   0.327  12.110 -1.2950  1.7485 -0.0611
 1874TIP3   OH229816   2.100   1.631   9.684 -0.4692  0.3278  0.3992
 1874TIP3    H129817   2.072   1.635   9.593  1.3004  0.7477 -0.1648
 1874TIP3    H229818   2.121   1.539   9.699 -1.7743  0.0616  0.7412
 1875TIP3   OH229819   5.951   3.298   9.366  0.0171  0.1035 -0.1676
 1875TIP3    H129820   6.017   3.350   9.321  0.0342 -1.5053 -2.1788
 1875TIP3    H229821   5.995   3.216   9.387 -0.7381 -0.1566  0.4531
 1876TIP3   OH229822   5.391   5.361  12.215  0.3399 -0.1586  0.1607
 1876TIP3    H129823   5.375   5.361  12.309 -1.5300  0.0669 -0.1149
 1876TIP3    H229824   5.317   5.409  12.178  1.1646 -0.0203 -1.4201
 1877TIP3   OH229825   5.529   3.421   9.054  0.1793 -0.4984 -0.5139
 1877TIP3    H129826   5.606   3.369   9.074 -0.6806 -1.5280  0.2127
 1877TIP3    H229827   5.536   3.497   9.112 -0.2854 -1.5175  0.9272
 1878TIP3   OH229828   3.142   3.774  10.565 -0.4271  0.5202  0.5257
 1878TIP3    H129829   3.222   3.724  10.552 -0.3613  0.8383 -0.4303
 1878TIP3    H229830   3.170   3.866  10.559 -0.3929  0.7528  3.1462
 1879TIP3   OH229831   0.687   3.100  12.185 -0.1120  0.0087 -0.2147
 1879TIP3    H129832   0.683   3.059  12.098 -1.6870 -0.0704 -0.1333
 1879TIP3    H229833   0.616   3.164  12.184  0.3881  0.5941  0.7380
 1880TIP3   OH229834   4.704   6.514   8.603  0.5118 -0.7889  0.3458
 1880TIP3    H129835   4.715   6.444   8.538 -0.1343  0.0541 -0.7050
 1880TIP3    H229836   4.610   6.513   8.623  0.6520 -0.8118  1.0210
 1881TIP3   OH229837   2.135   1.008   9.732  0.0078  0.9761 -0.0294
 1881TIP3    H129838   2.227   0.993   9.709  0.2359  1.4251  0.5534
 1881TIP3    H229839   2.120   0.949   9.806 -1.4252 -2.3451 -2.6746
 1882TIP3   OH229840   4.309   3.692  10.525 -0.7769 -0.2167 -0.1931
 1882TIP3    H129841   4.343   3.689  10.436 -1.9657  1.1288 -0.7315
 1882TIP3    H229842   4.335   3.778  10.558 -0.6176 -0.5762  0.6408
 1883TIP3   OH229843   0.292   4.643  11.897 -0.0114 -0.1805  0.0477
 1883TIP3    H129844   0.387   4.636  11.889  0.0104 -0.1714  0.3154
 1883TIP3    H229845   0.274   4.737  11.889 -0.1090 -0.2904 -1.2558
 1884TIP3   OH229846   0.069   2.316  10.258 -0.1072 -0.2924 -0.0457
 1884TIP3    H129847   0.121   2.293  10.335 -0.1490  0.4434  0.2135
 1884TIP3    H229848  -0.020   2.288  10.279 -0.2156  0.3434  0.3917
 1885TIP3   OH229849   1.606   5.207   9.462 -0.3641 -0.0824  0.1444
 1885TIP3    H129850   1.612   5.209   9.366  1.3550  0.6401  0.2344
 1885TIP3    H229851   1.553   5.284   9.484 -0.9647 -0.3834 -0.2246
 1886TIP3   OH229852   6.340   2.196   9.640  0.4886 -0.7868 -0.3639
 1886TIP3    H129853   6.307   2.118   9.684 -2.0787  0.1548 -0.4446
 1886TIP3    H229854   6.365   2.255   9.711 -0.9525 -0.3623 -0.1787
 1887TIP3   OH229855   6.302   3.843   9.300  0.5635 -0.4036 -0.4285
 1887TIP3    H129856   6.249   3.781   9.348 -1.5448  0.8945 -0.9580
 1887TIP3    H229857   6.299   3.813   9.209  0.0201  0.1280 -0.5933
 1888TIP3   OH229858   0.376   3.133  11.939  0.3416 -0.5488 -0.1082
 1888TIP3    H129859   0.319   3.157  11.865 -0.9932 -0.1971  0.9924
 1888TIP3    H229860   0.380   3.212  11.993  0.9646 -0.9350  0.4234
 1889TIP3   OH229861   2.941   2.739   9.968  0.1437 -0.8160 -1.2545
 1889TIP3    H129862   3.019   2.695  10.001  0.5268 -0.7040 -1.9928
 1889TIP3    H229863   2.873   2.672   9.968  0.1619 -0.8527 -0.3760
 1890TIP3   OH229864   6.603   1.672   9.656 -0.7027  0.2807 -0.2077
 1890TIP3    H129865   6.666   1.604   9.630  0.4684  0.8155  1.0637
 1890TIP3    H229866   6.578   1.648   9.745 -0.8886  1.0795 -0.0365
 1891TIP3   OH229867   6.583   3.280  10.192 -0.4846  0.1658 -0.1164
 1891TIP3    H129868   6.577   3.269  10.097 -0.9634  1.4442 -0.2496
 1891TIP3    H229869   6.537   3.204  10.228 -2.6914  1.0030 -0.9618
 1892TIP3   OH229870   2.748   4.147  11.052  0.2553 -0.6955  0.6208
 1892TIP3    H129871   2.819   4.113  10.997  0.1358  0.4987 -0.3084
 1892TIP3    H229872   2.793   4.185  11.128  0.7067  0.7652 -0.3397
 1893TIP3   OH229873   5.852   4.846  11.917  0.3460  0.6356 -0.2021
 1893TIP3    H129874   5.929   4.902  11.928 -0.4801  1.5686  1.1875
 1893TIP3    H229875   5.825   4.823  12.006  0.7717 -2.2319 -0.7035
 1894TIP3   OH229876   6.191   5.677  11.906  0.5950 -0.1943 -0.4485
 1894TIP3    H129877   6.189   5.609  11.973  2.2030 -0.2428 -0.4189
 1894TIP3    H229878   6.231   5.635  11.830  2.5016  0.9303 -0.1289
 1895TIP3   OH229879   2.434   0.371  11.065 -0.1215 -0.3361  0.5668
 1895TIP3    H129880   2.522   0.401  11.042 -1.1176  1.6401 -0.9561
 1895TIP3    H229881   2.418   0.406  11.152 -0.4951  2.0358 -0.3737
 1896TIP3   OH229882   5.809   5.554  11.067 -0.1719  0.0072 -0.0366
 1896TIP3    H129883   5.771   5.483  11.118 -1.9072  0.7924 -0.1272
 1896TIP3    H229884   5.799   5.631  11.123 -0.1118  0.4985 -0.6827
 1897TIP3   OH229885   4.646   2.120   9.701  0.1532 -0.2833  0.2885
 1897TIP3    H129886   4.646   2.051   9.767  0.8072 -1.7763 -1.1939
 1897TIP3    H229887   4.554   2.135   9.682 -0.0391  0.0755  1.4073
 1898TIP3   OH229888   1.145   6.266  10.040 -0.0533 -0.3041 -0.4305
 1898TIP3    H129889   1.143   6.238  10.132  1.4821 -1.4431 -0.6959
 1898TIP3    H229890   1.129   6.360  10.043  0.0583 -0.3101  1.0155
 1899TIP3   OH229891   4.716   4.561  11.908  0.0829  0.7248  0.1102
 1899TIP3    H129892   4.642   4.621  11.911  0.5840  1.3698 -0.0802
 1899TIP3    H229893   4.719   4.530  11.817 -0.3918  0.1267  0.2949
 1900TIP3   OH229894   5.505   6.576   9.455 -0.4122 -0.2655  0.5256
 1900TIP3    H129895   5.421   6.536   9.481 -0.3560 -0.7607 -0.0221
 1900TIP3    H229896   5.564   6.501   9.445  0.0618  0.0726  0.7750
 1901TIP3   OH229897   2.437   0.808   9.380 -0.1973 -0.6501  0.2859
 1901TIP3    H129898   2.470   0.818   9.291  2.1837 -0.4475  1.0974
 1901TIP3    H229899   2.434   0.713   9.394  1.1682 -0.6840  0.5214
 1902TIP3   OH229900   5.931   3.200  10.461  0.7012 -0.1972  0.4024
 1902TIP3    H129901   5.876   3.278  10.461 -1.2814 -1.4610 -1.4874
 1902TIP3    H229902   5.953   3.185  10.553 -0.7672  1.2872  1.0422
 1903TIP3   OH229903   4.933   6.446  11.930 -0.4272  0.4612  0.1952
 1903TIP3    H129904   4.873   6.438  12.005 -0.2472  0.6618  0.3603
 1903TIP3    H229905   4.876   6.470  11.856 -0.8122 -1.0601 -0.0393
 1904TIP3   OH229906   0.384   5.214   9.781  0.3091 -0.1462 -0.0285
 1904TIP3    H129907   0.439   5.140   9.756  0.9859 -0.1379  1.3052
 1904TIP3    H229908   0.431   5.254   9.855 -1.5789 -0.2729  1.3112
 1905TIP3   OH229909   1.323   1.414  11.610  0.0079 -0.3337 -0.3907
 1905TIP3    H129910   1.369   1.352  11.667 -1.4260 -1.3171 -0.2403
 1905TIP3    H229911   1.289   1.480  11.669  1.6242  0.7058 -0.5602
 1906TIP3   OH229912   5.293   0.616  11.010  0.1696  0.2007 -0.4598
 1906TIP3    H129913   5.229   0.573  11.067  0.0097 -0.1968 -0.9386
 1906TIP3    H229914   5.323   0.691  11.061 -1.5454  1.0767 -0.7069
 1907TIP3   OH229915   2.447   2.124  12.176  0.6137 -0.1663  0.3527
 1907TIP3    H129916   2.519   2.081  12.129  0.4203  0.1667 -0.2564
 1907TIP3    H229917   2.383   2.054  12.190  0.7651 -0.3148  0.3072
 1908TIP3   OH229918   4.217   5.885  10.909  0.7236  0.1836  0.1054
 1908TIP3    H129919   4.160   5.946  10.862 -0.1470  0.1385  1.0938
 1908TIP3    H229920   4.306   5.917  10.891  0.3817  0.5041 -1.0915
 1909TIP3   OH229921   3.872   3.820   9.776 -0.1617 -0.0492  0.0323
 1909TIP3    H129922   3.795   3.825   9.832  0.7962 -1.1109  1.5064
 1909TIP3    H229923   3.866   3.734   9.734 -0.7860  0.6702 -1.4297
 1910TIP3   OH229924   3.599   1.171  11.249 -0.1412  0.0747  0.2738
 1910TIP3    H129925   3.512   1.131  11.246  0.4258 -1.1391 -1.8452
 1910TIP3    H229926   3.586   1.259  11.216 -0.4674 -0.3697 -0.8195
 1911TIP3   OH229927   4.035   0.880   9.536  0.0207  0.3435 -0.0288
 1911TIP3    H129928   4.050   0.896   9.442  0.1583  1.7597  0.2256
 1911TIP3    H229929   3.941   0.865   9.543 -0.0230  0.4482 -0.3637
 1912TIP3   OH229930   0.808   2.015   8.933  0.0000 -0.0967 -0.6403
 1912TIP3    H129931   0.776   1.979   8.850 -1.3552  0.0937 -0.2234
 1912TIP3    H229932   0.903   2.021   8.921 -0.2283  0.6170 -2.4623
 1913TIP3   OH229933   5.055   1.830   9.446 -0.4257  0.3443 -0.0873
 1913TIP3    H129934   5.125   1.845   9.510 -0.4331 -0.8694  0.2337
 1913TIP3    H229935   4.977   1.817   9.500 -0.8107  1.2191 -0.4271
 1914TIP3   OH229936   5.672   2.280  10.101 -0.1721 -0.3562 -0.1337
 1914TIP3    H129937   5.767   2.273  10.097 -0.1892 -1.2385  0.6987
 1914TIP3    H229938   5.646   2.217  10.168 -1.2038  1.2083  1.0046
 1915TIP3   OH229939   0.375   2.435   9.273  0.0317 -0.2946  0.0696
 1915TIP3    H129940   0.373   2.343   9.298  1.1094 -0.3447 -0.0095
 1915TIP3    H229941   0.443   2.474   9.328 -1.1652  0.7113  0.9065
 1916TIP3   OH229942   1.919   6.227  10.400  0.1596 -0.5294 -0.0411
 1916TIP3    H129943   1.951   6.223  10.311 -0.1762  1.8309 -0.3486
 1916TIP3    H229944   1.997   6.232  10.454  0.3799  0.5155 -0.4292
 1917TIP3   OH229945   6.629   6.292   8.509 -0.2066  0.1263 -0.2231
 1917TIP3    H129946   6.670   6.374   8.482  1.2232 -0.5178 -0.0988
 1917TIP3    H229947   6.540   6.317   8.535  0.7337  1.9134  1.5214
 1918TIP3   OH229948   0.118   5.831  10.389  0.6001  0.4725 -0.0682
 1918TIP3    H129949   0.083   5.865  10.307  1.2787 -0.2723 -0.6792
 1918TIP3    H229950   0.068   5.877  10.457 -0.4014  0.6431 -0.8896
 1919TIP3   OH229951   4.518   1.361  11.538 -0.4013  0.1933  0.2525
 1919TIP3    H129952   4.524   1.326  11.627  2.8821 -1.2447 -0.3489
 1919TIP3    H229953   4.509   1.455  11.550  2.2177  0.3300  2.2735
 1920TIP3   OH229954   0.081   0.774  10.553 -0.3301  0.5026 -0.1156
 1920TIP3    H129955   0.144   0.837  10.520 -0.9476  1.4869  0.5284
 1920TIP3    H229956   0.072   0.709  10.483 -0.3206  1.5944 -1.1506
 1921TIP3   OH229957   5.355   4.881   9.776 -0.3111  0.2409 -0.4891
 1921TIP3    H129958   5.308   4.818   9.831 -0.0011  0.9713  0.6490
 1921TIP3    H229959   5.443   4.843   9.768 -0.2069  0.3741 -0.0392
 1922TIP3   OH229960   1.836   3.677   9.681  0.4234  0.4805 -0.3710
 1922TIP3    H129961   1.927   3.675   9.652 -0.0885 -0.1579 -2.0532
 1922TIP3    H229962   1.788   3.715   9.607 -0.7560  0.1518  0.2034
 1923TIP3   OH229963   0.454   2.955   8.909 -0.1859 -0.0061 -0.1145
 1923TIP3    H129964   0.522   2.893   8.881 -0.1790  0.7216 -1.7736
 1923TIP3    H229965   0.393   2.901   8.959  1.2427 -0.8069  0.8574
 1924TIP3   OH229966   5.525   5.513   9.371 -0.3373 -0.2275  0.3054
 1924TIP3    H129967   5.578   5.459   9.313 -0.3304  1.2867 -1.1662
 1924TIP3    H229968   5.584   5.582   9.401 -0.8837  0.1831  0.4629
 1925TIP3   OH229969   5.749   4.451   8.575 -0.2376  0.5999  0.1603
 1925TIP3    H129970   5.776   4.401   8.652 -1.7522 -0.4324  0.0646
 1925TIP3    H229971   5.799   4.413   8.503 -1.4378 -0.8936  0.0738
 1926TIP3   OH229972   3.147   2.442   9.765 -0.4956  0.7579 -0.7643
 1926TIP3    H129973   3.102   2.358   9.764  0.6261  0.1395 -0.6908
 1926TIP3    H229974   3.197   2.443   9.683 -0.3426  1.2653 -0.6672
 1927TIP3   OH229975   4.822   4.398  11.390 -0.1038 -0.5964 -0.7407
 1927TIP3    H129976   4.820   4.411  11.485  0.8745 -1.7237 -0.5368
 1927TIP3    H229977   4.765   4.466  11.355  0.1016  0.3069  0.5997
 1928TIP3   OH229978   1.820   5.051  11.669  0.2512 -0.2843  0.3920
 1928TIP3    H129979   1.895   5.047  11.728 -1.5323  0.9953  2.9067
 1928TIP3    H229980   1.787   4.961  11.665 -0.1199 -0.2520  2.1282
 1929TIP3   OH229981   3.435   5.525  11.164 -0.4275 -0.7175  0.3061
 1929TIP3    H129982   3.454   5.600  11.107  0.8196 -1.2123  0.0419
 1929TIP3    H229983   3.339   5.520  11.166 -0.5093  0.1337 -0.6499
 1930TIP3   OH229984   3.295   4.869   9.718 -0.2279  0.9147  0.3200
 1930TIP3    H129985   3.365   4.812   9.749 -0.0828  0.0946 -1.4163
 1930TIP3    H229986   3.234   4.811   9.673 -0.2881  2.0345 -1.1401
 1931TIP3   OH229987   3.049   2.687  12.151  0.4068 -0.7079 -0.1523
 1931TIP3    H129988   2.996   2.767  12.152  2.3693  0.6805  0.8827
 1931TIP3    H229989   2.985   2.616  12.157 -1.3540  0.8445  0.7347
 1932TIP3   OH229990   0.023   4.445  10.230 -0.2485  0.2903  0.2338
 1932TIP3    H129991   0.119   4.441  10.234 -0.2397  0.5427  0.3146
 1932TIP3    H229992  -0.007   4.400  10.308 -0.2176 -0.7057 -0.3162
 1933TIP3   OH229993   1.575   5.616  11.968  0.4231  0.2385 -0.0354
 1933TIP3    H129994   1.522   5.599  12.046 -1.7305  2.7270 -0.7949
 1933TIP3    H229995   1.617   5.533  11.948 -2.3380 -1.6252  1.3291
 1934TIP3   OH229996   3.113   2.081  11.658 -0.6980 -0.1219  0.0512
 1934TIP3    H129997   3.126   2.030  11.578 -1.9743 -0.9568  0.3382
 1934TIP3    H229998   3.094   2.169  11.626 -1.2943 -0.4640 -0.5884
 1935TIP3   OH229999   6.177   5.047  11.510  0.4438 -0.2398  0.4600
 1935TIP3    H130000   6.181   4.959  11.472  0.4766  0.2793 -0.7825
 1935TIP3    H230001   6.267   5.066  11.536  0.6846 -0.0516 -0.4991
 1936TIP3   OH230002   4.082   6.244  11.841  0.1654 -0.1954 -0.0737
 1936TIP3    H130003   4.129   6.189  11.778  1.5679  1.0158 -0.1339
 1936TIP3    H230004   4.131   6.326  11.843 -0.1168 -0.0129  2.2382
 1937TIP3   OH230005   6.121   5.714  10.647 -0.0257  0.1498 -0.4102
 1937TIP3    H130006   6.202   5.665  10.632 -0.5109 -0.1749 -2.2028
 1937TIP3    H230007   6.088   5.680  10.731  0.5363 -1.3655 -0.7668
 1938TIP3   OH230008   2.371   2.729  11.330 -0.5572 -0.0225 -0.3354
 1938TIP3    H130009   2.373   2.682  11.247  0.6710 -0.1696 -0.2410
 1938TIP3    H230010   2.286   2.706  11.368 -1.0370 -0.1368 -1.4347
 1939TIP3   OH230011   1.285   4.743   9.489  0.1873 -0.5799  0.1536
 1939TIP3    H130012   1.263   4.732   9.396 -0.2142 -4.3749  0.5356
 1939TIP3    H230013   1.283   4.654   9.525 -1.5789  0.8849  4.2695
 1940TIP3   OH230014   2.131   4.520   9.487 -0.1088 -0.0030 -0.2755
 1940TIP3    H130015   2.118   4.523   9.393 -0.6302  0.3799 -0.1953
 1940TIP3    H230016   2.043   4.524   9.524  0.1465  2.2389  0.2716
 1941TIP3   OH230017   5.021   3.421  12.123 -0.1731  0.5743 -0.1548
 1941TIP3    H130018   4.966   3.342  12.128  0.4802  0.1507  0.5161
 1941TIP3    H230019   4.962   3.488  12.089  0.0031 -0.8687 -3.7495
 1942TIP3   OH230020   4.672   4.863  10.496  0.7293  0.3871 -0.0198
 1942TIP3    H130021   4.694   4.939  10.442 -0.0433 -0.1110 -1.0553
 1942TIP3    H230022   4.663   4.899  10.585  1.0031  1.3851 -0.3801
 1943TIP3   OH230023   6.126   2.745   9.432  0.3368 -0.1810  0.6621
 1943TIP3    H130024   6.054   2.718   9.488 -1.4400  2.1366 -0.3858
 1943TIP3    H230025   6.185   2.793   9.490 -0.8620  1.1237  0.8546
 1944TIP3   OH230026   5.980   4.320   9.507 -0.0009  0.4213 -1.0014
 1944TIP3    H130027   5.910   4.324   9.442  2.1567 -1.4280 -3.7048
 1944TIP3    H230028   6.003   4.227   9.512  0.1341  0.4915  2.3586
 1945TIP3   OH230029   1.756   1.273   9.218  0.1906 -0.5816 -0.5048
 1945TIP3    H130030   1.682   1.330   9.201  1.7458  1.4579 -0.8994
 1945TIP3    H230031   1.821   1.298   9.152  0.8462 -3.0954 -0.9217
 1946TIP3   OH230032   1.183   5.671  12.054 -0.5248 -0.2574 -0.1273
 1946TIP3    H130033   1.093   5.649  12.079 -0.6031  0.1362 -0.0590
 1946TIP3    H230034   1.175   5.752  12.004 -0.0862  0.5017  0.9907
 1947TIP3   OH230035   0.395   5.898  10.468 -0.0831 -0.4871  0.4792
 1947TIP3    H130036   0.307   5.898  10.429  0.3453 -0.2787 -0.5086
 1947TIP3    H230037   0.389   5.962  10.539 -0.4778  0.2276 -0.1827
 1948TIP3   OH230038   2.959   2.311  11.323 -0.0761  0.3333  0.4827
 1948TIP3    H130039   3.044   2.339  11.289  0.0620  1.0889  1.4214
 1948TIP3    H230040   2.958   2.340  11.414 -1.8485  1.4735  0.1421
 1949TIP3   OH230041   0.787   1.401  10.233 -0.2995 -0.4418 -0.2112
 1949TIP3    H130042   0.838   1.466  10.282  2.7708 -2.5395 -0.2908
 1949TIP3    H230043   0.733   1.358  10.299 -1.9355  1.6595 -0.0650
 1950TIP3   OH230044   1.125   1.229  11.107  0.0019 -0.1430 -0.3443
 1950TIP3    H130045   1.218   1.236  11.083  0.3370  0.3260  1.0081
 1950TIP3    H230046   1.113   1.138  11.131  0.3053 -0.0534  0.1683
 1951TIP3   OH230047   4.775   6.453  11.459  0.1896 -0.0994 -0.6370
 1951TIP3    H130048   4.830   6.445  11.381 -0.2293  0.7335 -1.0351
 1951TIP3    H230049   4.700   6.506  11.430 -0.2249 -0.2052  0.2020
 1952TIP3   OH230050   4.156   5.773   9.438  0.4335 -0.6156  0.4513
 1952TIP3    H130051   4.136   5.786   9.345  0.7202  1.9003  0.6715
 1952TIP3    H230052   4.232   5.714   9.438  0.1917 -0.9768 -0.8752
 1953TIP3   OH230053   1.542   2.029  11.918  0.0323  0.0069 -0.4993
 1953TIP3    H130054   1.540   2.045  11.823  0.9356 -1.1492 -0.7362
 1953TIP3    H230055   1.630   2.055  11.945 -0.4831  1.0996  0.1917
 1954TIP3   OH230056   1.649   3.937   9.540  0.7687 -0.3329 -0.1396
 1954TIP3    H130057   1.687   3.956   9.454 -0.3168 -0.5778 -0.6921
 1954TIP3    H230058   1.718   3.961   9.602  2.0084 -1.2394 -1.1073
 1955TIP3   OH230059   1.408   2.470   9.316  0.3451  0.0351 -0.0638
 1955TIP3    H130060   1.475   2.466   9.248 -0.5698  0.8822 -1.0761
 1955TIP3    H230061   1.325   2.466   9.267 -0.4191  3.6237  0.6285
 1956TIP3   OH230062   3.208   3.629  10.097 -0.7160  0.3252  0.1875
 1956TIP3    H130063   3.271   3.557  10.096 -1.5831 -0.4548  0.0691
 1956TIP3    H230064   3.153   3.611  10.174 -0.3799  1.3733  0.6904
 1957TIP3   OH230065   4.519   6.637  10.376 -0.1460  0.1911 -0.0442
 1957TIP3    H130066   4.612   6.620  10.392 -0.1304  0.6301  0.3615
 1957TIP3    H230067   4.485   6.554  10.345 -0.0556 -0.5962  1.7938
 1958TIP3   OH230068   1.514   0.599   9.510 -0.0180  0.1131  0.0243
 1958TIP3    H130069   1.427   0.561   9.525  0.5319 -0.6665  1.3372
 1958TIP3    H230070   1.552   0.544   9.441  0.5787 -1.4769  1.5611
 1959TIP3   OH230071   0.144   2.760   8.235  0.2159 -0.0968  0.0672
 1959TIP3    H130072   0.228   2.802   8.216  0.8028 -1.1976  0.1526
 1959TIP3    H230073   0.105   2.745   8.148 -0.2490  1.0818  0.0542
 1960TIP3   OH230074   0.249   5.149  11.747  0.3615 -0.6201  0.1700
 1960TIP3    H130075   0.344   5.157  11.755  0.4250 -0.3868 -0.7242
 1960TIP3    H230076   0.221   5.232  11.708 -0.0755 -1.1252 -0.6223
 1961TIP3   OH230077   4.303   0.362  10.646  0.4604  0.0521  0.2702
 1961TIP3    H130078   4.312   0.363  10.551 -0.0636  0.1956  0.2159
 1961TIP3    H230079   4.376   0.415  10.678 -0.6254  1.9363 -0.1805
 1962TIP3   OH230080   0.237   2.165   9.190  0.8427 -0.3711  0.0480
 1962TIP3    H130081   0.243   2.165   9.285 -0.4252  1.6378  0.2017
 1962TIP3    H230082   0.143   2.167   9.172  1.0683 -0.2300 -1.2357
 1963TIP3   OH230083   4.514   5.779   9.233 -0.0159 -0.0672 -0.0221
 1963TIP3    H130084   4.597   5.824   9.216 -1.3369  1.8449 -1.8728
 1963TIP3    H230085   4.504   5.720   9.159 -0.7748  0.4424 -0.3280
 1964TIP3   OH230086   2.139   4.258  11.753  0.0094 -0.3774 -0.2579
 1964TIP3    H130087   2.157   4.327  11.688  0.7638  1.4548  1.7753
 1964TIP3    H230088   2.062   4.213  11.719  0.6504  0.1960 -2.6343
 1965TIP3   OH230089   0.120   3.293   9.948  0.1217 -0.0037 -0.4282
 1965TIP3    H130090   0.171   3.252  10.018  1.0675  0.6548 -0.7109
 1965TIP3    H230091   0.181   3.299   9.875 -0.8863 -0.7867 -1.3701
 1966TIP3   OH230092   3.213   1.547   9.896 -0.3312  0.4311 -0.2015
 1966TIP3    H130093   3.137   1.588   9.938 -0.0479 -0.4487  1.2323
 1966TIP3    H230094   3.284   1.610   9.907 -0.6397  0.9016 -0.8243
 1967TIP3   OH230095   6.160   1.889   9.220  0.4010  0.3106 -0.3488
 1967TIP3    H130096   6.119   1.807   9.196  0.0544  0.1327  0.8213
 1967TIP3    H230097   6.088   1.952   9.227  0.6035  0.5901 -0.7024
 1968TIP3   OH230098   6.235   1.838  12.142  0.1156 -0.3421 -0.0301
 1968TIP3    H130099   6.268   1.926  12.128 -0.1040 -0.3252 -0.4959
 1968TIP3    H230100   6.243   1.796  12.056 -1.2735 -0.2543 -0.2398
 1969TIP3   OH230101   5.371   5.070  10.607 -0.2641 -0.2560 -0.1282
 1969TIP3    H130102   5.282   5.102  10.626 -0.0690 -0.2942  0.9399
 1969TIP3    H230103   5.414   5.069  10.693  0.7327 -0.3569 -0.6196
 1970TIP3   OH230104   3.520   0.248  10.933 -0.3167 -0.0714  1.0313
 1970TIP3    H130105   3.588   0.194  10.973 -0.7491 -1.0008  0.5418
 1970TIP3    H230106   3.518   0.220  10.841 -1.8181 -0.5568  1.1840
 1971TIP3   OH230107   2.667   3.318   9.681  0.1424  0.6471 -0.7744
 1971TIP3    H130108   2.743   3.277   9.724  0.0629  2.3402  1.1194
 1971TIP3    H230109   2.631   3.249   9.625  0.5678 -1.5663  1.5231
 1972TIP3   OH230110   6.688   1.238   8.966 -0.1405  0.0134 -0.2661
 1972TIP3    H130111   6.767   1.184   8.960 -0.1663 -0.0948  0.3382
 1972TIP3    H230112   6.686   1.286   8.883  0.6651  0.1726 -0.1993
 1973TIP3   OH230113   1.892   1.783  10.247 -0.0900 -0.4853  0.0054
 1973TIP3    H130114   1.850   1.847  10.304 -0.8347 -0.6125 -0.3940
 1973TIP3    H230115   1.839   1.781  10.168  1.0591 -0.1553 -0.8003
 1974TIP3   OH230116   1.293   4.118   9.534 -0.1403  0.0006  0.6102
 1974TIP3    H130117   1.244   4.185   9.582  1.7288  1.8986  0.0170
 1974TIP3    H230118   1.250   4.114   9.449  0.7887  1.8785 -0.0183
 1975TIP3   OH230119   4.881   5.598  10.097 -0.4526  0.0423 -0.2278
 1975TIP3    H130120   4.891   5.625  10.188  0.2110  0.0076 -0.2900
 1975TIP3    H230121   4.960   5.549  10.078  0.0691  1.2436 -1.2571
 1976TIP3   OH230122   0.733   4.696  10.816 -0.3592 -0.2144  0.3824
 1976TIP3    H130123   0.739   4.706  10.911 -2.0522  0.5962  0.4441
 1976TIP3    H230124   0.817   4.727  10.782 -0.0396  0.2473  1.5613
 1977TIP3   OH230125   1.257   3.853  12.226  0.4571  0.0468  0.0712
 1977TIP3    H130126   1.242   3.873  12.318 -2.0015 -1.6491  0.1333
 1977TIP3    H230127   1.309   3.927  12.194 -1.0845  2.1995  2.1331
 1978TIP3   OH230128   4.470   2.724   9.000 -0.2107  0.0366 -0.0725
 1978TIP3    H130129   4.539   2.702   9.063  0.0256 -0.3275 -0.4554
 1978TIP3    H230130   4.476   2.819   8.990 -0.9243  0.2366  1.2287
 1979TIP3   OH230131   0.942   4.638  11.275 -0.1010  0.2962 -0.2270
 1979TIP3    H130132   1.009   4.603  11.334 -0.2257  2.1410  1.0995
 1979TIP3    H230133   0.992   4.692  11.213 -0.0407 -1.0957 -1.4186
 1980TIP3   OH230134   5.177   1.411  10.682  0.0010 -0.6636  0.0021
 1980TIP3    H130135   5.226   1.341  10.638  0.1451 -0.4630 -0.1585
 1980TIP3    H230136   5.102   1.427  10.625 -1.8525 -2.9200  1.6101
 1981TIP3   OH230137   0.239   1.155   9.557 -0.1811  0.1976  0.3868
 1981TIP3    H130138   0.270   1.224   9.616 -0.2128 -0.5835  1.3349
 1981TIP3    H230139   0.145   1.148   9.574 -0.7593  1.7418 -1.6440
 1982TIP3   OH230140   5.209   1.689   9.986 -0.3655 -0.4197 -0.1433
 1982TIP3    H130141   5.246   1.606  10.017  1.5946 -1.6514 -4.8440
 1982TIP3    H230142   5.137   1.663   9.929 -0.8288  1.2474 -0.3758
 1983TIP3   OH230143   2.967   1.132   9.895  0.1520 -0.1081 -0.0952
 1983TIP3    H130144   3.051   1.168   9.926 -0.2177  1.0241 -0.3758
 1983TIP3    H230145   2.993   1.062   9.835  0.8841 -0.7434  0.9172
 1984TIP3   OH230146   5.858   5.935   9.959 -0.1299 -0.0423  0.0772
 1984TIP3    H130147   5.928   5.913  10.020  0.9331  0.0771 -1.0549
 1984TIP3    H230148   5.856   6.030   9.958  1.9407  0.0966 -2.2358
 1985TIP3   OH230149   1.449   1.650  10.669 -0.2532  0.2173  0.6529
 1985TIP3    H130150   1.406   1.572  10.706  0.1854 -0.3882 -0.0741
 1985TIP3    H230151   1.508   1.680  10.738  0.3271 -0.7174  0.5851
 1986TIP3   OH230152   1.257   4.028   9.273 -0.3703  0.1367 -0.6967
 1986TIP3    H130153   1.215   3.947   9.245 -0.1469  0.7074 -2.8930
 1986TIP3    H230154   1.346   4.002   9.298 -1.6387 -0.9835  3.4400
 1987TIP3   OH230155   0.476   2.844  11.869 -0.1737 -0.0405  0.1266
 1987TIP3    H130156   0.474   2.932  11.905 -0.4161 -0.3626  0.9062
 1987TIP3    H230157   0.389   2.832  11.829 -0.7941 -0.5596  1.5758
 1988TIP3   OH230158   0.506   5.434  10.378  0.4529 -0.5082  0.0484
 1988TIP3    H130159   0.438   5.379  10.417 -0.7907  0.9205 -0.0239
 1988TIP3    H230160   0.517   5.506  10.440 -0.1295  0.7456 -1.2370
 1989TIP3   OH230161   4.466   6.034  10.969 -0.2315 -0.2405 -0.6138
 1989TIP3    H130162   4.483   6.080  11.052 -1.2398 -0.1936 -0.4199
 1989TIP3    H230163   4.549   5.991  10.948  0.8173  1.8119 -0.8966
 1990TIP3   OH230164   3.940   3.565  11.613  0.5158  0.7779 -0.3486
 1990TIP3    H130165   3.910   3.573  11.703  1.0868  0.4646 -0.1179
 1990TIP3    H230166   4.032   3.538  11.621  1.0447  2.2825 -1.0100
 1991TIP3   OH230167   5.476   1.273   9.400  0.3191  0.6990 -0.7380
 1991TIP3    H130168   5.392   1.310   9.370  0.3052  1.1004 -0.2140
 1991TIP3    H230169   5.541   1.316   9.345  0.5168  3.1795  1.2135
 1992TIP3   OH230170   0.377   4.118   9.376  0.3285  0.0861 -0.4349
 1992TIP3    H130171   0.322   4.105   9.453 -0.4238 -1.1599 -1.1567
 1992TIP3    H230172   0.467   4.114   9.409  0.0106  0.8709  0.5616
 1993TIP3   OH230173   0.901   5.876  10.708 -0.0774  0.2728 -0.3220
 1993TIP3    H130174   0.842   5.849  10.637  0.8403 -0.5539 -0.7866
 1993TIP3    H230175   0.932   5.794  10.746  0.7504  0.6935 -0.0610
 1994TIP3   OH230176   3.187   0.197  11.053  0.1210  0.1221  0.2796
 1994TIP3    H130177   3.173   0.290  11.034  2.6658  0.5959  0.2937
 1994TIP3    H230178   3.232   0.163  10.975 -0.0657 -0.9040  0.6012
 1995TIP3   OH230179   5.571   3.177   9.729 -0.0246  0.7952  0.0320
 1995TIP3    H130180   5.579   3.138   9.816  1.4165  0.3310 -0.2696
 1995TIP3    H230181   5.607   3.110   9.670  0.3400  1.6602 -0.7476
 1996TIP3   OH230182   4.627   4.107  12.164 -0.5646 -0.0554  0.1853
 1996TIP3    H130183   4.679   4.173  12.119 -2.0623 -0.0193 -1.6377
 1996TIP3    H230184   4.675   4.089  12.245  0.6934  2.0874 -0.0088
 1997TIP3   OH230185   1.432   0.258  12.530 -0.2492  0.2490  0.4266
 1997TIP3    H130186   1.341   0.245  12.504 -0.4596 -0.2788  1.3756
 1997TIP3    H230187   1.435   0.230  12.621  0.6436  1.2519  0.7166
 1998TIP3   OH230188   1.975   1.892  10.794  0.8663 -0.2866 -0.3551
 1998TIP3    H130189   1.894   1.933  10.826  0.5997 -0.4584 -0.7957
 1998TIP3    H230190   1.958   1.798  10.803  1.0482 -0.3207 -0.3772
 1999TIP3   OH230191   4.592   0.122   9.546 -0.2182  0.0164 -0.0955
 1999TIP3    H130192   4.594   0.214   9.520 -0.9850  0.3055  0.8303
 1999TIP3    H230193   4.561   0.123   9.637  2.3347 -0.9466  0.8946
 2000TIP3   OH230194   3.767   4.429  12.160  0.0442  0.3896 -0.4905
 2000TIP3    H130195   3.853   4.413  12.121 -0.5078 -0.6259 -1.3453
 2000TIP3    H230196   3.706   4.383  12.102 -1.1438  1.6206 -0.2603
 2001TIP3   OH230197   1.750   2.963  12.333  0.2901 -0.2810 -0.3063
 2001TIP3    H130198   1.828   2.997  12.378  0.4679  0.1060 -0.9024
 2001TIP3    H230199   1.701   3.042  12.308  0.5128 -0.4675 -1.3636
 2002TIP3   OH230200   6.412   3.725  11.560  0.3700  0.0369  0.0895
 2002TIP3    H130201   6.493   3.753  11.602  0.5007  0.5341 -0.4783
 2002TIP3    H230202   6.434   3.643  11.517  0.5122  0.0626  0.1145
 2003TIP3   OH230203   3.122   5.198  10.292 -0.3486  0.0203 -0.2684
 2003TIP3    H130204   3.204   5.214  10.245 -0.3441  2.2641  0.3502
 2003TIP3    H230205   3.066   5.153  10.230  0.8630 -0.2349 -1.2001
 2004TIP3   OH230206   6.293   0.142   8.492 -0.3577 -0.3875  0.3886
 2004TIP3    H130207   6.209   0.118   8.532 -0.3495 -2.2591 -0.6249
 2004TIP3    H230208   6.339   0.191   8.561 -2.0520  0.2211  1.1353
 2005TIP3   OH230209   1.730   0.900  12.250  0.4341 -0.4378 -0.0875
 2005TIP3    H130210   1.699   0.925  12.163  0.4968 -2.1010 -0.6122
 2005TIP3    H230211   1.680   0.822  12.273 -0.7954  0.8866  2.1389
 2006TIP3   OH230212   0.828   2.107  10.189  0.3828 -0.0677 -0.4111
 2006TIP3    H130213   0.797   2.106  10.099  0.8042 -0.7351 -0.5596
 2006TIP3    H230214   0.908   2.159  10.186 -1.0718  2.3714  0.1233
 2007TIP3   OH230215   6.682   0.467   9.471  0.4202 -0.5321  0.6687
 2007TIP3    H130216   6.730   0.419   9.403  0.1674  0.1870 -0.0248
 2007TIP3    H230217   6.656   0.549   9.429  1.6820  0.6730  2.1116
 2008TIP3   OH230218   2.089   5.655  11.278  0.0619  0.2020  0.1046
 2008TIP3    H130219   2.128   5.591  11.338  1.0244 -0.3837 -1.1053
 2008TIP3    H230220   2.053   5.602  11.207  1.0142  1.0037 -1.0006
 2009TIP3   OH230221   0.140   0.912  11.483  0.6113 -0.7247 -0.1323
 2009TIP3    H130222   0.048   0.887  11.494  0.5381 -0.0739  0.8240
 2009TIP3    H230223   0.188   0.849  11.537  0.5844 -0.0405  0.7042
 2010TIP3   OH230224   2.514   0.954  12.305 -0.2657  0.3024 -0.1500
 2010TIP3    H130225   2.458   1.000  12.367  0.1833  1.5363 -0.6238
 2010TIP3    H230226   2.602   0.984  12.326  0.0189 -0.2195 -0.5805
 2011TIP3   OH230227   6.643   5.919  11.596 -0.8322  0.3151 -0.2610
 2011TIP3    H130228   6.727   5.951  11.629  0.0796 -1.8169 -0.3813
 2011TIP3    H230229   6.595   5.892  11.674 -0.5986 -0.3244 -0.3386
 2012TIP3   OH230230   4.493   5.226  10.245 -0.0018 -0.0754  0.5417
 2012TIP3    H130231   4.430   5.298  10.251 -0.5451 -0.2568 -1.9793
 2012TIP3    H230232   4.579   5.269  10.244 -0.3540  0.7472 -2.2133
 2013TIP3   OH230233   5.543   6.194   8.494  0.0310 -0.3931  0.1276
 2013TIP3    H130234   5.504   6.268   8.541  0.0950  0.9269 -1.7612
 2013TIP3    H230235   5.472   6.159   8.441  0.4227 -0.5818 -0.2738
 2014TIP3   OH230236   3.670   0.615  10.160  0.7236 -0.1888  0.0627
 2014TIP3    H130237   3.705   0.539  10.206  0.2514 -0.5717 -0.1986
 2014TIP3    H230238   3.625   0.578  10.084  0.4035  0.3436 -0.0114
 2015TIP3   OH230239   5.640   0.624  10.565  0.1837 -0.5174 -0.8701
 2015TIP3    H130240   5.679   0.710  10.550 -1.1839  0.2446 -0.2528
 2015TIP3    H230241   5.604   0.599  10.480  0.3103 -0.3368 -0.9779
 2016TIP3   OH230242   1.385   0.854   9.064  0.3515  0.3022 -0.0953
 2016TIP3    H130243   1.381   0.901   8.981 -3.4094  2.3520  1.0560
 2016TIP3    H230244   1.366   0.763   9.041 -1.5421  0.9938 -1.4554
 2017TIP3   OH230245   6.690   5.283  10.521  0.1222  0.2507 -0.4278
 2017TIP3    H130246   6.631   5.212  10.496  1.4563 -1.2553  0.4471
 2017TIP3    H230247   6.762   5.278  10.458  0.6098  0.2971  0.1110
 2018TIP3   OH230248   2.895   2.648  11.069 -0.7484 -0.3543  0.0496
 2018TIP3    H130249   2.890   2.663  11.163 -1.9830 -0.0220 -0.0537
 2018TIP3    H230250   2.826   2.584  11.051 -2.5271  1.7655 -1.0343
 2019TIP3   OH230251   5.280   0.201  10.803 -0.3864  0.0379  0.2881
 2019TIP3    H130252   5.193   0.219  10.837 -0.4835 -0.2781  0.2137
 2019TIP3    H230253   5.338   0.257  10.854 -0.4845 -0.6656  1.2119
 2020TIP3   OH230254   6.009   1.744  12.270 -0.4745 -0.2267 -0.2753
 2020TIP3    H130255   6.027   1.689  12.347  0.4051  2.0529  1.2523
 2020TIP3    H230256   6.095   1.758  12.231 -0.4748  1.1336  0.1636
 2021TIP3   OH230257   6.352   0.390  10.215 -0.7366 -0.0158 -0.2916
 2021TIP3    H130258   6.422   0.394  10.151 -0.5550  1.9480 -0.0554
 2021TIP3    H230259   6.388   0.339  10.288  0.4997  0.9918 -0.1572
 2022TIP3   OH230260   0.670   1.657   9.362 -0.6186  0.1448 -0.5045
 2022TIP3    H130261   0.674   1.638   9.269 -0.8726  1.7504 -0.8581
 2022TIP3    H230262   0.759   1.686   9.385 -0.2626 -1.2237  0.0160
 2023TIP3   OH230263   4.988   3.853  10.916  0.1313  0.4098 -0.3360
 2023TIP3    H130264   5.047   3.801  10.970 -0.0883  1.7507  1.2750
 2023TIP3    H230265   5.006   3.824  10.827  1.3812 -1.0175  0.3264
 2024TIP3   OH230266   3.956   3.238  10.749 -0.0317 -0.3588 -0.5903
 2024TIP3    H130267   3.899   3.304  10.710  1.0148  0.3210 -1.0186
 2024TIP3    H230268   3.975   3.271  10.836 -0.7279 -0.8702 -0.2312
 2025TIP3   OH230269   2.130   1.586  10.676  0.0069  0.1307  0.6638
 2025TIP3    H130270   2.146   1.620  10.588 -1.0526  0.9800  0.7722
 2025TIP3    H230271   2.138   1.663  10.733 -1.4498  0.0362  1.0346
 2026TIP3   OH230272   0.415   0.701  11.110  0.3442 -0.2522  0.0320
 2026TIP3    H130273   0.409   0.711  11.015  0.3472 -1.0428 -0.0581
 2026TIP3    H230274   0.441   0.788  11.142  4.3597 -0.8588 -1.0622
 2027TIP3   OH230275   1.301   3.348  11.746  0.3144  0.0174  0.0574
 2027TIP3    H130276   1.361   3.384  11.680  1.0227 -1.0726  0.0921
 2027TIP3    H230277   1.231   3.414  11.752  1.5007  1.3366  0.0471
 2028TIP3   OH230278   3.009   0.928  11.340 -0.0098 -0.1496  0.2689
 2028TIP3    H130279   2.977   0.996  11.281 -0.6202 -0.2257  0.5072
 2028TIP3    H230280   3.096   0.959  11.367 -0.1201  0.3480  0.0727
 2029TIP3   OH230281   1.438   4.658  12.232 -0.2062 -1.0003  0.0500
 2029TIP3    H130282   1.384   4.613  12.296  0.2859 -1.1832  0.3355
 2029TIP3    H230283   1.528   4.646  12.262  0.1758 -2.4337 -1.4965
 2030TIP3   OH230284   2.686   6.570   9.627  0.0240 -0.4335 -0.4567
 2030TIP3    H130285   2.778   6.582   9.653 -0.8918 -1.1844  3.8468
 2030TIP3    H230286   2.668   6.478   9.644 -1.8426 -0.0124  0.0531
 2031TIP3   OH230287   1.964   2.418  10.323 -0.3537 -0.5012 -0.1391
 2031TIP3    H130288   1.885   2.366  10.336  0.0849 -1.1469 -0.0295
 2031TIP3    H230289   2.022   2.361  10.273 -0.1835  0.1896 -0.7510
 2032TIP3   OH230290   2.817   4.974  11.395  0.3474  0.4274  0.1403
 2032TIP3    H130291   2.820   4.881  11.418  0.3857 -0.5026 -3.2051
 2032TIP3    H230292   2.889   5.013  11.445  0.3508 -1.3012  1.5886
 2033TIP3   OH230293   5.965   1.755  11.101  0.0727 -0.1730  0.7277
 2033TIP3    H130294   5.971   1.742  11.196  1.9827 -0.6539  0.5860
 2033TIP3    H230295   5.876   1.789  11.087 -0.5287 -0.8289  2.5872
 2034TIP3   OH230296   1.467   4.664  10.869 -0.0284 -0.4716 -0.3765
 2034TIP3    H130297   1.458   4.630  10.958  0.8019 -1.2479 -0.5748
 2034TIP3    H230298   1.552   4.708  10.869 -0.6290  0.7260 -0.4221
 2035TIP3   OH230299   1.011   3.004   9.835  0.7055  0.4479 -0.0340
 2035TIP3    H130300   1.090   2.980   9.884  0.5223  2.2548  1.2687
 2035TIP3    H230301   1.003   3.099   9.849 -1.3619  0.4037 -0.6322
 2036TIP3   OH230302   6.620   6.290  11.158 -0.0540  0.1877 -0.2447
 2036TIP3    H130303   6.550   6.284  11.223  0.1311 -1.1859 -0.1404
 2036TIP3    H230304   6.700   6.270  11.206  0.2622  0.5901 -0.6005
 2037TIP3   OH230305   4.305   1.378   9.983 -0.1679  0.4148 -0.2729
 2037TIP3    H130306   4.312   1.282   9.989  1.6879  0.3884 -2.0219
 2037TIP3    H230307   4.356   1.410  10.057  0.6302  0.0524 -0.6616
 2038TIP3   OH230308   2.877   5.964  10.778  0.2699 -0.0050  0.4952
 2038TIP3    H130309   2.965   5.927  10.774  0.3331  0.1523  0.4288
 2038TIP3    H230310   2.889   6.058  10.765 -0.1607 -0.2655 -2.2796
 2039TIP3   OH230311   6.126   3.070   9.375 -0.4906  0.0170  0.0488
 2039TIP3    H130312   6.161   3.015   9.445 -0.5134 -0.4289 -0.2835
 2039TIP3    H230313   6.204   3.103   9.330 -0.3292  2.7151  2.0394
 2040TIP3   OH230314   3.534   3.421  11.234  0.1178 -0.6716 -0.6281
 2040TIP3    H130315   3.533   3.365  11.157 -1.0989 -0.0230 -1.1088
 2040TIP3    H230316   3.597   3.490  11.212 -1.6403  0.6264 -1.9187
 2041TIP3   OH230317   5.412   4.151  10.260  0.4887  0.1931  0.0081
 2041TIP3    H130318   5.398   4.142  10.354  0.6059  0.2368  0.0294
 2041TIP3    H230319   5.377   4.069  10.223 -1.9837  1.2474 -0.1724
 2042TIP3   OH230320   1.365   2.396   9.573 -0.1455  0.8252 -0.1876
 2042TIP3    H130321   1.435   2.330   9.579  0.8549  1.8547 -0.1901
 2042TIP3    H230322   1.376   2.435   9.486  0.6823  2.4715  0.6052
 2043TIP3   OH230323   3.008   0.536  12.158 -0.3322  0.3030 -0.4427
 2043TIP3    H130324   2.964   0.603  12.210 -1.6301  1.2927 -2.6834
 2043TIP3    H230325   2.944   0.466  12.149  0.6666 -0.8824  1.0342
 2044TIP3   OH230326   2.169   1.708  11.840 -0.1620 -0.9080 -0.1343
 2044TIP3    H130327   2.104   1.673  11.779 -0.8818 -0.5105  0.3821
 2044TIP3    H230328   2.121   1.718  11.923  0.2422  0.4550 -0.0363
 2045TIP3   OH230329   5.132   3.738   9.919 -0.0868  0.3874 -0.1092
 2045TIP3    H130330   5.116   3.658   9.969 -0.4994  0.0138 -0.8327
 2045TIP3    H230331   5.222   3.730   9.888  0.2721  0.7531  0.7995
 2046TIP3   OH230332   5.804   5.176  10.937  0.0050  0.0208  0.3170
 2046TIP3    H130333   5.802   5.258  10.889 -1.0121  0.2336  0.6976
 2046TIP3    H230334   5.825   5.110  10.871 -0.0064  0.4791 -0.1538
 2047TIP3   OH230335   5.511   0.284  10.103  0.4820 -0.1718 -0.8954
 2047TIP3    H130336   5.563   0.273  10.024 -0.4075 -1.7964 -1.2917
 2047TIP3    H230337   5.568   0.253  10.174  1.6271  2.1458 -0.7151
 2048TIP3   OH230338   3.839   1.921   9.063 -0.1211 -0.1349 -0.6780
 2048TIP3    H130339   3.820   1.836   9.101 -1.0130 -1.0758 -3.0476
 2048TIP3    H230340   3.836   1.982   9.138  1.6805 -2.2685  1.2584
 2049TIP3   OH230341   0.286   0.434   9.678 -0.3892  0.1608  0.1160
 2049TIP3    H130342   0.216   0.406   9.619  0.1386 -0.7834 -0.0819
 2049TIP3    H230343   0.275   0.529   9.685 -1.9263 -0.0030  0.3987
 2050TIP3   OH230344   1.177   0.460   9.890 -0.3885  0.1338  0.4302
 2050TIP3    H130345   1.104   0.434   9.946 -0.4646 -2.9127 -0.8917
 2050TIP3    H230346   1.255   0.441   9.943 -0.5016  0.6820  0.7980
 2051TIP3   OH230347   2.222   0.003  12.449  0.2121 -0.0392  0.6322
 2051TIP3    H130348   2.238   0.080  12.395  0.0981 -0.5750 -0.1777
 2051TIP3    H230349   2.309  -0.024  12.479  0.2784  0.2451  0.6980
 2052TIP3   OH230350   2.124   4.221  11.012  0.1477 -0.2416  0.2733
 2052TIP3    H130351   2.061   4.153  10.989  0.4857 -0.6031  0.3983
 2052TIP3    H230352   2.084   4.302  10.981 -0.5570 -0.4141  0.7027
 2053TIP3   OH230353   4.969   6.689   9.756  0.0562 -0.0664  0.0036
 2053TIP3    H130354   4.929   6.740   9.826 -1.5168  0.5753 -1.2974
 2053TIP3    H230355   4.898   6.634   9.723  0.7616 -0.3640 -1.0707
 2054TIP3   OH230356   0.109   0.381   9.255  0.7786  0.4378  0.2494
 2054TIP3    H130357   0.081   0.294   9.228 -0.7529  0.6755  0.9515
 2054TIP3    H230358   0.077   0.439   9.186  1.6134  0.4824 -0.1124
 2055TIP3   OH230359   1.750   3.092   8.691  0.1715 -0.4689 -0.4628
 2055TIP3    H130360   1.765   3.008   8.735 -1.0825 -1.2129 -1.3929
 2055TIP3    H230361   1.656   3.096   8.679  0.0644  1.7174  0.7572
 2056TIP3   OH230362   5.261   4.221   9.582 -0.2758  0.6031  0.3484
 2056TIP3    H130363   5.352   4.222   9.610 -0.1962 -0.4226  0.1500
 2056TIP3    H230364   5.239   4.313   9.570  0.9251  0.8258 -0.2393
 2057TIP3   OH230365   1.523   2.847  10.804  0.7658 -0.6739 -0.0286
 2057TIP3    H130366   1.464   2.860  10.730 -0.5919 -0.7780  0.9960
 2057TIP3    H230367   1.475   2.789  10.863  1.0223  0.7967  1.7360
 2058TIP3   OH230368   2.619   6.473  11.098  0.6692  0.4876  0.2332
 2058TIP3    H130369   2.635   6.481  11.192  0.4143 -0.6953  0.3975
 2058TIP3    H230370   2.654   6.554  11.061  1.6140  0.5629  1.2364
 2059TIP3   OH230371   6.165   3.784   8.276 -0.3319  0.0446  0.7497
 2059TIP3    H130372   6.095   3.729   8.241  1.4347 -0.8396 -1.6932
 2059TIP3    H230373   6.243   3.727   8.276  1.1922  1.9871 -0.2148
 2060TIP3   OH230374   6.693   3.261   8.288  0.4901 -0.1738 -0.6565
 2060TIP3    H130375   6.683   3.266   8.193  1.1340  1.9103 -0.6721
 2060TIP3    H230376   6.773   3.209   8.301  0.2931 -0.6297 -1.2449
 2061TIP3   OH230377   5.826   2.362  10.555 -0.1168  0.1649  0.3804
 2061TIP3    H130378   5.851   2.297  10.620 -0.0965  1.0349  1.2594
 2061TIP3    H230379   5.730   2.357  10.550 -0.0241 -0.9564 -0.6575
 2062TIP3   OH230380   6.524   3.200  12.139  0.3423  0.1943 -0.1879
 2062TIP3    H130381   6.504   3.285  12.101  0.1577 -0.0411 -0.6282
 2062TIP3    H230382   6.608   3.212  12.184  0.8640  0.3318 -1.1715
 2063TIP3   OH230383   6.177   4.861   9.691  0.1203 -0.6873  0.1976
 2063TIP3    H130384   6.199   4.827   9.777 -0.8656 -0.3870  0.5790
 2063TIP3    H230385   6.090   4.826   9.672 -0.3204  0.4579 -0.0009
 2064TIP3   OH230386   2.840   2.519   8.662 -0.7330 -0.9846 -0.8410
 2064TIP3    H130387   2.787   2.590   8.698 -0.4986 -2.0435  1.8184
 2064TIP3    H230388   2.930   2.542   8.685 -0.5668 -1.6465 -0.7887
 2065TIP3   OH230389   0.584   5.819   9.458  0.0562 -0.0969 -0.4732
 2065TIP3    H130390   0.571   5.733   9.497 -1.0242  0.2651  0.0023
 2065TIP3    H230391   0.592   5.879   9.532 -0.0972  0.3382 -0.7980
 2066TIP3   OH230392   4.638   1.250   9.896  0.5254  0.4927 -0.2474
 2066TIP3    H130393   4.648   1.161   9.931  1.3409  1.2335  1.5571
 2066TIP3    H230394   4.593   1.238   9.813 -0.4497 -1.5153  0.4910
 2067TIP3   OH230395   2.353   4.854  10.618  0.4001 -0.1401  0.3879
 2067TIP3    H130396   2.431   4.883  10.569 -0.0583 -0.5782 -0.6372
 2067TIP3    H230397   2.293   4.929  10.614  0.1510 -0.3589 -0.2169
 2068TIP3   OH230398   3.094   5.675  10.026 -0.3341 -0.4304 -0.1099
 2068TIP3    H130399   3.142   5.756  10.038  1.1211 -1.4156  1.0641
 2068TIP3    H230400   3.046   5.663  10.108  1.1480 -1.7789  0.6191
 2069TIP3   OH230401   1.766   3.250  11.069 -0.3707 -0.1587 -0.6212
 2069TIP3    H130402   1.775   3.293  11.154 -1.3374  0.3405 -0.7654
 2069TIP3    H230403   1.721   3.314  11.014 -0.0082 -0.5858 -1.4321
 2070TIP3   OH230404   3.657   3.634  11.111 -0.5236 -0.4310  0.0602
 2070TIP3    H130405   3.683   3.690  11.184 -1.2886  0.7170 -0.5125
 2070TIP3    H230406   3.639   3.695  11.039 -2.5818 -1.2921 -0.2319
 2071TIP3   OH230407   5.763   5.948  10.891 -0.1045 -0.3075  0.0739
 2071TIP3    H130408   5.783   5.915  10.979 -0.3165 -1.0999 -0.1712
 2071TIP3    H230409   5.745   5.870  10.839  2.5227 -0.0740 -1.3614
 2072TIP3   OH230410   6.141   3.316  10.244  0.2345 -0.1912 -0.1364
 2072TIP3    H130411   6.150   3.277  10.332 -1.0078 -0.6513 -0.2020
 2072TIP3    H230412   6.130   3.241  10.186  0.0355  0.1643 -0.5604
 2073TIP3   OH230413   5.822   2.881  10.119  0.4415 -0.7478 -0.6600
 2073TIP3    H130414   5.767   2.942  10.169 -0.7783 -2.4036  0.1316
 2073TIP3    H230415   5.901   2.870  10.172 -0.8089 -2.4303  1.0065
 2074TIP3   OH230416   5.130   4.838  10.718 -0.5017  0.0258 -0.2342
 2074TIP3    H130417   5.167   4.810  10.635  0.6693  0.4414  0.1388
 2074TIP3    H230418   5.205   4.865  10.771 -1.1687 -0.6836  1.1334
 2075TIP3   OH230419   0.118   0.113   9.855  0.4209  0.2267  0.1161
 2075TIP3    H130420   0.052   0.043   9.861  0.2294  0.4413  0.5851
 2075TIP3    H230421   0.077   0.178   9.798  1.2283 -0.7130 -1.6137
 2076TIP3   OH230422   4.545   4.610  10.298  0.4024  0.1025 -0.1228
 2076TIP3    H130423   4.486   4.666  10.350  1.1671 -0.7435  1.7596
 2076TIP3    H230424   4.629   4.615  10.344  1.1791 -0.5155 -1.4366
 2077TIP3   OH230425   0.279   3.137  10.104  0.1026  0.0387  0.2963
 2077TIP3    H130426   0.267   3.053  10.147 -0.2427  0.0447  0.2197
 2077TIP3    H230427   0.341   3.184  10.159  1.4854 -0.8408 -0.4779
 2078TIP3   OH230428   4.056   3.271   9.220 -0.3323 -0.5071  0.8406
 2078TIP3    H130429   4.062   3.269   9.125 -0.1495 -1.6473  0.8581
 2078TIP3    H230430   3.977   3.221   9.241  0.4714 -1.6190  1.3256
 2079TIP3   OH230431   3.867   1.619  10.258  0.0114 -0.9010 -0.2335
 2079TIP3    H130432   3.878   1.613  10.163 -2.3213 -0.0357 -0.6148
 2079TIP3    H230433   3.846   1.711  10.274  0.1666 -1.0767  1.1077
 2080TIP3   OH230434   0.350   1.034  11.756  0.1901 -0.5314 -0.6253
 2080TIP3    H130435   0.312   1.119  11.737  0.9503 -0.0840 -0.1658
 2080TIP3    H230436   0.379   1.039  11.847  0.4726 -1.1896 -0.6681
 2081TIP3   OH230437   6.041   0.197  10.747 -0.1935  0.0589 -0.2210
 2081TIP3    H130438   6.133   0.187  10.770 -0.5324 -0.0674  1.2186
 2081TIP3    H230439   6.041   0.236  10.660  1.2121 -0.6986 -0.5823
 2082TIP3   OH230440   4.251   0.484  11.201  0.3760 -0.4264 -0.2526
 2082TIP3    H130441   4.226   0.527  11.119 -0.2555 -1.2972 -0.5368
 2082TIP3    H230442   4.173   0.491  11.256  1.3706  1.8013  1.0316
 2083TIP3   OH230443   2.478   2.178   9.739  0.4539  0.1982 -0.3307
 2083TIP3    H130444   2.384   2.173   9.724  0.4027  1.3317 -0.5058
 2083TIP3    H230445   2.507   2.087   9.744 -0.6284 -0.1599 -0.3969
 2084TIP3   OH230446   2.618   4.026  11.866 -0.3331 -0.6593 -0.1345
 2084TIP3    H130447   2.634   3.932  11.866 -1.4417 -0.8600  0.1563
 2084TIP3    H230448   2.550   4.039  11.799 -1.0903 -0.2446  0.6930
 2085TIP3   OH230449   0.375   6.262  10.062  0.1279  0.5303  0.8596
 2085TIP3    H130450   0.451   6.294  10.013 -0.8259  0.4318 -0.7688
 2085TIP3    H230451   0.339   6.341  10.104 -0.0198  0.9517 -0.0276
 2086TIP3   OH230452   0.829   0.939  10.382 -0.3727 -0.0358 -0.5099
 2086TIP3    H130453   0.749   0.982  10.349 -1.7761 -0.3598  2.2090
 2086TIP3    H230454   0.807   0.846  10.383 -0.9796  0.0424  2.4814
 2087TIP3   OH230455   2.327   0.869  11.314 -0.2264 -0.4279 -0.0428
 2087TIP3    H130456   2.383   0.904  11.383  2.1640 -1.1219 -1.5254
 2087TIP3    H230457   2.250   0.926  11.316  1.4468  2.0099  0.6686
 2088TIP3   OH230458   4.793   2.353  11.208 -0.2054 -0.8149  0.8204
 2088TIP3    H130459   4.709   2.317  11.181 -0.5934  2.0411 -2.5331
 2088TIP3    H230460   4.858   2.298  11.163 -0.3067 -1.8203  1.8497
 2089TIP3   OH230461   1.726   5.812  10.733 -0.0121  0.1017  0.1186
 2089TIP3    H130462   1.759   5.844  10.817  1.3250 -1.3983  0.2098
 2089TIP3    H230463   1.796   5.832  10.671 -0.4403  0.0336 -0.3951
 2090TIP3   OH230464   0.982   1.637  11.710 -0.4161  0.4054 -0.0478
 2090TIP3    H130465   0.988   1.617  11.616 -1.6982 -1.1826  0.1693
 2090TIP3    H230466   0.990   1.732  11.714  0.7656  0.4125 -1.6585
 2091TIP3   OH230467   4.217   4.246  11.733  0.0562  0.0785 -0.2381
 2091TIP3    H130468   4.128   4.259  11.765 -0.1171  2.5861 -1.4625
 2091TIP3    H230469   4.206   4.210  11.645  0.3908 -2.2655  0.6215
 2092TIP3   OH230470   4.276   2.990   9.273 -0.1760  0.0912 -0.0899
 2092TIP3    H130471   4.245   3.038   9.351 -0.4788  0.9345 -0.7104
 2092TIP3    H230472   4.307   3.059   9.214 -0.3118 -0.5111 -0.8770
 2093TIP3   OH230473   3.058   6.105  11.524 -0.2752 -0.1687  0.0829
 2093TIP3    H130474   3.116   6.170  11.483 -0.5203 -1.1984 -2.0373
 2093TIP3    H230475   3.117   6.047  11.571  0.1801  0.1508 -0.0808
 2094TIP3   OH230476   5.774   6.322  10.288  0.1327  0.1981 -0.3496
 2094TIP3    H130477   5.861   6.342  10.323 -0.7274  0.7252  1.6155
 2094TIP3    H230478   5.727   6.405  10.289 -0.4229 -0.0782 -1.4043
 2095TIP3   OH230479   2.800   0.951  10.558 -0.2761 -0.2183 -0.4211
 2095TIP3    H130480   2.733   0.918  10.498 -1.4273  1.7782 -0.3207
 2095TIP3    H230481   2.757   1.022  10.605  0.9132 -1.0672  2.1125
 2096TIP3   OH230482   3.915   4.226   9.929 -0.0685 -0.1769  0.6735
 2096TIP3    H130483   3.877   4.171   9.997  0.3810 -1.8031 -0.3369
 2096TIP3    H230484   3.961   4.295   9.977 -1.0690 -0.3588  1.9649
 2097TIP3   OH230485   4.053   3.268   9.836 -0.8030  0.1734  0.0820
 2097TIP3    H130486   4.099   3.201   9.888  2.1262  1.5158 -0.5860
 2097TIP3    H230487   4.080   3.251   9.746 -1.7881  0.9562 -0.3789
 2098TIP3   OH230488   0.327   2.641  11.647 -0.0537 -0.0530 -0.0485
 2098TIP3    H130489   0.294   2.721  11.604  0.2708 -1.5030 -3.3009
 2098TIP3    H230490   0.250   2.586  11.657  0.3012 -0.8956 -1.6566
 2099TIP3   OH230491   6.309   0.728  11.309 -1.1042  0.1318  0.3133
 2099TIP3    H130492   6.358   0.669  11.253 -2.2778 -0.3685 -0.2178
 2099TIP3    H230493   6.302   0.683  11.393  2.6476  1.8323  1.7585
 2100TIP3   OH230494   2.183   1.664  10.953  0.2881  0.6373  0.7243
 2100TIP3    H130495   2.276   1.648  10.966  0.3396  0.9308  0.7185
 2100TIP3    H230496   2.171   1.757  10.975 -0.2061  0.3313  1.8603
 2101TIP3   OH230497   4.489   0.416  11.331 -0.8522 -0.1760 -0.4015
 2101TIP3    H130498   4.547   0.438  11.258 -1.4942 -2.8886 -1.8882
 2101TIP3    H230499   4.406   0.458  11.309 -0.6088  0.2831 -0.4464
 2102TIP3   OH230500   2.004   1.584  11.193 -0.5675  0.0517 -0.5309
 2102TIP3    H130501   1.979   1.553  11.281  0.6300  0.3261 -0.0726
 2102TIP3    H230502   1.921   1.602  11.150 -1.2239 -1.2231  0.1285
 2103TIP3   OH230503   5.137   6.619  11.119 -0.0962  0.0936 -0.0193
 2103TIP3    H130504   5.149   6.638  11.212 -0.4845 -0.6428  0.1893
 2103TIP3    H230505   5.212   6.660  11.077  0.5977 -0.3574  0.7348
 2104TIP3   OH230506   0.643   4.028  10.604 -0.3280 -0.0653 -0.8267
 2104TIP3    H130507   0.690   3.944  10.608  0.1250  0.0491 -2.9217
 2104TIP3    H230508   0.698   4.084  10.549 -0.1540  1.9783  1.2571
 2105TIP3   OH230509   1.633   0.500   9.795 -0.0301  0.4651 -0.0090
 2105TIP3    H130510   1.635   0.535   9.706 -2.2841  0.1698 -0.2308
 2105TIP3    H230511   1.670   0.412   9.787 -0.8007  0.1972 -0.7959
 2106TIP3   OH230512   0.029   2.694   9.432 -0.1573  0.1366 -0.0198
 2106TIP3    H130513  -0.047   2.665   9.483 -0.6340  0.7183 -0.3972
 2106TIP3    H230514   0.003   2.778   9.394  0.1757 -0.2896 -1.2476
 2107TIP3   OH230515   6.470   3.987  12.009 -0.2702  0.3297  0.4204
 2107TIP3    H130516   6.428   3.969  11.925 -2.2121  0.9350  1.2176
 2107TIP3    H230517   6.410   4.045  12.055  1.7990  1.8916  1.3490
 2108TIP3   OH230518   0.825   4.878   8.701 -0.6542  0.4561  0.0139
 2108TIP3    H130519   0.915   4.846   8.710 -1.7075 -2.6459  0.7677
 2108TIP3    H230520   0.807   4.870   8.607 -0.7487 -0.9212  0.1240
 2109TIP3   OH230521   3.025   0.323   9.470 -0.0303  0.2070  0.4792
 2109TIP3    H130522   3.009   0.347   9.562  2.0426 -1.2737  1.2927
 2109TIP3    H230523   3.115   0.293   9.468 -0.3877 -0.9573 -1.8423
 2110TIP3   OH230524   3.380   2.584  11.159 -0.0413 -0.4357  0.1896
 2110TIP3    H130525   3.368   2.649  11.229 -0.3154  0.8194 -0.9692
 2110TIP3    H230526   3.471   2.595  11.133 -0.5899  0.9109 -1.3145
 2111TIP3   OH230527   3.655   1.464  10.027 -0.2411 -0.0463 -0.0110
 2111TIP3    H130528   3.606   1.419  10.096 -0.3389  1.0999  0.6821
 2111TIP3    H230529   3.597   1.460   9.951 -0.1388 -1.3012 -0.0582
 2112TIP3   OH230530   4.083   1.164  10.742 -0.0593 -0.4611  0.3918
 2112TIP3    H130531   4.060   1.243  10.692 -1.0185 -1.1975 -0.3610
 2112TIP3    H230532   4.129   1.198  10.820 -1.4895  0.9200  0.6871
 2113TIP3   OH230533   3.789   5.888  10.779 -0.0301 -0.3339  0.1146
 2113TIP3    H130534   3.785   5.960  10.842 -0.5397  0.3443 -0.6674
 2113TIP3    H230535   3.806   5.930  10.695 -1.0680 -1.0347 -0.4791
 2114TIP3   OH230536   3.390   0.811  11.554 -0.1024  0.3357 -0.2529
 2114TIP3    H130537   3.377   0.839  11.464  2.0371  0.4686 -0.5514
 2114TIP3    H230538   3.403   0.892  11.604  0.4665  0.1725 -0.1323
 2115TIP3   OH230539   6.614   6.677   8.980 -0.6298  0.3748 -0.1985
 2115TIP3    H130540   6.568   6.672   8.896 -1.3530 -0.1788  0.2179
 2115TIP3    H230541   6.682   6.611   8.975 -1.6212 -0.7172  0.1951
 2116TIP3   OH230542   4.509   0.249   8.663 -0.3999  0.1526 -0.2595
 2116TIP3    H130543   4.433   0.297   8.630 -1.3076 -1.6520 -0.9584
 2116TIP3    H230544   4.479   0.210   8.745 -0.5761 -1.3476 -1.0101
 2117TIP3   OH230545   1.609   0.229  11.942  0.1194 -0.2726  0.1775
 2117TIP3    H130546   1.618   0.255  11.850  0.4029  1.2474  0.5934
 2117TIP3    H230547   1.585   0.311  11.987 -3.6064 -1.6078  0.9728
 2118TIP3   OH230548   2.247   3.945  11.860  0.1510 -0.5308  0.0511
 2118TIP3    H130549   2.222   4.013  11.923 -0.1562 -0.7492  0.1702
 2118TIP3    H230550   2.262   3.992  11.778  0.1060 -0.3001  0.1750
 2119TIP3   OH230551   1.633   4.412   9.702  0.5402 -0.2966 -0.3510
 2119TIP3    H130552   1.647   4.506   9.690 -0.4685  0.0964  1.2253
 2119TIP3    H230553   1.714   4.381   9.743 -0.4917  0.7054  2.7404
 2120TIP3   OH230554   5.651   2.457   9.754  0.4995 -0.2547 -0.0483
 2120TIP3    H130555   5.590   2.447   9.827  0.6743  0.0333  0.1441
 2120TIP3    H230556   5.729   2.497   9.794  2.2100 -3.7267  0.4450
 2121TIP3   OH230557   6.207   3.040  10.119  0.8232  0.6360  0.5037
 2121TIP3    H130558   6.294   3.047  10.160  0.4634  0.9557  1.2320
 2121TIP3    H230559   6.151   3.007  10.188  0.5209 -0.3729 -0.2069
 2122TIP3   OH230560   4.272   3.127  10.511  0.1981  0.2859 -0.0959
 2122TIP3    H130561   4.179   3.107  10.524  0.2891 -0.8478 -1.0272
 2122TIP3    H230562   4.272   3.209  10.463 -0.3712 -0.2834 -1.0973
 2123TIP3   OH230563   1.983   4.600  11.251 -0.0527  0.7562  0.2260
 2123TIP3    H130564   1.977   4.512  11.289 -2.7532  1.7183  2.3815
 2123TIP3    H230565   2.012   4.655  11.323 -1.4284  2.0624 -0.1671
 2124TIP3   OH230566   4.060   1.777  11.221 -0.7726 -0.0356  0.4899
 2124TIP3    H130567   3.996   1.706  11.218  1.1619 -1.9282  1.0259
 2124TIP3    H230568   4.139   1.736  11.257  0.4236  2.4324  0.8668
 2125TIP3   OH230569   0.912   0.067   9.643  0.0229 -0.0483  0.0220
 2125TIP3    H130570   0.943  -0.001   9.702  0.2352  1.7330  2.0820
 2125TIP3    H230571   0.849   0.117   9.694 -0.3933  1.1196 -1.5301
 2126TIP3   OH230572   6.470   1.224  12.181  0.2964  0.4711 -0.2011
 2126TIP3    H130573   6.564   1.242  12.171  0.1918  1.1626 -0.0296
 2126TIP3    H230574   6.430   1.311  12.186 -0.4778  0.2022 -1.4133
 2127TIP3   OH230575   6.655   5.691   9.415 -0.5218  0.7168  0.0296
 2127TIP3    H130576   6.597   5.621   9.386 -0.1225  0.1271  0.6575
 2127TIP3    H230577   6.629   5.766   9.361 -1.0060  0.1193 -0.5891
 2128TIP3   OH230578   6.576   4.091  11.617  0.3330  0.1009 -0.5885
 2128TIP3    H130579   6.484   4.111  11.604 -0.1329 -0.5375  1.4215
 2128TIP3    H230580   6.614   4.173  11.650  0.4187  0.2498 -1.0456
 2129TIP3   OH230581   0.973   5.465  11.167 -0.1659  0.1206  0.8733
 2129TIP3    H130582   0.935   5.463  11.080 -0.7441  1.3328  1.0749
 2129TIP3    H230583   1.035   5.392  11.168  0.0106  0.2181 -0.6146
 2130TIP3   OH230584   0.564   0.026   9.271  0.1920  0.0475 -0.2890
 2130TIP3    H130585   0.512   0.000   9.195 -0.0390  0.7528 -0.3826
 2130TIP3    H230586   0.626   0.091   9.236 -0.0437  0.5147  0.1574
 2131TIP3   OH230587   6.025   5.441  10.978  0.2217  0.6225 -0.4580
 2131TIP3    H130588   6.022   5.354  11.018 -0.1908 -0.1144 -2.0155
 2131TIP3    H230589   5.957   5.490  11.024  0.9804  0.3963  0.9722
 2132TIP3   OH230590   3.634   0.774   9.356 -0.2540 -0.3284 -0.3239
 2132TIP3    H130591   3.638   0.864   9.387 -1.1479 -0.4670  0.2285
 2132TIP3    H230592   3.638   0.781   9.261 -0.7337  0.3231 -0.2998
 2133TIP3   OH230593   4.629   4.899  10.774  0.0146  0.1957 -0.3733
 2133TIP3    H130594   4.562   4.892  10.842  0.3351 -0.1698 -0.0913
 2133TIP3    H230595   4.702   4.848  10.808  0.1119 -0.1408 -1.0782
 2134TIP3   OH230596   4.255   6.012   8.993 -0.0337  0.2875 -0.4298
 2134TIP3    H130597   4.162   5.990   8.995 -0.0511 -0.2406 -3.2193
 2134TIP3    H230598   4.296   5.936   8.951  1.6222  0.6689  0.4413
 2135TIP3   OH230599   3.789   4.768  11.574  0.4676 -0.1890  0.0861
 2135TIP3    H130600   3.738   4.776  11.494 -0.0873 -0.8851  0.3630
 2135TIP3    H230601   3.726   4.737  11.640  1.5872 -2.8588  0.0215
 2136TIP3   OH230602   0.878   5.462  10.917  0.4376  0.0413 -0.1942
 2136TIP3    H130603   0.930   5.510  10.852 -0.9840 -0.5767 -1.8924
 2136TIP3    H230604   0.822   5.404  10.864 -1.1635 -0.1132  1.5682
 2137TIP3   OH230605   6.429   0.718   9.624 -0.1788 -0.0520 -0.8315
 2137TIP3    H130606   6.364   0.787   9.609  0.0591 -0.0979 -2.1877
 2137TIP3    H230607   6.382   0.637   9.604 -0.2979 -0.2503  0.2228
 2138TIP3   OH230608   6.697   2.751   8.515  0.1466 -0.0208 -0.3614
 2138TIP3    H130609   6.630   2.710   8.461 -0.3070 -0.6925  0.6822
 2138TIP3    H230610   6.779   2.733   8.470 -0.1775 -0.9396 -0.6070
 2139TIP3   OH230611   0.300   3.645  10.605  0.3299 -0.3372  0.7901
 2139TIP3    H130612   0.351   3.626  10.684 -0.4185 -1.9964  0.9127
 2139TIP3    H230613   0.357   3.701  10.553  2.2815 -2.0358  0.9582
 2140TIP3   OH230614   1.579   4.771  10.601  0.3946 -0.3261  0.8411
 2140TIP3    H130615   1.521   4.764  10.677  0.5069 -0.9259  0.8692
 2140TIP3    H230616   1.521   4.760  10.525  0.5872 -1.7675  0.8843
 2141TIP3   OH230617   5.869   4.050   8.375  0.1748 -0.1673  0.0207
 2141TIP3    H130618   5.884   4.123   8.436  1.5844 -0.9677  0.6873
 2141TIP3    H230619   5.774   4.048   8.363  0.0145  1.1004  0.8296
 2142TIP3   OH230620   0.181   3.034  12.146 -0.0442  0.3694  0.2744
 2142TIP3    H130621   0.245   3.019  12.076  1.6869  0.5966  1.7319
 2142TIP3    H230622   0.149   2.947  12.168 -0.9844  0.3355 -1.0905
 2143TIP3   OH230623   1.434   3.576   9.026  0.0050 -0.4814 -0.5869
 2143TIP3    H130624   1.482   3.498   9.053 -2.0480 -1.2124  1.2438
 2143TIP3    H230625   1.382   3.548   8.951 -0.3243 -0.7267 -0.2679
 2144TIP3   OH230626   2.635   5.276   9.457  0.2669 -0.4833  0.0572
 2144TIP3    H130627   2.634   5.366   9.425 -0.6735 -0.2050  0.8064
 2144TIP3    H230628   2.717   5.240   9.425 -0.2641 -0.0088 -1.9806
 2145TIP3   OH230629   2.196   1.355   9.841  0.5061  0.0255  0.1121
 2145TIP3    H130630   2.123   1.302   9.807 -0.6888  1.6217  0.0567
 2145TIP3    H230631   2.222   1.310   9.921  1.8380 -2.5195 -1.6214
 2146TIP3   OH230632   0.428   0.831  10.534 -0.0070 -0.2982 -0.7714
 2146TIP3    H130633   0.470   0.864  10.614  1.3018 -0.0305 -1.5542
 2146TIP3    H230634   0.470   0.747  10.518 -2.4657 -1.9032  0.5277
 2147TIP3   OH230635   3.171   0.218   9.984  0.5609 -0.4033  0.3856
 2147TIP3    H130636   3.190   0.206   9.891  3.2783  0.1439  0.7877
 2147TIP3    H230637   3.186   0.311  10.000 -1.3598 -0.1733  1.1186
 2148TIP3   OH230638   3.955   5.529  10.005  0.1109 -0.0049  0.0284
 2148TIP3    H130639   3.933   5.487  10.089  0.0477  1.3703  0.7296
 2148TIP3    H230640   4.008   5.464   9.959  0.0564 -0.8285  1.0873
 2149TIP3   OH230641   1.362   1.659  11.454  0.0758  0.0742  0.4223
 2149TIP3    H130642   1.340   1.580  11.504 -1.9998  0.7936  0.7445
 2149TIP3    H230643   1.277   1.698  11.432  0.9169  0.2932 -2.9106
 2150TIP3   OH230644   5.837   4.044  12.107 -0.6174  0.4289  0.4250
 2150TIP3    H130645   5.868   4.065  12.195  0.9536  2.0478 -0.4272
 2150TIP3    H230646   5.916   4.016  12.061 -1.2296  0.5657 -0.7309
 2151TIP3   OH230647   0.565   4.932   9.513  0.4084  0.0689  0.0040
 2151TIP3    H130648   0.539   5.023   9.526 -0.0090  0.2318 -1.7681
 2151TIP3    H230649   0.486   4.888   9.481  0.8660 -0.6885 -0.1294
 2152TIP3   OH230650   5.947   4.708  10.058  0.2125 -0.0042 -0.2623
 2152TIP3    H130651   5.963   4.671  10.145  0.7561  0.3897 -0.1954
 2152TIP3    H230652   6.026   4.757  10.038  0.1354 -0.1896 -1.0318
 2153TIP3   OH230653   5.411   1.019   9.795  0.7153  0.0885  0.1148
 2153TIP3    H130654   5.343   0.993   9.732 -0.9601  2.9268  0.5862
 2153TIP3    H230655   5.429   0.939   9.844 -1.2001 -1.1537 -1.0472
 2154TIP3   OH230656   2.167   4.794   9.356 -0.7575 -0.2738  0.2070
 2154TIP3    H130657   2.087   4.778   9.407 -1.8412 -2.8040 -2.0045
 2154TIP3    H230658   2.170   4.721   9.294  2.1222  0.9533 -1.2789
 2155TIP3   OH230659   0.714   5.975  11.901  0.0293 -0.0588  0.0265
 2155TIP3    H130660   0.738   6.052  11.848  0.8290 -0.1923  0.1717
 2155TIP3    H230661   0.679   6.012  11.982 -0.5126  0.1503 -0.3018
 2156TIP3   OH230662   0.642   5.638  11.561 -0.2034 -0.6577 -0.6723
 2156TIP3    H130663   0.737   5.649  11.560 -0.2023 -0.4740 -2.2586
 2156TIP3    H230664   0.630   5.543  11.564  0.0666 -0.7170 -1.1806
 2157TIP3   OH230665   5.559   1.520   9.846 -0.1543 -0.0756 -0.2011
 2157TIP3    H130666   5.557   1.445   9.787 -1.5908 -0.4344  0.2452
 2157TIP3    H230667   5.593   1.486   9.928 -0.0903 -0.0635 -0.2230
 2158TIP3   OH230668   6.333   3.503   8.555  0.2158  0.0251 -0.9499
 2158TIP3    H130669   6.373   3.416   8.557  1.0046  0.1796  3.9814
 2158TIP3    H230670   6.239   3.486   8.558  0.3526 -0.9662  2.2883
 2159TIP3   OH230671   4.802   3.177   9.566  0.0367  0.1643 -0.5865
 2159TIP3    H130672   4.742   3.164   9.492 -0.2436 -0.0165 -0.3270
 2159TIP3    H230673   4.745   3.193   9.641  0.3273  2.7974 -0.8425
 2160TIP3   OH230674   3.586   3.392   9.580  0.1851 -0.2432 -0.0276
 2160TIP3    H130675   3.622   3.353   9.659 -0.7715 -0.5516  0.2738
 2160TIP3    H230676   3.501   3.427   9.608  0.1700  0.3104 -0.7447
 2161TIP3   OH230677   4.957   3.784  10.234 -0.6021 -0.5142  0.2332
 2161TIP3    H130678   5.036   3.820  10.273 -0.3327 -0.2321 -0.5644
 2161TIP3    H230679   4.988   3.712  10.179 -0.9457 -0.6746  0.2444
 2162TIP3   OH230680   4.797   2.917   8.806 -0.4378 -0.3094  0.6029
 2162TIP3    H130681   4.860   2.893   8.738  0.4720  1.3390  0.8091
 2162TIP3    H230682   4.711   2.903   8.766  0.0594  1.5932 -1.3131
 2163TIP3   OH230683   1.828   4.282  10.921  0.1651 -0.1378  0.3330
 2163TIP3    H130684   1.783   4.227  10.857  0.3806 -1.1210  1.0169
 2163TIP3    H230685   1.757   4.323  10.972  0.0087  0.2189 -0.1563
 2164TIP3   OH230686   0.612   1.647  10.539 -0.3257 -0.0598  0.0199
 2164TIP3    H130687   0.674   1.575  10.533  0.2538  0.4075  0.3198
 2164TIP3    H230688   0.526   1.605  10.530  0.0399 -0.3878 -3.8873
 2165TIP3   OH230689   1.110   4.084   8.887  0.1243  0.2205 -0.3107
 2165TIP3    H130690   1.185   4.027   8.902  0.0898  0.2318 -0.0939
 2165TIP3    H230691   1.086   4.115   8.974 -2.1470 -2.2856  0.0800
 2166TIP3   OH230692   6.382   0.913  11.691 -0.6638  0.1970 -0.0482
 2166TIP3    H130693   6.425   0.991  11.725  0.7435 -0.2955 -0.6008
 2166TIP3    H230694   6.368   0.858  11.768  1.0493 -0.2390 -0.0038
 2167TIP3   OH230695   3.649   6.050   9.629  0.2580 -0.6084 -0.2988
 2167TIP3    H130696   3.566   6.004   9.614 -1.1481  1.0272  1.7849
 2167TIP3    H230697   3.688   6.006   9.704  2.1039 -2.2662 -2.0956
 2168TIP3   OH230698   0.099   2.987  11.481  0.0673  0.0557 -0.3547
 2168TIP3    H130699   0.121   3.064  11.533 -0.0238 -0.1318 -0.0325
 2168TIP3    H230700   0.053   3.021  11.405 -1.0478  0.2414  0.3720
 2169TIP3   OH230701   6.126   2.619   9.126  0.4583 -0.2019 -0.1386
 2169TIP3    H130702   6.036   2.625   9.160  0.7162  1.7066  0.3326
 2169TIP3    H230703   6.119   2.560   9.051 -1.7879  1.9654 -1.8157
 2170TIP3   OH230704   2.735   4.825  11.750 -0.1171 -0.1681 -0.0476
 2170TIP3    H130705   2.675   4.898  11.740  0.9758  0.5934 -1.4147
 2170TIP3    H230706   2.694   4.753  11.702  0.3672  0.5723 -1.6370
 2171TIP3   OH230707   1.335   4.680   9.219 -0.2650 -0.0733  0.0945
 2171TIP3    H130708   1.407   4.633   9.261 -2.5724 -2.1897  2.0445
 2171TIP3    H230709   1.291   4.613   9.166 -2.9610 -0.0103  1.9984
 2172TIP3   OH230710   4.417   3.493   9.170  0.2141 -0.1489  0.1746
 2172TIP3    H130711   4.429   3.573   9.120  0.0718 -0.5770 -0.5614
 2172TIP3    H230712   4.404   3.522   9.260 -0.9778  0.7188 -0.2584
 2173TIP3   OH230713   4.538   5.827  10.583  0.2554  0.8445 -0.5487
 2173TIP3    H130714   4.509   5.831  10.492 -0.7719  0.4213 -0.2617
 2173TIP3    H230715   4.507   5.742  10.614  1.2019  0.6864  0.0028
 2174TIP3   OH230716   0.743   4.777  11.081 -0.3967 -0.3003  0.0909
 2174TIP3    H130717   0.731   4.698  11.134 -0.6293 -0.8725 -0.7873
 2174TIP3    H230718   0.655   4.810  11.067 -0.3618 -0.3045 -0.1488
 2175TIP3   OH230719   5.944   4.340   9.154  0.0017 -0.1885  0.0612
 2175TIP3    H130720   5.892   4.271   9.112 -1.1684  0.0250  1.1118
 2175TIP3    H230721   6.014   4.358   9.091 -1.8766  0.4029 -2.0059
 2176TIP3   OH230722   1.642   3.983  11.496 -0.5318 -0.1091  0.7611
 2176TIP3    H130723   1.590   3.964  11.418  0.0873 -2.7140  0.8671
 2176TIP3    H230724   1.579   3.975  11.568 -0.7595  0.5883  0.6409
 2177TIP3   OH230725   6.384   3.768   9.847 -0.6929  1.2048 -0.2834
 2177TIP3    H130726   6.424   3.730   9.769 -1.6200  0.5445 -0.4548
 2177TIP3    H230727   6.360   3.857   9.821  0.4929  1.5569 -0.2223
 2178TIP3   OH230728   0.037   1.310  12.314  0.1756  0.2668 -0.2713
 2178TIP3    H130729   0.004   1.250  12.381  0.6965 -0.2874 -0.4951
 2178TIP3    H230730   0.081   1.253  12.251 -0.9724  0.6897 -1.5036
 2179TIP3   OH230731   6.602   2.483  11.916  0.3180 -0.1958 -0.2924
 2179TIP3    H130732   6.552   2.547  11.966  0.9960 -0.4606  0.7529
 2179TIP3    H230733   6.549   2.467  11.838 -0.2651  0.9972 -0.1598
 2180TIP3   OH230734   0.667   3.420  10.003  0.3357 -0.0083  0.0289
 2180TIP3    H130735   0.621   3.339  10.026 -1.2862  1.0708  0.7777
 2180TIP3    H230736   0.756   3.408  10.035  0.4229 -1.8684 -0.7662
 2181TIP3   OH230737   1.846   4.165  12.147  0.6187 -0.2061 -0.4179
 2181TIP3    H130738   1.811   4.231  12.208 -1.8144 -0.3660 -1.5529
 2181TIP3    H230739   1.913   4.213  12.097  1.8923  0.2135  1.5653
 2182TIP3   OH230740   3.794   0.843  11.616 -0.2088  0.5564  0.3251
 2182TIP3    H130741   3.751   0.898  11.551  0.3816  1.2777  0.5371
 2182TIP3    H230742   3.877   0.886  11.633  1.7427 -2.0171 -1.8227
 2183TIP3   OH230743   1.400   1.671   9.395  0.1520 -0.4516  0.5848
 2183TIP3    H130744   1.456   1.748   9.407 -0.7156  0.4248 -0.7092
 2183TIP3    H230745   1.429   1.634   9.311 -3.0313  1.7698 -1.7500
 2184TIP3   OH230746   2.034   3.104  10.028 -0.1081 -0.1117 -0.4874
 2184TIP3    H130747   2.004   3.188   9.993 -1.5663 -0.6949 -0.7341
 2184TIP3    H230748   1.989   3.096  10.112 -0.5015 -0.9292 -0.7649
 2185TIP3   OH230749   2.083   0.461  11.729  0.3384  0.2144 -0.3119
 2185TIP3    H130750   2.045   0.428  11.811  1.5289  2.3908  1.2180
 2185TIP3    H230751   2.010   0.459  11.667 -0.6386 -1.3706  0.8138
 2186TIP3   OH230752   6.675   1.468  11.333 -0.5081 -0.2600  0.1438
 2186TIP3    H130753   6.757   1.422  11.348  0.0362  0.4965 -0.3878
 2186TIP3    H230754   6.687   1.553  11.377 -1.0261 -0.1693  0.1177
 2187TIP3   OH230755   6.158   3.666   9.972 -0.1785 -0.5315 -0.0056
 2187TIP3    H130756   6.202   3.593  10.014 -0.4411 -0.7327 -0.0785
 2187TIP3    H230757   6.230   3.721   9.939  0.0199 -0.7604  0.0391
 2188TIP3   OH230758   0.634   4.848   8.223  0.3482 -0.3820  0.2230
 2188TIP3    H130759   0.604   4.917   8.283 -1.5579 -2.2630  1.5793
 2188TIP3    H230760   0.667   4.896   8.147 -1.6277  2.0600  0.7349
 2189TIP3   OH230761   0.331   6.050  10.704  0.2226  0.2272 -0.4296
 2189TIP3    H130762   0.406   6.087  10.750 -0.2029 -1.3813  1.6957
 2189TIP3    H230763   0.286   5.997  10.769 -3.5967  2.1660 -1.2170
 2190TIP3   OH230764   2.690   0.417   9.878  0.1763  0.0666 -0.5992
 2190TIP3    H130765   2.618   0.356   9.894 -0.6869  0.7551 -1.7968
 2190TIP3    H230766   2.726   0.434   9.965 -0.7434 -0.7167 -0.0465
 2191TIP3   OH230767   5.480   6.670   9.829  0.2074  0.5766  0.4223
 2191TIP3    H130768   5.466   6.577   9.847  1.1972  0.2509 -0.3630
 2191TIP3    H230769   5.418   6.716   9.886  0.7122 -0.5101  1.9014
 2192TIP3   OH230770   4.683   1.555   8.507 -0.3644 -0.1210 -0.0086
 2192TIP3    H130771   4.646   1.490   8.566 -1.9087 -0.4305 -1.2232
 2192TIP3    H230772   4.675   1.516   8.420  1.3731  0.5183 -0.4915
 2193TIP3   OH230773   4.634   1.363  12.080 -0.1349  0.8085  0.2535
 2193TIP3    H130774   4.622   1.439  12.136 -0.8586  1.9400 -1.3657
 2193TIP3    H230775   4.711   1.383  12.027  0.5618 -0.2580  0.8273
 2194TIP3   OH230776   4.722   3.017  11.940  0.2148 -0.3069 -0.5655
 2194TIP3    H130777   4.791   2.973  11.989 -0.2224 -0.1095  0.2406
 2194TIP3    H230778   4.647   2.957  11.943  0.3966 -0.6075 -1.6003
 2195TIP3   OH230779   1.937   2.037   9.814 -0.1998  0.0955 -0.5069
 2195TIP3    H130780   1.897   2.044   9.727  1.2701 -2.1117 -1.4533
 2195TIP3    H230781   1.898   2.109   9.864 -1.2392  1.3406 -2.9140
 2196TIP3   OH230782   0.522   0.054   9.528  0.3791 -0.0392 -0.2137
 2196TIP3    H130783   0.513   0.148   9.540 -1.5703 -0.2550  0.4472
 2196TIP3    H230784   0.541   0.043   9.435 -1.3922  0.9379 -0.7302
 2197TIP3   OH230785   6.350   6.375   8.505 -0.1880  0.2562  0.7196
 2197TIP3    H130786   6.345   6.443   8.572 -0.8513  0.7771  0.1556
 2197TIP3    H230787   6.261   6.341   8.498 -0.2643  0.6130 -0.2875
 2198TIP3   OH230788   3.817   2.063  11.890 -0.5675  0.1968 -0.5876
 2198TIP3    H130789   3.789   2.154  11.883 -2.0043  0.1481  2.7165
 2198TIP3    H230790   3.766   2.028  11.963  1.5236 -2.6328 -0.3119
 2199TIP3   OH230791   6.271   2.520  12.092 -0.2169  0.6147 -0.1163
 2199TIP3    H130792   6.265   2.453  12.024 -0.3114  0.0620  0.4310
 2199TIP3    H230793   6.242   2.600  12.049 -2.2993 -0.1099 -0.1768
 2200TIP3   OH230794   5.892   5.475  10.579  0.1563 -0.1203  0.3506
 2200TIP3    H130795   5.947   5.495  10.503  0.3487  0.1318  0.5532
 2200TIP3    H230796   5.887   5.558  10.627 -1.7547  0.3213 -0.5103
 2201TIP3   OH230797   2.965   1.706  10.390 -0.4637  0.5434  0.2591
 2201TIP3    H130798   2.935   1.776  10.331 -0.5121  0.0579 -0.2980
 2201TIP3    H230799   2.933   1.732  10.476  1.0614  2.1525  0.3907
 2202TIP3   OH230800   6.265   3.158  10.517 -1.5660  0.2696 -0.1129
 2202TIP3    H130801   6.300   3.232  10.567 -0.5667  0.2401 -0.7205
 2202TIP3    H230802   6.202   3.117  10.575 -0.9246  0.6248  0.8685
 2203TIP3   OH230803   0.651   1.041  10.210 -0.0640 -0.0775 -0.6485
 2203TIP3    H130804   0.617   1.096  10.140 -3.0173 -0.5703  0.2932
 2203TIP3    H230805   0.602   0.959  10.203  0.0208 -0.3738  1.6009
 2204TIP3   OH230806   3.133   3.882  11.218  0.1273 -0.4020 -0.5683
 2204TIP3    H130807   3.053   3.886  11.269 -0.4463 -1.4977 -1.3530
 2204TIP3    H230808   3.133   3.963  11.167  0.2708  0.2887  0.4930
 2205TIP3   OH230809   3.190   2.076  11.164  0.3719  1.1931  0.1599
 2205TIP3    H130810   3.262   2.021  11.134 -0.9586 -0.3571 -0.3241
 2205TIP3    H230811   3.172   2.135  11.090  0.4345  0.8408 -0.1368
 2206TIP3   OH230812   2.720   0.066  10.005 -0.1263  0.1104  0.5715
 2206TIP3    H130813   2.656  -0.005   9.997  0.7630 -0.6338 -0.0456
 2206TIP3    H230814   2.672   0.135  10.051 -1.3067 -0.5127  0.3256
 2207TIP3   OH230815   1.049   6.405  11.030  0.4684 -0.2433  0.8389
 2207TIP3    H130816   0.997   6.334  11.066  0.0330 -0.9763 -1.0992
 2207TIP3    H230817   1.140   6.374  11.035  0.4777 -0.0820  1.7958
 2208TIP3   OH230818   1.699   0.033  11.509 -0.2127  0.1666  0.3443
 2208TIP3    H130819   1.633   0.080  11.559  0.3142  3.0348 -1.4189
 2208TIP3    H230820   1.780   0.081  11.526 -0.0398  1.4257 -3.2391
 2209TIP3   OH230821   1.527   5.396  10.199 -0.5055  0.0051  0.8179
 2209TIP3    H130822   1.482   5.459  10.255 -0.4378 -0.0024  0.8808
 2209TIP3    H230823   1.475   5.394  10.118  1.2562  2.6079 -0.5211
 2210TIP3   OH230824   3.332   2.650  10.405  0.4570  0.5622  0.7364
 2210TIP3    H130825   3.384   2.644  10.485 -1.9929  1.7303  2.5571
 2210TIP3    H230826   3.243   2.632  10.433 -0.3309 -0.3741 -2.0457
 2211TIP3   OH230827   0.127   3.939  12.211 -0.4249  0.2744 -0.4384
 2211TIP3    H130828   0.188   4.004  12.245  2.8698 -2.1902 -1.1506
 2211TIP3    H230829   0.098   3.975  12.127  0.9903  1.0112 -0.6401
 2212TIP3   OH230830   5.375   4.129   9.340 -0.0269  0.2465 -0.2699
 2212TIP3    H130831   5.307   4.161   9.399  0.1605 -0.1696  0.1731
 2212TIP3    H230832   5.439   4.086   9.397 -0.4409 -1.2351 -0.8622
 2213TIP3   OH230833   0.078   0.893  12.038  0.1966  0.0909 -0.1676
 2213TIP3    H130834  -0.008   0.890  12.080  0.7784 -0.2133  1.0525
 2213TIP3    H230835   0.105   0.802  12.032  0.1113  0.1265 -1.2699
 2214TIP3   OH230836   3.709   3.764  11.792 -0.3069  0.4955  0.1264
 2214TIP3    H130837   3.643   3.707  11.834 -0.1439 -1.1247 -1.6817
 2214TIP3    H230838   3.787   3.710  11.787 -0.3082  0.6088 -2.1849
 2215TIP3   OH230839   4.135   6.320  10.727  0.1802  0.4036  0.0451
 2215TIP3    H130840   4.224   6.344  10.702  0.7238 -0.7862  0.7367
 2215TIP3    H230841   4.111   6.384  10.794  0.6638  0.5083  0.1234
 2216TIP3   OH230842   1.327   3.740  11.555  0.6786 -0.5465  0.1880
 2216TIP3    H130843   1.320   3.674  11.624  0.0227  0.6919  1.3507
 2216TIP3    H230844   1.369   3.815  11.597 -0.2738  0.4468 -0.5831
 2217TIP3   OH230845   6.637   1.386  10.663 -0.8078 -0.0134 -0.3246
 2217TIP3    H130846   6.563   1.350  10.615 -0.4204  0.4630 -1.2999
 2217TIP3    H230847   6.641   1.478  10.638  1.2774 -0.4344 -1.8873
 2218TIP3   OH230848   0.377   4.794  10.776 -0.2166 -0.6453  0.3062
 2218TIP3    H130849   0.355   4.880  10.742  0.5631 -0.9643 -1.0547
 2218TIP3    H230850   0.416   4.811  10.862 -0.1762  0.3436  0.0988
 2219TIP3   OH230851   3.300   6.479  10.467 -0.3579  0.0567 -0.7382
 2219TIP3    H130852   3.258   6.418  10.528  1.7686 -0.4992  0.2590
 2219TIP3    H230853   3.340   6.545  10.523  1.0202 -0.0612 -1.5463
 2220TIP3   OH230854   0.093   1.995  11.868  0.1143 -0.0954  0.2260
 2220TIP3    H130855   0.010   2.020  11.907 -0.4843 -0.1095 -0.9992
 2220TIP3    H230856   0.154   2.065  11.893 -0.3253  0.0732  0.8611
 2221TIP3   OH230857   4.013   3.722  10.764 -0.0648 -0.7589  0.1397
 2221TIP3    H130858   3.921   3.737  10.785 -0.0967 -0.8867  0.0905
 2221TIP3    H230859   4.053   3.695  10.847 -0.0821 -0.7499  0.1510
 2222TIP3   OH230860   4.402   5.685   9.541 -0.3760  0.2416 -0.2109
 2222TIP3    H130861   4.449   5.697   9.459 -1.1762  0.0430 -0.7154
 2222TIP3    H230862   4.469   5.687   9.609  0.0914  2.4860 -0.6653
 2223TIP3   OH230863   5.237   0.385   9.765  0.1967  0.2467  0.2558
 2223TIP3    H130864   5.185   0.344   9.834  2.2966  0.6531  2.2341
 2223TIP3    H230865   5.279   0.311   9.719  0.2742  0.0158  0.6914
 2224TIP3   OH230866   6.217   2.685  10.793  0.8634 -0.2030 -0.3584
 2224TIP3    H130867   6.123   2.698  10.793  0.6038 -1.7749  1.1531
 2224TIP3    H230868   6.248   2.735  10.869  1.4393  1.2112 -1.4699
 2225TIP3   OH230869   2.756   5.401  10.641 -0.4568  0.1466 -0.3591
 2225TIP3    H130870   2.700   5.421  10.717  1.0238 -0.4044  0.9338
 2225TIP3    H230871   2.843   5.433  10.667  0.1767 -0.4880 -1.6473
 2226TIP3   OH230872   5.106   5.213  11.887  0.3248 -0.6684 -0.3463
 2226TIP3    H130873   5.071   5.300  11.905 -0.9604 -1.2015 -0.1547
 2226TIP3    H230874   5.118   5.212  11.792 -1.6512 -0.9562 -0.6365
 2227TIP3   OH230875   1.889   1.150  11.377 -0.4532  0.4311  0.1868
 2227TIP3    H130876   1.810   1.193  11.410  0.9244  0.9225  3.1492
 2227TIP3    H230877   1.922   1.209  11.309 -2.3673  0.3929 -0.8550
 2228TIP3   OH230878   1.738   2.046  10.903  0.2347 -0.0107  0.2064
 2228TIP3    H130879   1.710   2.009  10.987 -1.4567  0.4612 -0.1198
 2228TIP3    H230880   1.760   2.137  10.923  2.7881 -0.6591  0.6829
 2229TIP3   OH230881   3.971   2.055   8.843 -0.2725 -0.0204  0.5924
 2229TIP3    H130882   3.951   1.980   8.900  0.1915 -0.2086  0.5105
 2229TIP3    H230883   3.899   2.057   8.780 -0.5373 -0.1075  0.8892
 2230TIP3   OH230884   0.971   1.936  10.546  0.2100  0.3181 -0.3223
 2230TIP3    H130885   0.898   1.895  10.592 -0.1991  1.8971  0.5107
 2230TIP3    H230886   1.044   1.875  10.556 -0.4330 -0.3097  0.6673
 2231TIP3   OH230887   1.888   4.638  10.533  0.0364 -0.0699  0.1536
 2231TIP3    H130888   1.943   4.564  10.506 -0.6378 -0.1677 -1.0103
 2231TIP3    H230889   1.805   4.598  10.559 -0.1335  0.2229  0.0646
 2232TIP3   OH230890   4.868   4.997  11.963  0.2905  0.3398 -0.4528
 2232TIP3    H130891   4.918   5.078  11.964 -0.9274  1.1305 -0.7369
 2232TIP3    H230892   4.857   4.977  11.870  0.8636 -0.3269 -0.3754
 2233TIP3   OH230893   1.833   1.501  11.443 -0.1657 -0.4113  0.2836
 2233TIP3    H130894   1.774   1.566  11.481  1.1771  0.2513  1.2814
 2233TIP3    H230895   1.783   1.419  11.446 -1.4212  0.3180  0.1235
 2234TIP3   OH230896   0.146   6.223  10.544  0.5945 -0.6204 -0.4545
 2234TIP3    H130897   0.170   6.163  10.614  2.3291 -0.0261 -0.4967
 2234TIP3    H230898   0.169   6.176  10.463 -0.5046 -0.9220 -0.6080
 2235TIP3   OH230899   0.113   4.927  11.638  0.3898  0.1348  0.3252
 2235TIP3    H130900   0.178   4.982  11.683 -1.5882  0.9355  2.4517
 2235TIP3    H230901   0.056   4.990  11.593 -1.5939 -0.0617  2.3535
 2236TIP3   OH230902   2.510   2.176  11.102  0.0658 -0.4198 -0.8361
 2236TIP3    H130903   2.578   2.188  11.169 -1.0527 -2.1911  0.7155
 2236TIP3    H230904   2.555   2.128  11.032  0.7824 -0.2769 -0.4872
 2237TIP3   OH230905   1.321   0.719  12.174  0.4404 -0.3054  0.2751
 2237TIP3    H130906   1.383   0.662  12.218 -1.0176 -0.7102  1.9114
 2237TIP3    H230907   1.235   0.680  12.192 -0.3951  0.8147 -1.0114
 2238TIP3   OH230908   3.485   5.927  11.692  0.2275 -0.0056 -0.7256
 2238TIP3    H130909   3.514   6.013  11.662  1.3557  0.0136  0.3340
 2238TIP3    H230910   3.390   5.930  11.688  0.1848  1.7939  0.5737
 2239TIP3   OH230911   1.289   3.470   8.822  0.1136  0.2000  0.1618
 2239TIP3    H130912   1.199   3.500   8.808  0.8296  1.4069 -2.4042
 2239TIP3    H230913   1.294   3.386   8.776  0.5452  0.6178 -0.5703
 2240TIP3   OH230914   3.404   1.886  11.259  0.4516  0.3975  0.3882
 2240TIP3    H130915   3.367   1.806  11.296 -0.3768  0.8767  0.6223
 2240TIP3    H230916   3.470   1.913  11.323  1.4961 -0.6531 -0.2041
 2241TIP3   OH230917   2.880   1.934  10.250  0.1045 -0.1981  0.0134
 2241TIP3    H130918   2.936   2.004  10.282 -0.8487  1.3343 -1.5200
 2241TIP3    H230919   2.819   1.918  10.322 -0.4056  1.4145 -0.0135
 2242TIP3   OH230920   0.316   2.173  10.661  0.5819  0.3540 -0.4877
 2242TIP3    H130921   0.234   2.124  10.651  1.5164 -1.4314  0.2031
 2242TIP3    H230922   0.288   2.260  10.691 -1.1595  0.4967 -2.3229
 2243TIP3   OH230923   5.786   4.155  12.457  0.5950  0.2410 -0.0285
 2243TIP3    H130924   5.874   4.117  12.451  0.7980  0.9027 -2.3723
 2243TIP3    H230925   5.741   4.102  12.522  2.8129  0.1082  1.5369
 2244TIP3   OH230926   5.905   2.084  10.952  0.1836 -0.1111  0.6182
 2244TIP3    H130927   5.983   2.136  10.934  0.2361 -0.3867  0.0195
 2244TIP3    H230928   5.897   2.026  10.877  1.8665 -3.1351  2.5605
 2245TIP3   OH230929   0.788   2.224  10.535  0.0448  0.3266 -0.3071
 2245TIP3    H130930   0.773   2.129  10.527  1.2576  0.1027 -0.1982
 2245TIP3    H230931   0.849   2.232  10.609  0.8998  1.0683 -1.0616
 2246TIP3   OH230932   5.984   5.163  11.660 -0.0494  0.0558  0.2442
 2246TIP3    H130933   5.889   5.150  11.664 -0.0283  0.1441  3.0658
 2246TIP3    H230934   6.016   5.090  11.608 -1.4999 -1.1365  0.9664
 2247TIP3   OH230935   2.649   2.358   9.584  0.0367 -0.1669 -0.8656
 2247TIP3    H130936   2.590   2.310   9.641 -0.9617 -0.8444 -2.3889
 2247TIP3    H230937   2.731   2.307   9.587 -0.0679 -0.3041 -0.2122
 2248TIP3   OH230938   5.136   0.481   8.854  0.5026  0.2105  0.4298
 2248TIP3    H130939   5.082   0.471   8.776 -1.9141 -0.0407  2.0327
 2248TIP3    H230940   5.226   0.472   8.823 -0.4495 -2.7151 -1.8948
 2249TIP3   OH230941   2.377   4.295  11.504  0.2691 -0.3587 -0.1457
 2249TIP3    H130942   2.317   4.276  11.432  0.9809 -0.4964 -0.7108
 2249TIP3    H230943   2.337   4.370  11.549 -0.1465 -0.2305 -0.7197
 2250TIP3   OH230944   4.481   4.375  10.183 -0.4336 -0.1797  0.4534
 2250TIP3    H130945   4.399   4.383  10.134  0.4564  1.2015 -0.9040
 2250TIP3    H230946   4.491   4.459  10.227 -0.0939 -0.5972  1.2009
 2251TIP3   OH230947   1.157   3.494   9.804  0.4404 -0.1970  0.0109
 2251TIP3    H130948   1.228   3.496   9.741  0.6588  0.4178  0.2771
 2251TIP3    H230949   1.198   3.468   9.886  0.2851 -0.2302  0.0800
 2252TIP3   OH230950   3.147   0.139   9.693 -0.6645  0.4992  0.1342
 2252TIP3    H130951   3.054   0.116   9.700 -1.3222  1.3696 -3.5933
 2252TIP3    H230952   3.181   0.081   9.625  2.1648 -1.1254  2.6761
 2253TIP3   OH230953   1.256   2.939   9.703  0.3387  0.5113 -0.2717
 2253TIP3    H130954   1.283   2.925   9.612  0.4028  0.0345 -0.1861
 2253TIP3    H230955   1.160   2.946   9.699  0.4406  1.8228 -0.5293
 2254TIP3   OH230956   0.099   2.176  12.146 -0.6637 -0.4830  0.4064
 2254TIP3    H130957   0.177   2.222  12.116 -2.1027  0.4991 -2.1121
 2254TIP3    H230958   0.064   2.232  12.215  0.4626 -0.6015  1.1059
 2255TIP3   OH230959   3.513   4.625   9.706  0.1594 -0.0376  0.1058
 2255TIP3    H130960   3.546   4.567   9.775  0.8585  0.7933  0.4830
 2255TIP3    H230961   3.567   4.604   9.629  0.2222 -0.0879  0.1634
 2256TIP3   OH230962   6.127   0.216  11.138 -0.2707  0.2189  0.4674
 2256TIP3    H130963   6.047   0.183  11.179 -0.2231 -0.3374  0.1249
 2256TIP3    H230964   6.166   0.274  11.204  0.0406 -1.0150  1.4012
 2257TIP3   OH230965   6.634   4.951  10.969  0.4702 -0.3673 -0.7325
 2257TIP3    H130966   6.541   4.941  10.987  0.0940  1.9705 -1.0123
 2257TIP3    H230967   6.637   5.008  10.892  2.1380 -0.5762 -0.8513
 2258TIP3   OH230968   6.535   0.624   9.272 -0.7756 -0.7818 -0.2113
 2258TIP3    H130969   6.589   0.600   9.196 -2.0021 -0.9352 -1.0671
 2258TIP3    H230970   6.528   0.719   9.268  2.1637 -0.3489  1.8533
 2259TIP3   OH230971   5.276   3.950  11.601  0.0723  0.5488  0.1020
 2259TIP3    H130972   5.288   3.887  11.530 -2.2584  0.9261 -0.7157
 2259TIP3    H230973   5.317   3.908  11.677 -0.8531 -1.7121 -0.5523
 2260TIP3   OH230974   3.641   4.340  10.117  0.0272  0.3801  0.0243
 2260TIP3    H130975   3.593   4.257  10.109 -0.7334  0.7699  0.4562
 2260TIP3    H230976   3.689   4.331  10.199  2.6745 -0.9874 -1.5376
 2261TIP3   OH230977   6.221   4.602  10.731  0.2778 -0.1227 -0.1788
 2261TIP3    H130978   6.316   4.592  10.730  0.3308 -0.7816  2.7633
 2261TIP3    H230979   6.190   4.531  10.788 -2.0002  0.0751 -1.0562
 2262TIP3   OH230980   4.612   1.090   9.627 -0.0608 -0.5402 -0.6571
 2262TIP3    H130981   4.528   1.128   9.652  0.3037  0.7722 -1.3478
 2262TIP3    H230982   4.625   1.117   9.536  1.0324 -0.8672 -0.6175
 2263TIP3   OH230983   2.866   1.349  11.049 -0.1358  0.2119 -0.4848
 2263TIP3    H130984   2.781   1.314  11.022 -1.1581  0.8973  1.5994
 2263TIP3    H230985   2.865   1.440  11.019  0.3173 -0.0660 -1.3630
 2264TIP3   OH230986   4.609   4.910   9.204  0.2302 -0.2550  0.4503
 2264TIP3    H130987   4.604   4.935   9.112  0.0384 -0.7461  0.3222
 2264TIP3    H230988   4.651   4.824   9.204  1.7660  0.4677  0.9621
 2265TIP3   OH230989   3.821   3.740  10.089  0.4523  0.1296 -0.4739
 2265TIP3    H130990   3.872   3.679  10.036 -1.0668  0.5052 -2.4535
 2265TIP3    H230991   3.788   3.687  10.161  0.9654 -0.8589 -0.9491
 2266TIP3   OH230992   6.292   1.441   9.072 -0.2343  0.4648  0.1333
 2266TIP3    H130993   6.242   1.498   9.131  0.3946 -0.1078  1.2611
 2266TIP3    H230994   6.357   1.499   9.032  0.3523  0.5981  1.2205
 2267TIP3   OH230995   3.670   4.123  10.961 -0.0897  0.0340  0.0955
 2267TIP3    H130996   3.622   4.205  10.976 -1.4901 -0.8579  0.7623
 2267TIP3    H230997   3.668   4.111  10.866 -0.5498  0.3840  0.0552
 2268TIP3   OH230998   1.022   4.947  11.690  0.1435  0.0338  0.5037
 2268TIP3    H130999   0.934   4.959  11.654  0.9181 -0.7968 -1.7994
 2268TIP3    H231000   1.007   4.907  11.776 -1.7038 -0.5896 -0.0680
 2269TIP3   OH231001   0.605   5.448   8.881  0.1151  0.3480 -0.2824
 2269TIP3    H131002   0.546   5.518   8.853  2.0083  2.0092 -0.3513
 2269TIP3    H231003   0.655   5.425   8.803 -1.7969 -2.6051 -0.7972
 2270TIP3   OH231004   2.387   1.621   8.893 -0.0523 -0.0583 -0.0046
 2270TIP3    H131005   2.438   1.702   8.900 -1.0201  0.5874 -0.2615
 2270TIP3    H231006   2.404   1.590   8.804 -2.7351  2.0023 -1.3618
 2271TIP3   OH231007   1.012   3.631   9.536  0.1255  0.5974  0.2723
 2271TIP3    H131008   0.959   3.669   9.466 -0.1547  0.7989  0.5870
 2271TIP3    H231009   1.101   3.629   9.501  0.0103  0.8307 -0.0370
 2272TIP3   OH231010   3.164   6.665  11.251 -0.5383  0.8246  0.0066
 2272TIP3    H131011   3.175   6.746  11.201 -0.9554 -0.0826 -1.6270
 2272TIP3    H231012   3.204   6.683  11.336  2.8575  1.4923 -1.5836
 2273TIP3   OH231013   5.946   3.765  11.376  0.1399 -0.0014  0.1260
 2273TIP3    H131014   5.984   3.717  11.450 -1.9122 -0.9560  0.6199
 2273TIP3    H231015   5.876   3.817  11.414  0.4347  1.1702 -0.8607
 2274TIP3   OH231016   0.108   0.601  11.999  0.4401  0.2614 -0.7257
 2274TIP3    H131017   0.016   0.609  12.025  0.2344  0.4564 -1.4997
 2274TIP3    H231018   0.148   0.550  12.069  0.1360  1.6969  0.5599
 2275TIP3   OH231019   5.949   4.857   9.169  0.0836  0.2766  0.8861
 2275TIP3    H131020   5.950   4.777   9.221  0.0442  0.6650  1.5054
 2275TIP3    H231021   5.955   4.828   9.078 -0.0377 -0.4281  1.1008
 2276TIP3   OH231022   3.762   1.539  11.896  0.0987  0.0746 -0.0936
 2276TIP3    H131023   3.708   1.613  11.869 -0.8868 -1.2368 -1.9888
 2276TIP3    H231024   3.699   1.471  11.920  0.9626 -0.4972  0.6063
 2277TIP3   OH231025   0.780   1.128  11.927  0.3113 -0.0657  0.0044
 2277TIP3    H131026   0.863   1.081  11.921  0.4580  0.1550  0.2728
 2277TIP3    H231027   0.803   1.219  11.913  0.1694  0.0409  0.4369
 2278TIP3   OH231028   1.122   2.296   9.628 -0.6925 -0.1435 -0.3409
 2278TIP3    H131029   1.066   2.371   9.607 -1.5036  0.1083  2.3484
 2278TIP3    H231030   1.210   2.324   9.603 -1.1099  1.3397 -0.2423
 2279TIP3   OH231031   6.040   3.559  10.645  0.0682 -0.5175 -0.1800
 2279TIP3    H131032   6.095   3.629  10.610 -0.1516 -1.3179 -2.3167
 2279TIP3    H231033   5.971   3.549  10.580 -1.7063 -0.6390  1.6383
 2280TIP3   OH231034   5.683   1.320  10.706  0.3591 -0.1927 -0.5741
 2280TIP3    H131035   5.603   1.279  10.738  0.3478 -0.8901 -1.4744
 2280TIP3    H231036   5.754   1.264  10.737  0.5322  0.4570  0.2742
 2281TIP3   OH231037   1.494   1.557   9.809  0.4146 -0.4608  0.5233
 2281TIP3    H131038   1.474   1.651   9.806 -0.2338 -0.5608  1.3301
 2281TIP3    H231039   1.587   1.551   9.786  0.1517  0.2551 -0.8376
 2282TIP3   OH231040   3.006   0.709  11.897 -0.1768 -0.1391 -0.4801
 2282TIP3    H131041   3.029   0.626  11.940 -0.8801 -0.5796 -0.9387
 2282TIP3    H231042   3.080   0.726  11.838 -1.4988 -2.2408 -2.9484
 2283TIP3   OH231043   1.144   2.513   8.881  0.3345 -0.3456  0.2177
 2283TIP3    H131044   1.099   2.491   8.799 -1.2186 -1.5619  1.3503
 2283TIP3    H231045   1.149   2.430   8.929  3.3488 -0.1596  0.4116
 2284TIP3   OH231046   0.608   4.496   9.809  0.4831 -0.0808 -0.0611
 2284TIP3    H131047   0.681   4.466   9.755  1.0417  1.9243 -0.4826
 2284TIP3    H231048   0.649   4.533   9.887 -0.2307 -1.0717  0.8276
 2285TIP3   OH231049   4.757   3.016  10.326 -0.5249  0.4604  0.1316
 2285TIP3    H131050   4.731   2.926  10.303 -2.7043  1.0190  0.1537
 2285TIP3    H231051   4.803   3.006  10.409  1.7029 -0.8838 -1.1779
 2286TIP3   OH231052   5.908   5.791   9.181 -0.9856  0.4788 -0.3692
 2286TIP3    H131053   5.975   5.725   9.202 -1.1180  0.7032  0.7739
 2286TIP3    H231054   5.865   5.756   9.103  2.2142  1.5858 -2.8689
 2287TIP3   OH231055   4.113   1.656   9.210 -0.1833 -0.6026 -0.5156
 2287TIP3    H131056   4.107   1.639   9.304 -1.5282 -1.9569 -0.8007
 2287TIP3    H231057   4.168   1.584   9.177  0.7736  0.1979 -0.7084
 2288TIP3   OH231058   3.931   5.192  10.978  0.4331  0.0205 -0.3304
 2288TIP3    H131059   3.880   5.206  11.058  0.4207  0.4464 -0.4105
 2288TIP3    H231060   4.018   5.168  11.008  0.1410 -0.9455 -0.1901
 2289TIP3   OH231061   1.842   0.582  11.405 -0.3532 -0.4112 -0.2591
 2289TIP3    H131062   1.859   0.670  11.371 -0.3526 -0.0941  0.5575
 2289TIP3    H231063   1.920   0.532  11.379 -0.7803 -0.4356 -1.5719
 2290TIP3   OH231064   0.900   2.197  11.122 -0.0276  0.2574  0.6064
 2290TIP3    H131065   0.972   2.242  11.077 -1.1595  0.5623 -0.9964
 2290TIP3    H231066   0.924   2.105  11.120 -0.5876  0.0851 -1.8399
 2291TIP3   OH231067   2.754   0.374  12.148 -0.2081  0.8655  0.1164
 2291TIP3    H131068   2.667   0.344  12.173  0.2792  0.8224  1.8327
 2291TIP3    H231069   2.745   0.397  12.055 -1.6774 -0.4656 -0.1131
 2292TIP3   OH231070   6.160   2.887   9.037 -0.2377  0.2815 -0.1481
 2292TIP3    H131071   6.220   2.912   9.107 -2.0683  0.5056  1.4390
 2292TIP3    H231072   6.128   2.801   9.063  0.2150 -0.3336 -1.5547
 2293TIP3   OH231073   1.598   5.176  11.806  0.1563 -0.4621  0.4506
 2293TIP3    H131074   1.580   5.246  11.870 -0.1348 -1.5673  1.6259
 2293TIP3    H231075   1.685   5.196  11.772  1.3620 -1.0637  2.9423
 2294TIP3   OH231076   1.588   3.214   9.878 -0.0296  0.0222 -0.0890
 2294TIP3    H131077   1.578   3.151   9.807  1.1948 -0.8371  0.4641
 2294TIP3    H231078   1.633   3.166   9.947  1.6724  1.6999  0.0665
 2295TIP3   OH231079   3.855   2.496  11.749  0.3326 -0.2917  0.3532
 2295TIP3    H131080   3.793   2.569  11.755 -1.4879 -1.7460  0.2465
 2295TIP3    H231081   3.816   2.427  11.803  1.3880 -1.5935 -0.4866
 2296TIP3   OH231082   5.162   0.473   8.561 -0.1707  0.1678  0.6866
 2296TIP3    H131083   5.175   0.518   8.478 -0.5225 -1.0858 -0.0696
 2296TIP3    H231084   5.243   0.425   8.575 -1.0406 -1.6760 -0.2626
 2297TIP3   OH231085   5.272   1.585   8.892  0.2248 -0.3769 -0.0105
 2297TIP3    H131086   5.211   1.573   8.819  0.9622 -2.2704 -0.3752
 2297TIP3    H231087   5.221   1.565   8.970  0.1407 -1.1525 -0.2524
 2298TIP3   OH231088   5.532   4.252   9.629 -0.1609  0.1187 -0.3274
 2298TIP3    H131089   5.627   4.264   9.631 -0.2861  1.2606 -0.1672
 2298TIP3    H231090   5.502   4.284   9.714 -0.8141  1.1280 -0.9132
 2299TIP3   OH231091   0.848   2.213   9.735 -0.3188 -0.0072 -0.1097
 2299TIP3    H131092   0.932   2.188   9.696 -0.3034  0.4089 -0.3582
 2299TIP3    H231093   0.826   2.141   9.793 -0.5080 -0.8068 -1.1418
 2300TIP3   OH231094   6.527   2.866  10.454 -0.0585  0.2625 -0.2641
 2300TIP3    H131095   6.550   2.774  10.445  0.3895  0.3373  0.0642
 2300TIP3    H231096   6.544   2.886  10.546  1.1261  0.9983 -0.6094
 2301TIP3   OH231097   1.801   4.181   9.912  0.4105  0.3768  0.0220
 2301TIP3    H131098   1.832   4.169  10.002  0.7293 -0.2061 -0.1651
 2301TIP3    H231099   1.873   4.226   9.868  0.1302  0.9461  0.1305
 2302TIP3   OH231100   3.624   0.796  10.814  0.5034 -0.3332  0.3427
 2302TIP3    H131101   3.545   0.848  10.831  1.3844  0.9181  0.8095
 2302TIP3    H231102   3.689   0.861  10.787  0.9970 -1.4980 -1.4423
 2303TIP3   OH231103   5.820   2.049  11.412 -0.2684 -0.2305 -0.6752
 2303TIP3    H131104   5.781   1.964  11.432 -0.0868 -0.3551 -0.8521
 2303TIP3    H231105   5.787   2.107  11.481 -1.3481 -0.1605 -1.2271
 2304TIP3   OH231106   2.253   2.860   9.739 -0.2985  0.0618 -0.1409
 2304TIP3    H131107   2.166   2.833   9.769 -0.7698  2.3956  0.7493
 2304TIP3    H231108   2.314   2.803   9.787 -1.1942  1.3547  2.6968
 2305TIP3   OH231109   4.419   0.529  10.927  0.1511  0.0514 -0.1922
 2305TIP3    H131110   4.402   0.589  11.000 -1.5719 -0.8349  0.1876
 2305TIP3    H231111   4.338   0.528  10.877  1.3141  0.6598 -2.1943
 2306TIP3   OH231112   6.517   2.223  10.304  0.7963 -0.3631 -0.8737
 2306TIP3    H131113   6.489   2.132  10.297 -0.6421  0.0576 -0.7063
 2306TIP3    H231114   6.456   2.272  10.250  0.4677  0.7239  0.4252
 2307TIP3   OH231115   2.439   3.690   9.432  0.2267 -0.6595  0.3966
 2307TIP3    H131116   2.513   3.654   9.479  0.5315 -1.4936 -0.6736
 2307TIP3    H231117   2.368   3.694   9.496  1.2467  0.3978  1.5060
 2308TIP3   OH231118   5.425   4.642  10.400 -1.0170 -0.2651 -0.5339
 2308TIP3    H131119   5.443   4.554  10.433 -0.1526 -0.3114 -1.0884
 2308TIP3    H231120   5.465   4.701  10.464  1.2061 -0.3665 -1.7338
 2309TIP3   OH231121   2.219   2.125  11.189  0.0506 -0.5257  0.1391
 2309TIP3    H131122   2.289   2.185  11.163  0.2305 -1.3081 -1.2837
 2309TIP3    H231123   2.263   2.055  11.235  0.1613 -0.8178 -0.4066
 2310TIP3   OH231124   5.952   0.294   9.680 -0.0283 -0.7400  0.3326
 2310TIP3    H131125   5.889   0.243   9.627 -1.4558  1.1264  0.1264
 2310TIP3    H231126   5.948   0.382   9.642  1.8354 -0.2886  1.1292
 2311TIP3   OH231127   4.078   3.914   9.235 -0.1328  0.2109  0.4900
 2311TIP3    H131128   4.094   3.943   9.325  1.1610 -1.4813  0.8389
 2311TIP3    H231129   3.999   3.962   9.208  0.9659  2.8245  1.5442
 2312TIP3   OH231130   2.321   2.427   9.494  0.3541 -0.7193  0.8150
 2312TIP3    H131131   2.249   2.479   9.459  0.7586 -0.0528  0.9552
 2312TIP3    H231132   2.279   2.368   9.557 -0.1522 -0.7808  0.4225
 2313TIP3   OH231133   3.771   5.085  10.463  0.6098  0.2250 -0.8224
 2313TIP3    H131134   3.802   5.047  10.381  1.0735 -0.7661 -0.2183
 2313TIP3    H231135   3.850   5.117  10.506  0.4676  0.1054 -0.4619
 2314TIP3   OH231136   0.434   1.788  11.400  0.0147 -0.7181  0.1575
 2314TIP3    H131137   0.455   1.697  11.379  0.2900 -0.7893  0.7255
 2314TIP3    H231138   0.386   1.783  11.483  0.7049 -0.2894  0.5936
 2315TIP3   OH231139   5.993   3.569  12.110  0.2090 -0.2369 -0.4282
 2315TIP3    H131140   6.060   3.555  12.043  1.7173 -0.0642  0.9828
 2315TIP3    H231141   5.968   3.480  12.138  2.7726 -0.3860  1.7663
 2316TIP3   OH231142   4.967   1.062   8.781 -0.1987 -0.0226 -0.2479
 2316TIP3    H131143   4.992   1.116   8.856 -0.8239  0.6233 -0.4932
 2316TIP3    H231144   4.889   1.015   8.810 -0.8428  0.7500 -0.7261
 2317TIP3   OH231145   1.865   1.952  10.513 -0.3805 -0.4352 -0.5335
 2317TIP3    H131146   1.812   2.009  10.568  1.5117 -0.9893  2.0560
 2317TIP3    H231147   1.933   2.009  10.477  0.7498 -0.7155  1.0302
 2318TIP3   OH231148   6.446   6.607  10.485 -0.1541 -0.1131  0.1672
 2318TIP3    H131149   6.496   6.586  10.564 -0.7090 -1.6651  0.1379
 2318TIP3    H231150   6.355   6.605  10.513 -0.4085 -1.4719 -0.6354
 2319TIP3   OH231151   5.650   1.998   9.207  0.1063  0.1033  0.3787
 2319TIP3    H131152   5.631   2.063   9.140 -0.5411  1.8692  2.1788
 2319TIP3    H231153   5.564   1.960   9.228  0.5455 -1.8515 -1.0693
 2320TIP3   OH231154   6.565   4.553  11.970 -0.4602  0.1297  0.6094
 2320TIP3    H131155   6.620   4.480  12.000 -0.4488  0.5955  1.7791
 2320TIP3    H231156   6.615   4.631  11.992 -1.6437  0.5697  1.8748
 2321TIP3   OH231157   0.891   5.749  11.470  0.1759  0.0774  0.1017
 2321TIP3    H131158   0.937   5.814  11.523 -1.0502  0.4870  0.7011
 2321TIP3    H231159   0.844   5.800  11.404 -1.3345 -0.1293  0.9915
 2322TIP3   OH231160   5.541   1.808  10.175 -0.1055 -0.0648 -0.2146
 2322TIP3    H131161   5.478   1.857  10.122 -0.0395  0.4291  0.1574
 2322TIP3    H231162   5.491   1.778  10.250  0.4100  1.5852  0.8396
 2323TIP3   OH231163   2.660   5.018   9.574 -0.1115 -0.3505 -0.5045
 2323TIP3    H131164   2.660   5.112   9.561  0.2095 -0.4959 -1.6606
 2323TIP3    H231165   2.668   4.981   9.486 -0.5077 -1.4604 -0.0958
 2324TIP3   OH231166   3.860   1.265   8.964 -0.6339  0.6516 -0.2564
 2324TIP3    H131167   3.925   1.277   8.895 -0.3894 -1.5515 -0.4670
 2324TIP3    H231168   3.840   1.354   8.993  0.3182  1.5468 -2.1596
 2325TIP3   OH231169   5.547   5.220  10.020  0.1858 -0.3260 -0.2273
 2325TIP3    H131170   5.466   5.184   9.982 -0.7161  0.0184  1.2653
 2325TIP3    H231171   5.616   5.163   9.987 -0.8813 -1.7494 -0.1150
 2326TIP3   OH231172   0.655   6.447  10.764 -0.5911  0.7150  0.0921
 2326TIP3    H131173   0.648   6.524  10.707 -1.0703  0.8815  0.3754
 2326TIP3    H231174   0.580   6.453  10.822 -0.2718  0.3801  0.5473
 2327TIP3   OH231175   3.145   1.647  11.097 -0.2983 -0.0432 -0.2260
 2327TIP3    H131176   3.172   1.559  11.124  1.0911 -0.5775 -3.0071
 2327TIP3    H231177   3.105   1.635  11.011  0.0668  2.0581 -0.7399
 2328TIP3   OH231178   3.718   1.170   9.657 -0.2187  0.2801 -0.1520
 2328TIP3    H131179   3.796   1.205   9.614  0.6131 -2.4537 -1.0440
 2328TIP3    H231180   3.740   1.170   9.750  0.2305  0.9371 -0.2489
 2329TIP3   OH231181   3.067   0.062  10.560 -0.0782 -0.2744 -0.0418
 2329TIP3    H131182   2.992   0.010  10.532  0.8499 -0.5834 -2.1169
 2329TIP3    H231183   3.037   0.153  10.552 -1.3621 -0.3479  2.6286
 2330TIP3   OH231184   6.359   6.293  10.366 -0.0759  0.5384  0.0891
 2330TIP3    H131185   6.443   6.270  10.405 -0.5873  0.7991  1.4132
 2330TIP3    H231186   6.366   6.265  10.275  1.3278  0.2885  0.2520
 2331TIP3   OH231187   6.475   0.271  11.698 -0.3877 -0.2123  0.9050
 2331TIP3    H131188   6.462   0.191  11.749  0.6508 -0.9145  0.1036
 2331TIP3    H231189   6.386   0.301  11.679 -0.8002 -0.2991  2.5269
 2332TIP3   OH231190   5.570   1.807  12.009  0.5750 -0.4835 -0.4596
 2332TIP3    H131191   5.620   1.799  12.090  1.1518 -0.3473 -0.7978
 2332TIP3    H231192   5.633   1.840  11.945 -0.6579  2.9449 -0.1161
 2333TIP3   OH231193   4.500   4.165  11.849  0.8775 -0.0906  0.5029
 2333TIP3    H131194   4.518   4.186  11.941 -0.4678  0.9810  0.5558
 2333TIP3    H231195   4.411   4.196  11.835  1.2397  0.2162 -1.3135
 2334TIP3   OH231196   6.466   4.777  10.159  0.4102  0.4623 -0.1953
 2334TIP3    H131197   6.547   4.752  10.202  0.0842  0.1905  0.2761
 2334TIP3    H231198   6.482   4.761  10.066  0.8467  0.2794 -0.0903
 2335TIP3   OH231199   4.547   2.528  12.014  0.0558  0.8197  0.8584
 2335TIP3    H131200   4.455   2.524  12.038 -0.0221  0.6906  0.5341
 2335TIP3    H231201   4.548   2.573  11.929  0.3002  0.9258  0.9154
 2336TIP3   OH231202   6.494   1.425   9.431  0.2021 -0.0345 -0.3797
 2336TIP3    H131203   6.492   1.469   9.346  1.2083  1.3465  0.2668
 2336TIP3    H231204   6.583   1.437   9.462 -0.2680 -0.0871  1.0847
 2337TIP3   OH231205   4.924   3.410  10.309  0.1251  0.6393  0.5218
 2337TIP3    H131206   4.915   3.456  10.393  0.3327  1.9232 -0.1205
 2337TIP3    H231207   4.995   3.347  10.323  1.8972  2.5503  0.6579
 2338TIP3   OH231208   4.371   5.443  11.070  0.1142 -0.8077 -0.7451
 2338TIP3    H131209   4.416   5.520  11.034  0.4791 -0.3557  0.6389
 2338TIP3    H231210   4.307   5.479  11.131 -0.1063 -1.5875 -0.5039
 2339TIP3   OH231211   2.373   5.119  11.052 -0.1615 -0.1765  0.1716
 2339TIP3    H131212   2.426   5.107  11.131 -0.0195  1.5988  0.3800
 2339TIP3    H231213   2.419   5.187  11.003 -3.2219  3.0012  1.3119
 2340TIP3   OH231214   5.636   4.533  10.859 -0.2248  0.0985 -0.3232
 2340TIP3    H131215   5.680   4.482  10.791 -0.1196  0.0031 -0.1832
 2340TIP3    H231216   5.553   4.487  10.874  0.6495 -1.0935  1.0976
 2341TIP3   OH231217   3.038   2.936  10.523 -0.5709 -0.1644 -0.8309
 2341TIP3    H131218   3.076   3.010  10.475 -0.2504 -0.8485 -1.6474
 2341TIP3    H231219   3.064   2.859  10.473 -0.1490 -0.9104  0.4973
 2342TIP3   OH231220   3.097   0.412  10.961 -0.5809 -0.5571 -0.2193
 2342TIP3    H131221   3.082   0.403  10.867 -0.9587  1.5596 -0.3977
 2342TIP3    H231222   3.047   0.489  10.987  0.0893 -0.6727  1.5901
 2343TIP3   OH231223   6.262   5.631   9.081  0.2358 -0.7378  0.1471
 2343TIP3    H131224   6.207   5.562   9.045 -0.6593 -0.2346  0.5192
 2343TIP3    H231225   6.351   5.606   9.057 -0.0643 -2.0598  0.3369
 2344TIP3   OH231226   4.194   4.567   9.073  0.1996  0.3570 -0.5144
 2344TIP3    H131227   4.099   4.559   9.083  0.0558  1.6564 -0.6023
 2344TIP3    H231228   4.213   4.533   8.986 -0.2067  0.1907 -0.5363
 2345TIP3   OH231229   4.058   3.445  10.554  0.3646  0.0543  0.2641
 2345TIP3    H131230   4.112   3.419  10.629  0.1882  1.4050  0.8736
 2345TIP3    H231231   4.085   3.385  10.484  0.9841 -0.8138  1.2130
 2346TIP3   OH231232   4.525   4.472  10.570 -0.0873 -0.4087 -0.1343
 2346TIP3    H131233   4.608   4.493  10.529  0.1203 -1.1449 -0.1125
 2346TIP3    H231234   4.543   4.393  10.621 -1.0611 -1.2545 -1.0489
 2347TIP3   OH231235   6.607   4.110   9.964 -0.2574  0.2587 -0.4439
 2347TIP3    H131236   6.552   4.118   9.886  0.7131 -0.0180 -1.1696
 2347TIP3    H231237   6.604   4.017   9.986  0.2525  0.1677 -0.7409
 2348TIP3   OH231238   2.095   1.337   9.537  0.4032 -0.5478 -0.3002
 2348TIP3    H131239   2.045   1.257   9.553  1.9661 -1.7731 -1.2114
 2348TIP3    H231240   2.034   1.394   9.489 -0.7471 -1.1481  0.3968
 2349TIP3   OH231241   2.042   5.345   8.712  0.3271 -0.1207 -0.1846
 2349TIP3    H131242   1.985   5.393   8.652 -0.1433 -1.2036 -0.6390
 2349TIP3    H231243   1.987   5.327   8.788  0.6021  0.3418  0.1263
 2350TIP3   OH231244   1.294   1.802  10.996 -0.0056 -0.1995 -0.3059
 2350TIP3    H131245   1.339   1.718  10.998 -0.1898 -0.2810  0.8368
 2350TIP3    H231246   1.203   1.781  11.016  0.1372  0.3803  1.0010
 2351TIP3   OH231247   0.070   0.363  11.717  0.3037 -0.0657  0.2952
 2351TIP3    H131248  -0.018   0.338  11.744  0.3290 -0.5348 -0.0405
 2351TIP3    H231249   0.068   0.358  11.622 -0.6311  4.3299 -0.1279
 2352TIP3   OH231250   0.982   1.265   9.540 -0.4496  0.1223 -0.5173
 2352TIP3    H131251   0.982   1.332   9.608 -1.5356  0.6112 -0.9609
 2352TIP3    H231252   1.033   1.194   9.576 -1.4682  0.1323  1.0630
 2353TIP3   OH231253   4.780   6.454   9.753  0.1050  0.0420 -0.1162
 2353TIP3    H131254   4.705   6.493   9.709  1.2847  2.0698 -0.4380
 2353TIP3    H231255   4.762   6.360   9.751 -2.3192  0.4318 -0.3249
 2354TIP3   OH231256   0.207   6.653  12.010 -0.0193 -0.1038  0.5529
 2354TIP3    H131257   0.290   6.686  11.977 -0.5862  1.4732  0.5972
 2354TIP3    H231258   0.228   6.619  12.097  0.6638 -0.1650  0.3690
 2355TIP3   OH231259   5.000   2.674  10.595  0.1271 -0.7254 -0.1361
 2355TIP3    H131260   4.994   2.578  10.600 -1.1164 -0.6131  1.6182
 2355TIP3    H231261   5.091   2.694  10.616  0.1601 -1.5104  0.5526
 2356TIP3   OH231262   5.783   5.854  11.140  0.4036 -0.0499 -0.3343
 2356TIP3    H131263   5.816   5.793  11.205  2.3230  2.7237  1.4989
 2356TIP3    H231264   5.694   5.875  11.169  0.7232  0.0471  0.6227
 2357TIP3   OH231265   1.097   2.195  11.906  0.1079 -0.3623 -0.3889
 2357TIP3    H131266   1.185   2.209  11.943  1.5161 -3.4032 -2.1977
 2357TIP3    H231267   1.081   2.274  11.854  2.2408 -0.1465 -0.8087
 2358TIP3   OH231268   2.652   5.820  11.342  0.2911  0.0386 -0.7742
 2358TIP3    H131269   2.644   5.894  11.402 -0.1370 -0.9609  0.4554
 2358TIP3    H231270   2.596   5.843  11.268 -1.3598  0.1560  0.4485
 2359TIP3   OH231271   3.530   6.439   9.773  0.3634  0.6660  0.0147
 2359TIP3    H131272   3.516   6.451   9.868  0.5869 -0.0192  0.1354
 2359TIP3    H231273   3.586   6.512   9.748 -0.2861  1.2660  0.2676
 2360TIP3   OH231274   6.623   1.907  10.471 -0.0932 -0.0531 -0.0228
 2360TIP3    H131275   6.604   1.826  10.424  0.5644  0.2146 -0.7699
 2360TIP3    H231276   6.540   1.930  10.513 -0.4820 -0.7150 -0.4096
 2361TIP3   OH231277   3.840   3.743  10.488 -0.5851 -0.3497  0.7735
 2361TIP3    H131278   3.759   3.704  10.455 -0.6867  1.6026 -1.5988
 2361TIP3    H231279   3.835   3.835  10.460  1.5342  0.3296  2.3799
 2362TIP3   OH231280   4.568   2.424   8.246  0.1178 -0.1490 -0.1539
 2362TIP3    H131281   4.556   2.406   8.339 -1.1339  1.3683  0.0142
 2362TIP3    H231282   4.644   2.482   8.242  0.5624 -0.7259 -0.1456
 2363TIP3   OH231283   2.018   0.579   9.839  0.0248  0.1861 -0.0290
 2363TIP3    H131284   1.964   0.586   9.760  0.2733 -0.3424 -0.2521
 2363TIP3    H231285   2.059   0.492   9.832  1.3353  0.7868 -0.1501
 2364TIP3   OH231286   6.025   2.953  10.320  0.0257 -0.2622 -0.0613
 2364TIP3    H131287   5.987   3.033  10.354 -0.8061 -0.2632 -0.9392
 2364TIP3    H231288   5.999   2.885  10.383 -3.2055 -0.6191 -1.6157
 2365TIP3   OH231289   4.385   1.072   9.100  0.1050 -0.1330  0.1332
 2365TIP3    H131290   4.330   0.993   9.097  1.8664 -1.6075  2.5667
 2365TIP3    H231291   4.471   1.042   9.071 -0.0163  1.9038 -2.7095
 2366TIP3   OH231292   6.159   0.012  10.455 -0.1478 -0.4490  0.0779
 2366TIP3    H131293   6.095  -0.059  10.460 -0.5142 -0.2381 -1.2467
 2366TIP3    H231294   6.128   0.068  10.384  1.1661  0.0057 -0.1704
 2367TIP3   OH231295   0.009   1.206  11.943 -0.7328 -0.3575  0.0395
 2367TIP3    H131296   0.066   1.149  11.995 -1.7445 -0.2014  1.3672
 2367TIP3    H231297   0.027   1.294  11.976 -1.0601 -0.2009 -0.2016
 2368TIP3   OH231298   3.434   4.010  11.490 -0.3590 -0.3731  0.0159
 2368TIP3    H131299   3.526   3.987  11.479  0.2010  1.8218 -0.5275
 2368TIP3    H231300   3.434   4.068  11.567 -1.4311 -1.0194  0.5164
 2369TIP3   OH231301   5.963   5.252   9.497  0.4612  1.0571 -0.5528
 2369TIP3    H131302   5.933   5.196   9.568  1.1667  0.3012 -0.8460
 2369TIP3    H231303   6.037   5.206   9.459 -0.4333  1.0054 -2.3544
 2370TIP3   OH231304   4.993   0.627  11.695  0.7782  0.1136 -0.6472
 2370TIP3    H131305   5.071   0.581  11.724 -1.1159 -2.5655  0.6258
 2370TIP3    H231306   4.957   0.572  11.625  0.2558  1.5254 -1.5243
 2371TIP3   OH231307   0.153   6.136   9.341 -0.1925  0.4993 -0.3945
 2371TIP3    H131308   0.199   6.052   9.351  0.8293  0.8398 -1.8803
 2371TIP3    H231309   0.141   6.145   9.246 -3.0471  0.6097 -0.1139
 2372TIP3   OH231310   5.500   4.825  10.587  1.1943 -0.2605 -0.0415
 2372TIP3    H131311   5.467   4.814  10.676  0.0631 -2.0144 -0.6345
 2372TIP3    H231312   5.479   4.915  10.564 -0.7800 -0.5313  0.5900
 2373TIP3   OH231313   3.292   4.115  10.094 -0.4962 -0.0435 -0.4967
 2373TIP3    H131314   3.260   4.200  10.064 -1.2476 -0.9539 -2.4266
 2373TIP3    H231315   3.212   4.064  10.110 -0.0509 -1.0731 -1.4822
 2374TIP3   OH231316   2.419   6.698  10.394  0.1792  0.2062  0.0029
 2374TIP3    H131317   2.441   6.762  10.326 -2.6138  0.2970 -0.9539
 2374TIP3    H231318   2.374   6.750  10.461  0.4224 -0.3372  0.6021
 2375TIP3   OH231319   6.371   2.132  11.336 -0.5660 -0.0655  0.2606
 2375TIP3    H131320   6.392   2.046  11.299  0.0929  0.8420 -1.5750
 2375TIP3    H231321   6.291   2.158  11.291  0.5576  1.3008 -1.0477
 2376TIP3   OH231322   5.265   1.189  10.531 -0.5587 -0.1668  0.4062
 2376TIP3    H131323   5.202   1.169  10.462  1.1292 -0.8121 -1.0373
 2376TIP3    H231324   5.300   1.104  10.557 -0.1072  0.1931  1.0144
 2377TIP3   OH231325   5.465   2.024   8.770 -0.4156 -0.1912  0.5452
 2377TIP3    H131326   5.451   1.943   8.721 -2.5348 -0.2549  1.1403
 2377TIP3    H231327   5.381   2.039   8.815  0.3879  1.5954  1.5381
 2378TIP3   OH231328   0.888   6.134   9.707  0.0930  0.3257  0.3014
 2378TIP3    H131329   0.885   6.150   9.613 -1.8188 -0.5493  0.1629
 2378TIP3    H231330   0.831   6.201   9.745 -2.5452 -1.7935  0.3548
 2379TIP3   OH231331   4.515   6.218  10.116  0.2583  0.7324  0.2729
 2379TIP3    H131332   4.559   6.220  10.030  1.4066 -1.3554  0.7561
 2379TIP3    H231333   4.583   6.247  10.177  0.2282 -0.2184  0.7582
 2380TIP3   OH231334   6.687   1.093  10.691 -0.0219 -0.0285  0.0196
 2380TIP3    H131335   6.780   1.084  10.670  0.3606 -3.5449  2.3734
 2380TIP3    H231336   6.671   1.187  10.689  3.3217  0.6476 -1.3772
 2381TIP3   OH231337   6.084   6.026   9.366  0.2308 -0.0090  0.0406
 2381TIP3    H131338   6.097   6.083   9.442 -0.8787  1.2954 -0.7094
 2381TIP3    H231339   5.999   5.986   9.381 -0.1214  0.4659 -0.6176
 2382TIP3   OH231340   6.545   4.235   9.715 -0.2355 -0.0408  0.2555
 2382TIP3    H131341   6.626   4.243   9.765 -1.7140  1.4732  2.6161
 2382TIP3    H231342   6.513   4.325   9.707 -1.6618 -0.5933 -0.6583
 2383TIP3   OH231343   3.391   3.699  10.471 -0.2442 -0.7628  0.3639
 2383TIP3    H131344   3.336   3.623  10.453 -0.3355 -0.2872 -1.6705
 2383TIP3    H231345   3.397   3.744  10.386  2.2459 -0.1247  0.8128
 2384TIP3   OH231346   0.986   1.627   9.436 -0.1024 -0.6674  0.3150
 2384TIP3    H131347   1.042   1.567   9.484 -0.4872 -1.5692 -0.3307
 2384TIP3    H231348   0.946   1.682   9.503 -0.7238 -1.9833  1.0552
 2385TIP3   OH231349   4.258   0.341   8.613 -0.1452 -0.4253 -0.1764
 2385TIP3    H131350   4.234   0.310   8.700  0.4928 -0.4497 -0.0019
 2385TIP3    H231351   4.176   0.369   8.574 -0.6051 -1.4852  0.0031
 2386TIP3   OH231352   0.673   4.268   8.672  0.3348 -0.9722  0.1260
 2386TIP3    H131353   0.761   4.305   8.669 -0.9926  2.5458 -0.7789
 2386TIP3    H231354   0.678   4.190   8.617  3.1056 -1.7197  1.2226
 2387TIP3   OH231355   6.700   4.817  11.915  0.8202 -0.6657 -0.1657
 2387TIP3    H131356   6.762   4.815  11.841  0.6531 -2.2140 -0.2931
 2387TIP3    H231357   6.629   4.875  11.885  1.0384 -0.8079 -0.9850
 2388TIP3   OH231358   1.237   3.203   9.743  0.4800 -0.5155 -0.0721
 2388TIP3    H131359   1.283   3.249   9.672 -0.0408 -0.4596 -0.3749
 2388TIP3    H231360   1.238   3.111   9.716  1.6282 -0.7196  0.5932
 2389TIP3   OH231361   5.295   2.146  11.253 -0.2903 -0.4798 -0.3362
 2389TIP3    H131362   5.377   2.097  11.257  0.1564  0.2801  0.2402
 2389TIP3    H231363   5.279   2.160  11.160 -0.6501 -2.0399 -0.5432
 2390TIP3   OH231364   0.692   6.299   9.796  0.1991 -0.1624  0.1671
 2390TIP3    H131365   0.721   6.371   9.741 -0.4460 -0.0664 -0.0494
 2390TIP3    H231366   0.658   6.341   9.875  0.1904 -0.2493  0.2095
 2391TIP3   OH231367   1.978   4.347  11.368  0.4933 -0.2600 -0.7555
 2391TIP3    H131368   1.994   4.256  11.344 -0.6455 -0.7870  0.3587
 2391TIP3    H231369   1.915   4.342  11.440  1.9092  1.3049  0.6982
 2392TIP3   OH231370   1.337   6.437  12.140 -0.8960 -0.8040  0.6735
 2392TIP3    H131371   1.415   6.492  12.148 -1.8600  0.7338  0.0942
 2392TIP3    H231372   1.268   6.498  12.111 -2.0831 -2.2873  0.2552
 2393TIP3   OH231373   5.765   4.646   9.548 -0.5420 -0.3128  0.6547
 2393TIP3    H131374   5.790   4.737   9.530 -0.2189 -0.6795 -0.8414
 2393TIP3    H231375   5.806   4.627   9.633  1.0378  0.3324  0.0780
 2394TIP3   OH231376   4.835   0.660   9.754 -0.0095  0.1857 -0.1097
 2394TIP3    H131377   4.744   0.689   9.759  0.2332  0.7311  2.1178
 2394TIP3    H231378   4.872   0.709   9.680 -1.7060 -0.7699 -1.6904
 2395TIP3   OH231379   5.767   1.659  12.185  0.0454 -0.3375  0.0103
 2395TIP3    H131380   5.769   1.653  12.090  0.3273  1.8979 -0.1759
 2395TIP3    H231381   5.851   1.699  12.208 -0.1947 -0.4574  1.1623
 2396TIP3   OH231382   4.917   1.688  10.398  0.3903  0.2234 -0.1794
 2396TIP3    H131383   4.824   1.667  10.410  0.7461 -1.1350  0.3580
 2396TIP3    H231384   4.918   1.751  10.326 -1.0481  1.2791  0.6482
 2397TIP3   OH231385   3.284   2.762  12.017  0.0728  0.2467  0.3591
 2397TIP3    H131386   3.251   2.714  11.941  1.0269 -1.1721  0.8050
 2397TIP3    H231387   3.212   2.761  12.080 -0.7355  1.4583 -0.5023
 2398TIP3   OH231388   5.003   1.505   9.821 -0.0679  0.1331 -0.3628
 2398TIP3    H131389   4.978   1.416   9.798  1.3343  0.3723 -3.2855
 2398TIP3    H231390   4.938   1.561   9.778 -1.0544  0.6211  1.5995
 2399TIP3   OH231391   4.473   0.787  11.775  0.2860 -0.8876  0.0128
 2399TIP3    H131392   4.441   0.807  11.863 -1.0412 -0.0426 -0.6255
 2399TIP3    H231393   4.538   0.854  11.757 -1.6574  0.9267 -0.7758
 2400TIP3   OH231394   1.858   4.399  11.740  0.0034 -0.0509 -0.1632
 2400TIP3    H131395   1.789   4.388  11.805 -0.2545  0.1055 -0.4089
 2400TIP3    H231396   1.829   4.347  11.665 -1.0723  1.9631 -1.2247
 2401TIP3   OH231397   2.709   1.983  11.506 -0.7428  0.2106  0.0303
 2401TIP3    H131398   2.731   1.981  11.599  0.2742  2.5218 -0.0917
 2401TIP3    H231399   2.711   1.892  11.478  0.0512 -0.4199  2.0237
 2402TIP3   OH231400   2.389   6.299   9.974  0.1796 -0.4622 -0.0279
 2402TIP3    H131401   2.422   6.323   9.888 -0.1138 -0.3134 -0.0995
 2402TIP3    H231402   2.303   6.342   9.980  1.0019  1.1332  1.0893
 2403TIP3   OH231403   4.269   0.875  11.572  0.2183  0.1819 -0.0665
 2403TIP3    H131404   4.194   0.864  11.631  0.5886 -1.6048  0.1443
 2403TIP3    H231405   4.345   0.857  11.627  0.5309 -2.5598 -1.2112
 2404TIP3   OH231406   6.667   0.032  11.907 -0.2792  0.0903  0.3316
 2404TIP3    H131407   6.601  -0.037  11.922  0.0022 -0.3883 -0.5847
 2404TIP3    H231408   6.743   0.003  11.957  0.6855 -1.5454 -1.9480
 2405TIP3   OH231409   0.688   2.969  10.553 -0.2653  0.0866  0.3657
 2405TIP3    H131410   0.779   2.954  10.529 -1.2898 -1.4560 -3.1241
 2405TIP3    H231411   0.673   3.062  10.532  0.2975  0.1557  0.2580
 2406TIP3   OH231412   1.546   2.818  12.235 -0.3660  0.3763  0.2944
 2406TIP3    H131413   1.513   2.897  12.192 -0.3758 -0.0366 -0.4858
 2406TIP3    H231414   1.616   2.849  12.293 -1.7327  1.1851  1.5539
 2407TIP3   OH231415   3.579   3.261   9.343 -0.1063 -1.0282 -0.0184
 2407TIP3    H131416   3.487   3.254   9.319 -0.4917  0.4489  0.9263
 2407TIP3    H231417   3.583   3.334   9.404  2.1833  1.1993 -2.5688
 2408TIP3   OH231418   6.405   6.447  11.346 -0.1426  0.0702 -0.1650
 2408TIP3    H131419   6.500   6.450  11.339  0.1108 -1.6940  1.7464
 2408TIP3    H231420   6.385   6.497  11.426 -0.7173 -0.4791  0.0449
 2409TIP3   OH231421   0.260   0.596   9.380 -0.0567 -0.2525 -0.1133
 2409TIP3    H131422   0.209   0.526   9.339 -0.3076  0.0892 -0.3917
 2409TIP3    H231423   0.343   0.596   9.333 -0.4972  0.4178 -0.9382
 2410TIP3   OH231424   1.005   4.922   9.138  0.1212 -0.5608  0.8292
 2410TIP3    H131425   0.958   4.973   9.073 -0.4032 -1.0908  0.7927
 2410TIP3    H231426   1.096   4.925   9.109 -0.3024 -2.1315 -0.8336
 2411TIP3   OH231427   2.712   5.081  11.166 -0.2102 -0.5400 -0.0319
 2411TIP3    H131428   2.768   5.045  11.235 -1.6985 -2.3073  0.3386
 2411TIP3    H231429   2.646   5.132  11.214 -0.1080 -0.1571 -0.2986
 2412TIP3   OH231430   5.841   4.325   8.807  0.3777 -0.2196  0.5438
 2412TIP3    H131431   5.806   4.237   8.790  0.0348  0.1579 -0.8848
 2412TIP3    H231432   5.931   4.310   8.835  1.3268 -0.9823 -2.5375
 2413TIP3   OH231433   5.246   0.869   8.380  0.0870  0.0256 -0.1443
 2413TIP3    H131434   5.317   0.873   8.444 -0.7078  2.0286  0.6717
 2413TIP3    H231435   5.172   0.911   8.423 -0.4126  1.6834 -2.4539
 2414TIP3   OH231436   6.156   4.503  11.756 -0.2834  0.1395 -0.2663
 2414TIP3    H131437   6.160   4.505  11.660  1.5933 -1.1898 -0.2727
 2414TIP3    H231438   6.143   4.594  11.781 -0.0007  0.6220 -1.7598
 2415TIP3   OH231439   4.632   6.382  12.065 -0.1658  0.1301  0.0941
 2415TIP3    H131440   4.654   6.303  12.017  0.7778 -0.7584  1.8908
 2415TIP3    H231441   4.550   6.361  12.110  0.1894  0.0825  0.7319
 2416TIP3   OH231442   5.883   6.312   9.642 -0.1918  0.2373 -0.2375
 2416TIP3    H131443   5.872   6.274   9.729  0.3676  1.4058  0.3527
 2416TIP3    H231444   5.959   6.267   9.606 -1.9609 -2.1981 -1.2415
 2417TIP3   OH231445   2.634   0.765  11.143 -0.3786  0.7589 -0.0670
 2417TIP3    H131446   2.676   0.772  11.229 -1.0467 -0.6780  0.4044
 2417TIP3    H231447   2.669   0.838  11.093 -0.7486  2.2376  1.7489
 2418TIP3   OH231448   5.605   0.562   9.661 -0.0519  0.8941 -0.3420
 2418TIP3    H131449   5.626   0.635   9.604 -0.2994  1.7168  0.5975
 2418TIP3    H231450   5.582   0.602   9.745  2.5821 -0.3402  1.0934
 2419TIP3   OH231451   5.645   4.116  10.142  0.3690 -0.4378 -0.0127
 2419TIP3    H131452   5.558   4.146  10.165  0.6063  0.8748 -0.7389
 2419TIP3    H231453   5.695   4.122  10.224  0.0332 -0.2456  0.1793
 2420TIP3   OH231454   4.096   2.693   9.535  0.0679 -0.6534 -0.2726
 2420TIP3    H131455   4.047   2.650   9.605  1.0490  0.3662  1.0857
 2420TIP3    H231456   4.177   2.721   9.576  1.4673 -1.5513 -2.2530
 2421TIP3   OH231457   2.448   3.170   9.040  0.4209  0.1590 -0.0620
 2421TIP3    H131458   2.376   3.144   8.982  0.1461 -0.4368  0.5428
 2421TIP3    H231459   2.487   3.088   9.069  1.4296  0.4744 -0.4731
 2422TIP3   OH231460   3.948   0.246   9.444 -0.5244  0.4704  0.5364
 2422TIP3    H131461   3.894   0.307   9.393  0.4038  1.5496  0.8001
 2422TIP3    H231462   3.889   0.174   9.465 -1.4044  0.8210 -0.5862
 2423TIP3   OH231463   1.752   5.068   8.988  0.7149 -0.5077  0.2873
 2423TIP3    H131464   1.822   5.021   8.942  2.0713 -0.1509  1.9109
 2423TIP3    H231465   1.757   5.157   8.954  1.5056 -0.3235  0.8551
 2424TIP3   OH231466   6.697   5.919   9.584 -0.5600  0.2503 -0.1649
 2424TIP3    H131467   6.771   5.916   9.645 -0.9737  0.5501  0.3469
 2424TIP3    H231468   6.684   5.827   9.559 -0.2624  0.1501  0.0346
 2425TIP3   OH231469   6.195   0.565  11.514  0.0538 -0.0215  0.4229
 2425TIP3    H131470   6.245   0.575  11.595  1.2630  3.4030 -0.5880
 2425TIP3    H231471   6.110   0.604  11.534  0.3556  0.8326  0.0827
 2426TIP3   OH231472   1.267   0.962  11.611  0.7935  0.2662  0.5361
 2426TIP3    H131473   1.210   1.016  11.557 -0.3694 -1.7547 -0.3670
 2426TIP3    H231474   1.325   0.918  11.548 -0.7909 -2.3744  0.7756
 2427TIP3   OH231475   6.193   0.207  12.055 -0.6398  0.0414 -0.1007
 2427TIP3    H131476   6.252   0.276  12.024  0.0356 -1.0068 -1.2682
 2427TIP3    H231477   6.108   0.229  12.017 -0.1646 -0.3800 -1.4654
 2428TIP3   OH231478   1.972   3.092  11.188  0.0423  0.3405 -0.7056
 2428TIP3    H131479   1.991   3.012  11.139 -0.7412  0.1342 -0.6722
 2428TIP3    H231480   1.914   3.142  11.130 -0.0777  0.5452 -0.4093
 2429TIP3   OH231481   4.038   4.074  12.105 -0.0761 -0.3618 -0.1503
 2429TIP3    H131482   4.012   4.007  12.041 -0.1295  0.1315 -0.6559
 2429TIP3    H231483   3.997   4.047  12.187 -0.6117 -0.6146 -0.4983
 2430TIP3   OH231484   2.741   2.481  11.507  0.4960 -0.3851  0.2003
 2430TIP3    H131485   2.685   2.404  11.496  1.1794 -1.0639  1.3010
 2430TIP3    H231486   2.816   2.450  11.557  0.2084  1.2412  1.7684
 2431TIP3   OH231487   0.373   2.598   8.694 -0.4988  0.2274 -0.5623
 2431TIP3    H131488   0.355   2.661   8.625 -1.2236 -0.8298 -1.3723
 2431TIP3    H231489   0.330   2.517   8.665 -1.1915 -0.1366  1.3345
 2432TIP3   OH231490   2.897   6.430   9.874  0.2017 -0.1221 -0.7168
 2432TIP3    H131491   2.879   6.391   9.960 -0.5485  0.6135 -0.5254
 2432TIP3    H231492   2.891   6.357   9.813  0.0061 -0.5219 -0.2295
 2433TIP3   OH231493   4.378   5.118   9.309 -0.2985 -0.3006 -0.3016
 2433TIP3    H131494   4.424   5.189   9.353 -2.6029  1.1605 -0.0724
 2433TIP3    H231495   4.373   5.146   9.217 -0.7079 -0.4388 -0.3220
 2434TIP3   OH231496   1.718   2.129   9.063  0.3016  0.6125  0.0801
 2434TIP3    H131497   1.799   2.150   9.018  1.3921 -1.5993  0.8464
 2434TIP3    H231498   1.683   2.213   9.093  1.7264  1.6987 -1.1889
 2435TIP3   OH231499   2.504   4.396  10.350 -0.3101  0.4387 -0.3877
 2435TIP3    H131500   2.475   4.480  10.314 -0.7459 -0.0876 -1.2997
 2435TIP3    H231501   2.434   4.370  10.409 -1.3321 -0.3800 -1.8778
 2436TIP3   OH231502   1.698   1.940  11.440 -0.3123  0.4143  0.3083
 2436TIP3    H131503   1.745   1.936  11.524  0.9290 -0.9284 -0.4191
 2436TIP3    H231504   1.690   1.849  11.413 -1.0761  0.8133 -0.8372
 2437TIP3   OH231505   4.190   4.959  10.456 -0.0503 -0.2504 -0.0907
 2437TIP3    H131506   4.106   4.923  10.486  1.4269 -2.2745  1.9746
 2437TIP3    H231507   4.202   5.039  10.508 -0.8195  0.2364 -0.6408
 2438TIP3   OH231508   5.466   0.738  12.318 -0.0160  0.6481 -0.2015
 2438TIP3    H131509   5.476   0.707  12.408  1.2042  0.7657 -0.2794
 2438TIP3    H231510   5.463   0.658  12.265  1.5647  0.6042 -0.2572
 2439TIP3   OH231511   0.191   4.754   8.676  0.1700  0.3821 -1.0196
 2439TIP3    H131512   0.283   4.779   8.665  0.4071 -0.0098 -0.0409
 2439TIP3    H231513   0.174   4.694   8.603  0.6557  0.5547 -1.2777
 2440TIP3   OH231514   2.343   0.755  11.020 -0.0890 -0.2283  0.6196
 2440TIP3    H131515   2.432   0.784  11.038 -0.0476 -0.3516  0.6147
 2440TIP3    H231516   2.353   0.670  10.976 -0.1728  0.3243 -0.4970
 2441TIP3   OH231517   2.139   4.750  10.417  0.5018  0.7165  0.2848
 2441TIP3    H131518   2.169   4.758  10.507 -0.2045 -1.3726  0.7787
 2441TIP3    H231519   2.048   4.719  10.425  0.3762  0.6451 -1.1332
 2442TIP3   OH231520   2.839   1.625  10.966  0.1511 -0.1010  0.2162
 2442TIP3    H131521   2.759   1.622  10.913  0.7491  0.6174 -0.7537
 2442TIP3    H231522   2.818   1.687  11.037 -0.3191 -0.3094  0.2626
 2443TIP3   OH231523   3.104   2.712  11.804 -0.3421  0.2993  0.1062
 2443TIP3    H131524   3.113   2.767  11.726  0.7698 -0.3711 -0.2569
 2443TIP3    H231525   3.023   2.742  11.844 -2.0213 -0.6437 -2.3407
 2444TIP3   OH231526   3.099   2.257  10.973 -0.6386 -0.2329 -0.3285
 2444TIP3    H131527   3.114   2.352  10.969 -0.5859 -0.1562  1.1020
 2444TIP3    H231528   3.004   2.247  10.975 -0.6862  0.0053  2.3260
 2445TIP3   OH231529   2.269   4.288  11.245 -0.7426  0.3785 -0.2802
 2445TIP3    H131530   2.358   4.314  11.219 -0.8868  0.4342 -0.7192
 2445TIP3    H231531   2.224   4.272  11.163 -1.3617  1.0644 -0.0764
 2446TIP3   OH231532   1.830   2.519  12.078  0.0960  0.3455  0.0464
 2446TIP3    H131533   1.840   2.604  12.119  1.1914  1.4776 -2.3594
 2446TIP3    H231534   1.911   2.472  12.099 -0.2817  0.0692  0.9304
 2447TIP3   OH231535   1.804   2.034   9.572  0.3707  0.2248 -0.1059
 2447TIP3    H131536   1.803   2.126   9.545 -1.5702 -0.0297 -1.1193
 2447TIP3    H231537   1.835   1.987   9.495  0.0218 -0.0707 -0.0706
 2448TIP3   OH231538   6.095   3.499   8.819  0.3941  0.4172 -0.1955
 2448TIP3    H131539   6.189   3.518   8.821  0.2796  1.1729 -1.1619
 2448TIP3    H231540   6.077   3.476   8.728 -0.4304  0.6648 -0.1053
 2449TIP3   OH231541   4.420   2.865  11.838 -0.1530  0.4231 -0.1795
 2449TIP3    H131542   4.385   2.793  11.890  0.0511  1.4987  1.5617
 2449TIP3    H231543   4.409   2.838  11.747 -1.2118 -1.2476  0.4048
 2450TIP3   OH231544   0.851   4.531  10.311  0.1130 -0.4679 -0.0725
 2450TIP3    H131545   0.932   4.480  10.301 -0.0902 -0.9364  0.5954
 2450TIP3    H231546   0.876   4.620  10.286  0.9893 -0.4877  0.6500
 2451TIP3   OH231547   2.835   3.307  11.673  0.3282 -0.0013  0.2476
 2451TIP3    H131548   2.815   3.333  11.583 -1.7725  0.3374  0.7564
 2451TIP3    H231549   2.926   3.278  11.670  0.7024  1.1751 -1.7200
 2452TIP3   OH231550   4.455   3.944  10.548  0.4277 -0.6321 -0.1151
 2452TIP3    H131551   4.537   3.992  10.556  0.7258 -0.9137 -1.3362
 2452TIP3    H231552   4.417   3.973  10.465 -1.4955  0.6533  1.1259
 2453TIP3   OH231553   1.532   0.533  10.950 -0.8165 -0.5218  0.6470
 2453TIP3    H131554   1.441   0.561  10.950 -0.7275 -0.2209  1.1775
 2453TIP3    H231555   1.529   0.440  10.928 -1.1418 -0.2102 -0.6902
 2454TIP3   OH231556   0.479   5.788  11.743  0.1583 -0.0621 -0.7765
 2454TIP3    H131557   0.530   5.778  11.824  0.0310 -0.8110 -0.7835
 2454TIP3    H231558   0.533   5.746  11.676  0.4311  0.8693 -1.1669
 2455TIP3   OH231559   5.740   5.915  11.490  0.1064  0.5995  0.7347
 2455TIP3    H131560   5.755   5.857  11.565  2.1580  0.8918  0.6060
 2455TIP3    H231561   5.719   5.999  11.530 -2.3843 -0.0377  0.9229
 2456TIP3   OH231562   3.266   4.754  10.127 -0.2875  0.7747 -0.0815
 2456TIP3    H131563   3.336   4.689  10.123 -1.7869 -0.9883  0.6179
 2456TIP3    H231564   3.309   4.838  10.112  2.1230 -0.1261  1.2528
 2457TIP3   OH231565   4.080   6.168  10.110 -0.0270 -0.2232 -0.1894
 2457TIP3    H131566   4.151   6.152  10.172 -1.0021 -2.9890  0.3370
 2457TIP3    H231567   4.123   6.175  10.025  0.9306 -1.6698  0.1385
 2458TIP3   OH231568   6.516   3.992  11.255 -0.1470 -0.4385 -0.0468
 2458TIP3    H131569   6.460   3.918  11.230 -1.5745  0.6704 -0.2477
 2458TIP3    H231570   6.490   4.062  11.196 -0.2046  0.8200  1.4270
 2459TIP3   OH231571   3.796   0.404   9.267  0.3594 -0.8933 -0.0586
 2459TIP3    H131572   3.836   0.488   9.246  0.1963 -1.2257 -1.9218
 2459TIP3    H231573   3.792   0.358   9.183 -1.0553 -2.1110  0.6263
 2460TIP3   OH231574   4.566   6.537  11.848  0.3368 -0.3522 -0.2126
 2460TIP3    H131575   4.652   6.567  11.817 -0.0738  0.6753 -0.4077
 2460TIP3    H231576   4.583   6.501  11.934  1.2921 -2.0485 -1.0553
 2461TIP3   OH231577   5.512   6.445  11.502 -0.1501  0.3657  0.0451
 2461TIP3    H131578   5.458   6.435  11.423 -1.0035 -0.8510  0.7411
 2461TIP3    H231579   5.528   6.355  11.531  3.5753  0.5553 -0.9576
 2462TIP3   OH231580   2.074   6.497  10.454 -0.1002  0.0415  0.4019
 2462TIP3    H131581   2.159   6.470  10.418  1.2533  2.4479  1.5494
 2462TIP3    H231582   2.018   6.509  10.377  1.0069 -0.2915 -0.4817
 2463TIP3   OH231583   6.333   4.524   9.630 -0.3681 -0.3095 -0.3963
 2463TIP3    H131584   6.427   4.532   9.617 -0.4343  0.6649 -0.3937
 2463TIP3    H231585   6.296   4.539   9.542 -0.5002 -1.3392 -0.5278
 2464TIP3   OH231586   5.100   3.130   8.769  0.1617 -0.1129 -0.1896
 2464TIP3    H131587   5.153   3.164   8.697  0.9700  0.9204  0.8618
 2464TIP3    H231588   5.091   3.203   8.829  1.6114 -1.5953  1.9721
 2465TIP3   OH231589   0.917   1.180  10.519  0.3321  0.6637 -0.4841
 2465TIP3    H131590   0.916   1.088  10.492  0.7113  0.9774 -1.6393
 2465TIP3    H231591   0.958   1.226  10.446  1.4154  1.5803  0.6423
 2466TIP3   OH231592   0.321   4.513   9.111 -0.1421  0.2715 -0.4185
 2466TIP3    H131593   0.304   4.491   9.203  1.2219 -0.3688 -0.3076
 2466TIP3    H231594   0.384   4.585   9.116 -0.5401  0.6555 -0.8592
 2467TIP3   OH231595   6.477   2.458  10.131  0.1473  0.4568 -0.0785
 2467TIP3    H131596   6.401   2.498  10.090  1.2791  0.3904 -2.3822
 2467TIP3    H231597   6.527   2.421  10.058  2.3622  0.4468  1.3532
 2468TIP3   OH231598   4.694   6.647  10.948 -0.7458 -0.2061  0.1667
 2468TIP3    H131599   4.630   6.582  10.976 -0.9420 -0.0089  0.1868
 2468TIP3    H231600   4.642   6.713  10.902 -0.9960  1.2975  2.3916
 2469TIP3   OH231601   2.798   5.154  10.904  0.2501  0.1896  0.3549
 2469TIP3    H131602   2.744   5.212  10.851  2.9431  2.0548 -0.5158
 2469TIP3    H231603   2.745   5.137  10.982 -1.4229  2.2323 -0.2486
 2470TIP3   OH231604   5.871   1.519  10.664  0.7382  0.0203  0.6457
 2470TIP3    H131605   5.831   1.596  10.623  1.5379 -0.1336 -0.4648
 2470TIP3    H231606   5.799   1.456  10.669  0.9246 -0.5198 -2.0059
 2471TIP3   OH231607   4.298   4.014   8.511 -0.2360 -0.2360  0.0252
 2471TIP3    H131608   4.354   4.019   8.589 -3.9239  1.8348  2.9197
 2471TIP3    H231609   4.340   4.072   8.448  1.5410  0.1587  1.4719
 2472TIP3   OH231610   5.386   0.953  11.546  0.0515  0.3446 -0.0350
 2472TIP3    H131611   5.292   0.935  11.559  0.0160 -0.1988 -0.9036
 2472TIP3    H231612   5.426   0.866  11.539  0.9764  0.5042  2.4236
 2473TIP3   OH231613   2.463   1.771  10.024  0.3066 -0.4017  0.1518
 2473TIP3    H131614   2.386   1.715  10.011 -1.5175  2.0175 -0.2353
 2473TIP3    H231615   2.467   1.785  10.118 -0.5820  0.5407  0.0622
 2474TIP3   OH231616   1.312   0.024  10.880 -0.0857  0.2683  0.0759
 2474TIP3    H131617   1.332   0.037  10.973 -1.0624 -0.7041  0.4464
 2474TIP3    H231618   1.320  -0.071  10.868 -0.1257  0.3725 -0.8023
 2475TIP3   OH231619   0.671   3.825  11.448  0.6831 -0.2352  0.3251
 2475TIP3    H131620   0.732   3.811  11.521  1.3727 -0.3929 -0.2637
 2475TIP3    H231621   0.630   3.740  11.435 -0.1186  0.0172  1.1078
 2476TIP3   OH231622   4.921   1.261   9.741 -0.3249  0.5084  0.0241
 2476TIP3    H131623   4.830   1.276   9.716 -0.3077  0.9868  0.2583
 2476TIP3    H231624   4.917   1.186   9.801 -0.5608  0.5156  0.0187
 2477TIP3   OH231625   2.966   5.972   9.394  0.0983 -0.2440  0.2561
 2477TIP3    H131626   2.915   5.959   9.314  0.6871  1.1659 -0.3806
 2477TIP3    H231627   3.015   6.053   9.378  0.4914 -0.1282  1.9137
 2478TIP3   OH231628   1.780   4.652  12.377  0.2484  0.0419 -0.4628
 2478TIP3    H131629   1.760   4.739  12.411  0.0103  0.2621 -1.1630
 2478TIP3    H231630   1.865   4.662  12.333 -0.8941  0.5198 -2.6802
 2479TIP3   OH231631   6.421   2.676   8.982 -0.4204 -0.1267  0.0524
 2479TIP3    H131632   6.456   2.702   8.897 -0.4765  0.9426  0.3332
 2479TIP3    H231633   6.338   2.632   8.962  0.9202 -2.5130 -0.6112
 2480TIP3   OH231634   5.883   5.211   8.973 -0.4085  0.2200 -0.1335
 2480TIP3    H131635   5.875   5.147   8.902  0.5486  0.7815 -0.7739
 2480TIP3    H231636   5.802   5.262   8.968 -0.6280 -0.1454 -0.4184
 2481TIP3   OH231637   0.849   0.535  12.068 -0.2806  0.1754 -0.2460
 2481TIP3    H131638   0.862   0.620  12.109  0.7452 -0.0766 -0.0290
 2481TIP3    H231639   0.908   0.534  11.993  1.2632 -1.0989  0.9155
 2482TIP3   OH231640   6.670   3.490   9.713 -0.0288 -0.5906  0.3844
 2482TIP3    H131641   6.702   3.422   9.772 -0.1974 -0.5552  0.5173
 2482TIP3    H231642   6.743   3.552   9.707  0.0017 -0.6109  0.5289
 2483TIP3   OH231643   4.786   0.690  11.497 -0.6839 -0.2244 -0.0068
 2483TIP3    H131644   4.806   0.767  11.550  0.5876 -0.8374  0.4742
 2483TIP3    H231645   4.754   0.725  11.414  0.2805  0.8415  0.0397
 2484TIP3   OH231646   0.490   3.205  10.494 -0.9004 -0.2388 -0.4329
 2484TIP3    H131647   0.440   3.123  10.495  1.4630 -1.8068 -1.8260
 2484TIP3    H231648   0.423   3.273  10.485 -2.9521 -1.9633  0.7072
 2485TIP3   OH231649   5.437   4.301   9.868  0.2394  0.2259  0.3188
 2485TIP3    H131650   5.492   4.379   9.880  0.0168  0.5867 -0.8527
 2485TIP3    H231651   5.361   4.317   9.925  1.1567 -0.1303  1.7011
 2486TIP3   OH231652   2.132   5.337   9.986  0.4720  0.0566  0.3099
 2486TIP3    H131653   2.162   5.246   9.987  1.0796  0.2488  1.0868
 2486TIP3    H231654   2.092   5.349   9.900  1.0785 -0.7203 -0.0902
 2487TIP3   OH231655   4.341   2.241  10.986 -0.5128 -0.0434  0.0221
 2487TIP3    H131656   4.289   2.204  10.915  0.9660  0.6956 -1.5201
 2487TIP3    H231657   4.349   2.334  10.964  1.0023 -0.0411  0.4879
 2488TIP3   OH231658   1.852   1.119   9.961  0.3240 -0.1820  0.0400
 2488TIP3    H131659   1.905   1.076  10.029 -0.1728 -0.5824  0.1844
 2488TIP3    H231660   1.842   1.052   9.893  0.4054  0.0533 -0.2028
 2489TIP3   OH231661   5.398   1.730  10.429 -0.3332  0.2805 -0.1545
 2489TIP3    H131662   5.339   1.659  10.404 -0.9985  0.2357  1.4129
 2489TIP3    H231663   5.344   1.789  10.482  0.7418  0.8316  0.3680
 2490TIP3   OH231664   0.230   1.555  11.638  0.0790 -0.0750  0.2057
 2490TIP3    H131665   0.142   1.516  11.637 -0.4200  1.0222 -1.0080
 2490TIP3    H231666   0.288   1.480  11.653 -0.9478 -1.1006 -0.6661
 2491TIP3   OH231667   5.732   3.448   9.897 -0.1350 -0.1474  0.4838
 2491TIP3    H131668   5.818   3.470   9.861  0.2039  2.3860  2.5724
 2491TIP3    H231669   5.687   3.403   9.825  2.0944  0.5031 -1.4382
 2492TIP3   OH231670   3.930   4.652  10.741  0.1549 -0.2185  0.0989
 2492TIP3    H131671   3.913   4.565  10.777  3.9349 -1.7975 -1.4084
 2492TIP3    H231672   3.985   4.636  10.664 -1.5376  3.3760 -2.1383
 2493TIP3   OH231673   3.723   3.557   9.876 -0.4122  0.1355  0.3185
 2493TIP3    H131674   3.772   3.550   9.958 -1.1448 -0.6352  0.7178
 2493TIP3    H231675   3.763   3.492   9.818  0.2298  0.8140 -0.0145
 2494TIP3   OH231676   5.322   1.918  10.049 -0.2992  0.4276  0.4013
 2494TIP3    H131677   5.240   1.966  10.042 -1.3583 -1.2511  0.6974
 2494TIP3    H231678   5.298   1.826  10.035  1.1310 -0.3880  2.5925
 2495TIP3   OH231679   2.798   2.517   9.892  0.0849 -0.0267  0.4851
 2495TIP3    H131680   2.784   2.422   9.894 -0.8970  0.1081  1.5449
 2495TIP3    H231681   2.836   2.534   9.806  0.0912 -1.3581  0.1968
 2496TIP3   OH231682   4.884   5.271  11.503  0.4356 -0.1810  0.6573
 2496TIP3    H131683   4.904   5.178  11.508 -0.9686 -0.5530  0.0697
 2496TIP3    H231684   4.957   5.310  11.455  0.5996 -1.1375  0.1199
 2497TIP3   OH231685   6.098   4.515  10.211  0.0416 -0.6180  0.2391
 2497TIP3    H131686   6.171   4.575  10.196 -0.3739  0.1179  1.0875
 2497TIP3    H231687   6.113   4.443  10.150 -0.5931  1.3166 -2.3631
 2498TIP3   OH231688   6.261   1.544  11.232  0.7540  0.2776 -0.1934
 2498TIP3    H131689   6.215   1.466  11.264  2.6275 -0.0203  1.9877
 2498TIP3    H231690   6.338   1.510  11.187  0.5886  0.8428 -0.9239
 2499TIP3   OH231691   5.790   1.059  10.477  0.2398  0.1751  0.0312
 2499TIP3    H131692   5.808   0.976  10.434  0.3452 -0.2496  0.8963
 2499TIP3    H231693   5.798   1.041  10.570  1.6168  1.4707  0.1985
 2500TIP3   OH231694   6.415   5.223  10.964  0.2585  0.0536 -0.0937
 2500TIP3    H131695   6.452   5.213  10.876  2.0370 -0.3550  0.6654
 2500TIP3    H231696   6.369   5.140  10.980  0.3750 -0.0802 -0.4398
 2501TIP3   OH231697   3.182   3.247  10.123  0.3286  0.2454  0.1756
 2501TIP3    H131698   3.168   3.332  10.079 -0.2358  0.1235  0.1097
 2501TIP3    H231699   3.133   3.185  10.069 -0.8348  0.1742  1.2714
 2502TIP3   OH231700   2.357   2.082   9.980  0.0011  0.2187 -0.4655
 2502TIP3    H131701   2.417   2.085  10.054 -0.3348 -0.4635 -0.1496
 2502TIP3    H231702   2.375   1.997   9.939 -2.2447 -1.0489  0.9530
 2503TIP3   OH231703   5.662   2.449  11.778 -0.5147  0.0078  0.2000
 2503TIP3    H131704   5.722   2.398  11.724 -0.1676  0.5116  0.0994
 2503TIP3    H231705   5.576   2.432  11.740 -0.2503  0.5664 -0.7007
 2504TIP3   OH231706   1.993   4.981  10.711  0.2519  0.3449 -0.2466
 2504TIP3    H131707   2.063   5.031  10.668  1.2449 -0.3646  0.4932
 2504TIP3    H231708   1.933   4.959  10.640  0.9100  0.7445 -0.9494
 2505TIP3   OH231709   0.619   1.732   8.462  0.2207  0.2020 -0.5285
 2505TIP3    H131710   0.615   1.764   8.372  2.9749  2.0155 -0.1417
 2505TIP3    H231711   0.572   1.797   8.513  1.8605  1.2832 -0.2986
 2506TIP3   OH231712   5.815   5.056   9.260  0.3153 -0.3030 -0.0767
 2506TIP3    H131713   5.832   5.134   9.207  1.1992  0.9588  1.9617
 2506TIP3    H231714   5.881   4.993   9.230  1.3124  0.6600  0.0119
 2507TIP3   OH231715   0.260   2.438  10.670 -0.4569  0.4676  0.5489
 2507TIP3    H131716   0.229   2.499  10.737  0.3798  0.4688  0.9597
 2507TIP3    H231717   0.183   2.418  10.617 -1.3030 -0.0620  1.9251
 2508TIP3   OH231718   6.203   5.389  10.352 -0.6664 -0.0194  0.0193
 2508TIP3    H131719   6.113   5.395  10.321 -0.4436  1.8577 -0.3828
 2508TIP3    H231720   6.256   5.419  10.278  0.2325 -0.2646  0.5473
 2509TIP3   OH231721   1.959   3.552  10.918 -0.2671 -0.0661 -0.0035
 2509TIP3    H131722   1.994   3.539  11.006  0.6065 -0.0629 -0.3384
 2509TIP3    H231723   2.036   3.553  10.861 -0.5380  2.8353 -0.4785
 2510TIP3   OH231724   4.797   3.387  11.188 -0.1404  0.9094  0.2835
 2510TIP3    H131725   4.889   3.409  11.204  0.4854 -1.5361  0.4349
 2510TIP3    H231726   4.775   3.433  11.107  2.1108 -0.6585 -1.3119
 2511TIP3   OH231727   4.584   5.547  10.180  0.3335  0.3457  0.2956
 2511TIP3    H131728   4.662   5.534  10.126 -0.3285 -1.1725 -0.3521
 2511TIP3    H231729   4.514   5.501  10.133 -0.5624  0.1342  1.7669
 2512TIP3   OH231730   3.053   0.958  10.947 -0.5219 -0.0798  0.1395
 2512TIP3    H131731   3.011   0.934  10.864 -0.2623 -2.2797  0.5812
 2512TIP3    H231732   3.061   0.876  10.994  1.2803  0.7845  1.4646
 2513TIP3   OH231733   1.959   4.374  10.069 -0.4753  0.3993  0.0700
 2513TIP3    H131734   1.990   4.459  10.038 -0.5416  0.3667 -0.0857
 2513TIP3    H231735   2.036   4.334  10.110 -0.3667  0.4105 -0.1205
 2514TIP3   OH231736   5.290   0.880  10.834 -0.3766 -0.2609 -0.1574
 2514TIP3    H131737   5.223   0.948  10.843  0.0416 -0.0254  1.3305
 2514TIP3    H231738   5.254   0.804  10.881  0.2406 -0.2431  0.3545
 2515TIP3   OH231739   6.351   5.969  11.105 -0.3137 -0.0408 -0.0778
 2515TIP3    H131740   6.445   5.954  11.120 -0.1050  0.3738 -0.9154
 2515TIP3    H231741   6.326   5.901  11.042 -0.7681 -0.6478  0.7385
 2516TIP3   OH231742   0.953   3.056  11.107  0.2673 -0.6818  0.0563
 2516TIP3    H131743   0.907   3.117  11.050  0.7713  0.4601  0.8349
 2516TIP3    H231744   0.984   2.987  11.048  0.5239  0.3061 -1.0158
 2517TIP3   OH231745   2.882   6.386  10.969  0.0290  0.0634  0.5129
 2517TIP3    H131746   2.888   6.475  10.934  1.1826  0.5679  1.8733
 2517TIP3    H231747   2.808   6.347  10.923 -1.4731  2.2126  0.9440
 2518TIP3   OH231748   4.069   5.153  11.885  0.0906 -0.7635  0.2585
 2518TIP3    H131749   3.977   5.152  11.914 -0.1156  0.5051 -0.2635
 2518TIP3    H231750   4.119   5.169  11.966 -0.3981  1.6202  0.1574
 2519TIP3   OH231751   1.860   2.257  11.619 -0.0737  0.0144 -0.4501
 2519TIP3    H131752   1.782   2.228  11.572  0.0828 -3.2567  1.0447
 2519TIP3    H231753   1.864   2.351  11.602 -2.9170 -0.1057 -2.5903
 2520TIP3   OH231754   6.393   4.870  11.593 -0.0907 -0.3463 -0.0364
 2520TIP3    H131755   6.385   4.853  11.499  0.5985  0.9794 -0.3600
 2520TIP3    H231756   6.474   4.825  11.619  0.5799  0.6127 -0.4304
 2521TIP3   OH231757   2.214   4.536  10.091 -0.4235  0.0219 -0.1030
 2521TIP3    H131758   2.188   4.556  10.181 -0.1484 -1.4187  0.3241
 2521TIP3    H231759   2.308   4.521  10.096 -0.4792 -0.5299 -0.5315
 2522TIP3   OH231760   4.817   3.591  11.739 -0.2023 -0.0125  0.1168
 2522TIP3    H131761   4.895   3.640  11.711 -0.8308 -0.0469 -1.8131
 2522TIP3    H231762   4.815   3.602  11.834  0.3252  2.7576 -0.1115
 2523TIP3   OH231763   4.386   5.085  11.868 -0.4316  0.4956 -0.1067
 2523TIP3    H131764   4.332   5.040  11.802  0.0700 -0.9997  0.4520
 2523TIP3    H231765   4.381   5.029  11.945  0.3858  1.3324  0.5754
 2524TIP3   OH231766   2.219   0.899  12.024  0.0242 -0.4603  0.4724
 2524TIP3    H131767   2.243   0.809  12.000 -2.4114 -1.3169  0.9449
 2524TIP3    H231768   2.145   0.889  12.084 -0.7458  1.8668  0.0261
 2525TIP3   OH231769   1.160   5.134   9.485  0.3373 -0.3339 -0.1292
 2525TIP3    H131770   1.241   5.100   9.523  1.2305 -0.5968 -2.1686
 2525TIP3    H231771   1.171   5.229   9.484 -1.1995  0.0732  3.4073
 2526TIP3   OH231772   4.580   2.827  10.717  0.0147  0.4811  0.3979
 2526TIP3    H131773   4.558   2.883  10.643 -0.2442  0.9643  0.8338
 2526TIP3    H231774   4.508   2.838  10.778 -0.0562 -0.3703  0.4704
 2527TIP3   OH231775   0.489   0.866  11.401  0.5364 -0.3344  0.4097
 2527TIP3    H131776   0.468   0.943  11.453  1.0047  0.1162 -0.0679
 2527TIP3    H231777   0.448   0.882  11.316 -0.7416 -1.3360  0.7977
 2528TIP3   OH231778   5.005   3.477  10.793 -0.8772 -0.5741  0.2047
 2528TIP3    H131779   5.091   3.493  10.753 -1.4428  0.9150 -0.4723
 2528TIP3    H231780   5.017   3.396  10.844  1.3901  0.4780  1.4830
 2529TIP3   OH231781   0.501   0.360   9.553  0.0443  0.2352 -0.0789
 2529TIP3    H131782   0.526   0.451   9.564  0.1558  0.0185  1.9228
 2529TIP3    H231783   0.424   0.349   9.608  0.2027 -0.9423 -0.0528
 2530TIP3   OH231784   0.358   5.113  12.186 -0.3242 -0.0771  0.2385
 2530TIP3    H131785   0.431   5.076  12.135  0.9978 -0.6211  2.3943
 2530TIP3    H231786   0.365   5.207  12.172 -1.3683 -0.2799 -2.2664
 2531TIP3   OH231787   3.008   6.271  10.498  0.3235  0.4065  0.2876
 2531TIP3    H131788   3.013   6.218  10.419  0.6560  0.1600  0.4732
 2531TIP3    H231789   2.979   6.357  10.467  0.6093  0.3589 -0.1219
 2532TIP3   OH231790   6.003   1.496  11.030  0.6740  0.4108 -0.5111
 2532TIP3    H131791   6.018   1.487  11.124  0.2542 -1.5022 -0.5746
 2532TIP3    H231792   6.013   1.589  11.012  1.5710  0.6975  1.2857
 2533TIP3   OH231793   2.489   5.821  10.068 -0.0121  0.4673 -0.0650
 2533TIP3    H131794   2.581   5.833  10.089 -0.0453  1.5499 -0.4506
 2533TIP3    H231795   2.488   5.798   9.975 -0.0677 -0.9210  0.2530
 2534TIP3   OH231796   5.607   4.196  12.096  0.6022  0.3022 -0.2187
 2534TIP3    H131797   5.682   4.139  12.078 -0.3685 -0.9568 -0.4269
 2534TIP3    H231798   5.536   4.159  12.043 -0.7920  0.0551  1.7246
 2535TIP3   OH231799   4.403   2.482  10.875  0.5574  0.1597 -0.2629
 2535TIP3    H131800   4.484   2.531  10.891  0.5864  0.5506 -1.5438
 2535TIP3    H231801   4.384   2.495  10.782 -1.1868  0.3861  0.0850
 2536TIP3   OH231802   1.542   3.750  10.401  0.3520 -0.0349 -0.6468
 2536TIP3    H131803   1.463   3.754  10.347  1.6933 -0.6118 -2.7788
 2536TIP3    H231804   1.563   3.657  10.406  0.3964  0.0268  0.7400
 2537TIP3   OH231805   6.060   3.727  11.842  0.4298  0.3229 -0.3686
 2537TIP3    H131806   5.996   3.657  11.859 -0.1847  0.9468 -0.0969
 2537TIP3    H231807   6.008   3.807  11.836  1.3745  1.2858  2.4831
 2538TIP3   OH231808   5.548   6.114  10.827 -0.6092 -0.1301 -0.4864
 2538TIP3    H131809   5.516   6.092  10.739 -0.7219 -2.2765  0.0485
 2538TIP3    H231810   5.626   6.060  10.839 -0.3363  0.4764  0.5819
 2539TIP3   OH231811   4.943   6.535  10.903 -0.5920  0.1469 -0.1155
 2539TIP3    H131812   4.851   6.542  10.928 -0.6553 -3.1840  1.1954
 2539TIP3    H231813   4.990   6.583  10.970 -1.2127 -2.4067  2.3394
 2540TIP3   OH231814   6.612   2.918  11.710 -0.2874 -0.0784  0.2912
 2540TIP3    H131815   6.688   2.917  11.651 -0.4135 -0.9396  0.1351
 2540TIP3    H231816   6.555   2.849  11.677 -0.2422 -0.7523  1.5605
 2541TIP3   OH231817   0.044   1.306   8.589  1.0485 -0.0099 -0.1257
 2541TIP3    H131818   0.003   1.222   8.569 -1.3625  1.1776 -0.5376
 2541TIP3    H231819   0.138   1.289   8.582  0.6526 -2.6669 -0.0958
 2542TIP3   OH231820   4.560   5.226  11.085  0.3067  0.3052  0.7756
 2542TIP3    H131821   4.603   5.233  11.169  0.6652 -3.8987  1.1289
 2542TIP3    H231822   4.511   5.308  11.076  2.8431  2.2949  3.4658
 2543TIP3   OH231823   4.248   5.375  10.723 -0.3627  0.3238 -0.7371
 2543TIP3    H131824   4.248   5.282  10.704 -0.6949 -0.1567  1.3537
 2543TIP3    H231825   4.166   5.391  10.769 -1.0567  2.0010 -2.4068
 2544TIP3   OH231826   2.293   2.255   9.103  0.2360 -0.2779 -0.8179
 2544TIP3    H131827   2.252   2.294   9.026 -1.1258 -0.8268 -0.4028
 2544TIP3    H231828   2.318   2.167   9.075 -1.1120 -0.8191 -0.4010
 2545TIP3   OH231829   3.252   2.642   9.523 -0.4459  0.8254  0.0798
 2545TIP3    H131830   3.206   2.648   9.439 -0.5055  1.9942  0.1809
 2545TIP3    H231831   3.336   2.601   9.501 -1.0287 -0.1652 -0.3113
 2546TIP3   OH231832   6.280   4.694  12.068 -0.2108  0.3308 -0.0923
 2546TIP3    H131833   6.352   4.644  12.029 -0.7021 -0.1554 -0.3762
 2546TIP3    H231834   6.286   4.675  12.162 -0.7805 -0.7705 -0.2661
 2547TIP3   OH231835   3.064   5.357  10.899  0.5469 -0.0075  0.4716
 2547TIP3    H131836   3.156   5.384  10.897  0.5672 -0.1044  0.1374
 2547TIP3    H231837   3.064   5.275  10.948  0.7860 -0.5801 -0.4613
 2548TIP3   OH231838   6.511   5.619   8.970  0.2121 -0.2273 -0.4137
 2548TIP3    H131839   6.474   5.690   8.918 -0.2877 -1.1827 -1.3994
 2548TIP3    H231840   6.605   5.635   8.969  0.2388 -0.3699 -1.8482
 2549TIP3   OH231841   4.681   3.845  11.885 -0.3515 -0.2569  0.6784
 2549TIP3    H131842   4.754   3.877  11.939  0.9612 -0.7243 -0.7524
 2549TIP3    H231843   4.681   3.902  11.809 -1.1166 -0.6334  0.3914
 2550TIP3   OH231844   0.993   3.716   9.834 -0.2478  0.0719 -0.1966
 2550TIP3    H131845   1.053   3.642   9.845  0.2256  0.3499 -0.8446
 2550TIP3    H231846   1.001   3.740   9.742 -0.6300  0.7365 -0.0631
 2551TIP3   OH231847   3.309   4.471  11.517 -0.1368  0.0241 -0.3192
 2551TIP3    H131848   3.370   4.545  11.514  1.2982 -1.1400 -1.0651
 2551TIP3    H231849   3.272   4.468  11.429 -1.8875  1.1780  0.3362
 2552TIP3   OH231850   5.096   1.497   8.666  0.3592 -0.3058 -0.2356
 2552TIP3    H131851   5.107   1.472   8.574  0.7474 -1.4095  0.0953
 2552TIP3    H231852   5.020   1.556   8.665 -1.8039 -2.8946 -0.8744
 2553TIP3   OH231853   2.719   2.222  10.717 -0.0327 -0.3471 -0.2289
 2553TIP3    H131854   2.804   2.205  10.677  0.5263  1.0955  0.2941
 2553TIP3    H231855   2.737   2.281  10.790 -1.1584 -2.1169  1.6012
 2554TIP3   OH231856   6.485   6.421   9.370  0.1169  0.6690 -0.6873
 2554TIP3    H131857   6.480   6.451   9.461 -1.2024 -0.4631 -0.3454
 2554TIP3    H231858   6.523   6.334   9.376  0.6696  0.8657 -1.2980
 2555TIP3   OH231859   6.639   3.535  11.988 -0.7200  0.1835  0.0774
 2555TIP3    H131860   6.551   3.498  11.976 -0.9090 -0.7221  3.3823
 2555TIP3    H231861   6.623   3.619  12.031 -0.0078 -0.8575  2.5301
 2556TIP3   OH231862   0.903   6.500   9.091  0.2161 -0.8699  0.2921
 2556TIP3    H131863   0.851   6.473   9.014 -1.7823  1.7007  0.5933
 2556TIP3    H231864   0.944   6.582   9.064  0.7491 -0.7255  1.4925
 2557TIP3   OH231865   3.813   5.782   9.470  0.0612 -0.3266  0.6045
 2557TIP3    H131866   3.884   5.735   9.427  1.0938  0.7340  1.0841
 2557TIP3    H231867   3.741   5.720   9.473  0.4509 -0.9200 -1.2777
 2558TIP3   OH231868   5.205   1.990   8.856  0.4569 -0.4663 -0.0034
 2558TIP3    H131869   5.149   1.912   8.851  0.2317 -0.2517 -1.1433
 2558TIP3    H231870   5.165   2.051   8.794  1.1069  0.2482  0.2739
 2559TIP3   OH231871   2.833   1.069   9.126 -0.1885 -0.3463 -0.2554
 2559TIP3    H131872   2.810   1.083   9.034 -0.9977 -0.7690 -0.1189
 2559TIP3    H231873   2.905   1.131   9.141 -0.4439  0.1532 -1.0063
 2560TIP3   OH231874   0.380   0.826  10.868 -0.1769  0.0007 -0.5554
 2560TIP3    H131875   0.330   0.841  10.787  0.1810  0.8849 -0.6220
 2560TIP3    H231876   0.472   0.839  10.842 -0.2317  4.9080  0.8822
 2561TIP3   OH231877   0.770   1.117  10.727  0.5004 -0.5631 -0.0035
 2561TIP3    H131878   0.818   1.146  10.805 -0.1182 -0.1789  0.2509
 2561TIP3    H231879   0.826   1.140  10.654  0.1985  0.9915  0.2177
 2562TIP3   OH231880   6.475   5.409   8.098  0.4238  0.4103 -0.2840
 2562TIP3    H131881   6.537   5.459   8.152 -0.6127  0.8074  0.5799
 2562TIP3    H231882   6.527   5.337   8.063  1.2093  0.3118  1.0140
 2563TIP3   OH231883   5.291   6.423  11.769 -0.0373 -0.8872  0.1570
 2563TIP3    H131884   5.380   6.408  11.739 -0.0097 -0.9674  0.2811
 2563TIP3    H231885   5.259   6.336  11.795 -0.6514 -1.1244 -1.2648
 2564TIP3   OH231886   1.340   3.268  11.163 -0.2537 -0.0447 -0.0020
 2564TIP3    H131887   1.275   3.294  11.229  0.1256  0.3485  0.2169
 2564TIP3    H231888   1.354   3.347  11.111  0.1333 -0.1016  0.0179
 2565TIP3   OH231889   2.639   2.700  11.678  0.2659  0.0835 -0.0477
 2565TIP3    H131890   2.556   2.726  11.638  0.2843  0.6950  0.3019
 2565TIP3    H231891   2.673   2.631  11.620 -0.1062  0.3720 -0.6203
 2566TIP3   OH231892   5.265   1.818  11.951 -0.1997  0.1428 -0.1302
 2566TIP3    H131893   5.260   1.912  11.938  0.2994  0.2057  0.1058
 2566TIP3    H231894   5.359   1.799  11.950 -0.1997 -0.0992  1.5492
 2567TIP3   OH231895   5.889   4.075   9.318 -0.2694 -0.5941  0.5157
 2567TIP3    H131896   5.980   4.069   9.345 -0.3640 -1.1613  0.7238
 2567TIP3    H231897   5.876   3.999   9.260 -0.0501  0.6090 -1.2014
 2568TIP3   OH231898   1.359   4.067  10.097  0.3462 -0.2550  0.7214
 2568TIP3    H131899   1.432   4.076  10.159 -0.8589 -1.6338  2.4257
 2568TIP3    H231900   1.386   4.119  10.021  1.5078  2.2373  2.7042
 2569TIP3   OH231901   0.921   3.222   8.409  1.0680  0.1650  0.3673
 2569TIP3    H131902   0.938   3.282   8.482  1.9909  1.8023 -1.1012
 2569TIP3    H231903   0.825   3.216   8.404  0.9945 -0.7684  2.2814
 2570TIP3   OH231904   6.157   1.965  10.406 -0.1555  0.1928  0.7538
 2570TIP3    H131905   6.066   1.936  10.409  0.5665 -2.3410  0.6652
 2570TIP3    H231906   6.178   1.968  10.312 -0.0719  0.5646  0.7817
 2571TIP3   OH231907   4.878   5.362  10.740 -0.8622 -0.6575  0.3375
 2571TIP3    H131908   4.803   5.331  10.688 -0.6551  0.2824 -0.5664
 2571TIP3    H231909   4.916   5.432  10.687 -0.3348  0.0099  1.5531
 2572TIP3   OH231910   4.432   1.542   8.889  0.0913 -1.1035  0.4098
 2572TIP3    H131911   4.412   1.634   8.879  1.6971 -0.8708 -1.4051
 2572TIP3    H231912   4.356   1.504   8.934 -0.5517  1.0772  1.2592
 2573TIP3   OH231913   1.842   1.388   9.980 -0.8689  0.0426 -0.2970
 2573TIP3    H131914   1.783   1.434   9.920  1.2131  2.7193 -0.4608
 2573TIP3    H231915   1.850   1.300   9.944  0.4528  1.5674 -4.1891
 2574TIP3   OH231916   5.313   2.342   9.216 -0.0867  0.1573 -0.0314
 2574TIP3    H131917   5.320   2.407   9.146  0.0108 -1.4023 -1.5470
 2574TIP3    H231918   5.260   2.272   9.178  0.0071 -0.7624  1.4592
 2575TIP3   OH231919   5.433   4.462   9.271  0.8378 -0.4782 -0.3309
 2575TIP3    H131920   5.495   4.390   9.269  0.5140 -0.8137  0.7115
 2575TIP3    H231921   5.470   4.523   9.335  1.3794  0.5546 -1.5848
 2576TIP3   OH231922   2.020   0.448  10.982  0.2033 -0.3356  0.3467
 2576TIP3    H131923   1.983   0.532  11.008 -1.5527 -0.9911  0.1309
 2576TIP3    H231924   1.993   0.387  11.052 -1.7747 -1.4492 -1.2909
 2577TIP3   OH231925   6.257   5.435   8.880  0.7985 -0.0585  0.2609
 2577TIP3    H131926   6.183   5.478   8.836  0.7873  0.6974  0.9966
 2577TIP3    H231927   6.224   5.348   8.902  0.7451 -0.3872 -1.0440
 2578TIP3   OH231928   1.285   0.811  11.049  0.1831  0.5970 -0.0840
 2578TIP3    H131929   1.349   0.775  11.110  1.1234  1.2348 -0.6774
 2578TIP3    H231930   1.335   0.833  10.971 -0.9868 -0.1326 -1.0814
 2579TIP3   OH231931   6.064   0.907  12.032 -0.4325  0.2392 -0.0444
 2579TIP3    H131932   6.058   0.847  12.106 -1.2987  0.2393 -0.1050
 2579TIP3    H231933   6.093   0.990  12.071 -1.5103  0.4237  0.4193
 2580TIP3   OH231934   2.979   5.981  10.043 -0.1771  0.7119 -0.1624
 2580TIP3    H131935   2.894   5.997  10.004  0.1417  0.8918 -0.7909
 2580TIP3    H231936   3.030   6.059  10.023 -0.5540  1.6749  2.2014
 2581TIP3   OH231937   2.849   2.897   9.085 -0.1041  0.3910  0.2425
 2581TIP3    H131938   2.876   2.989   9.083  0.1907  0.2888 -1.0891
 2581TIP3    H231939   2.909   2.853   9.025 -0.7906 -0.5244  0.2094
 2582TIP3   OH231940   0.387   2.967   9.473  0.1711  0.3215 -0.4345
 2582TIP3    H131941   0.463   2.912   9.457  0.0855 -0.0263  0.3313
 2582TIP3    H231942   0.416   3.029   9.540 -0.3947 -0.1838  0.2817
 2583TIP3   OH231943   2.166   2.828  11.828 -0.1991  0.0687 -0.1304
 2583TIP3    H131944   2.122   2.867  11.753 -1.0292  0.6169  0.6123
 2583TIP3    H231945   2.247   2.791  11.793 -0.6192  0.2252 -1.2973
 2584TIP3   OH231946   4.599   5.765   9.716 -0.1710 -0.0557 -0.0889
 2584TIP3    H131947   4.602   5.810   9.801 -3.2347  1.2451 -0.5445
 2584TIP3    H231948   4.649   5.822   9.658  0.6316 -0.1442  0.4946
 2585TIP3   OH231949   2.108   2.255  11.429 -0.1125  0.2144  0.1191
 2585TIP3    H131950   2.130   2.222  11.342  0.5369  1.2848 -0.1328
 2585TIP3    H231951   2.071   2.179  11.474 -2.8517  0.1856 -1.8899
 2586TIP3   OH231952   4.948   0.939   9.101 -0.2434  0.1233 -0.2213
 2586TIP3    H131953   4.958   1.022   9.148 -1.2628  0.0591  0.1375
 2586TIP3    H231954   4.868   0.951   9.048 -1.6492 -1.3222  1.4412
 2587TIP3   OH231955   6.234   3.466   9.204 -0.0178  0.3366  0.4466
 2587TIP3    H131956   6.253   3.438   9.293 -1.5266 -2.2007  0.0856
 2587TIP3    H231957   6.311   3.441   9.154  0.3669  0.7147  0.8484
 2588TIP3   OH231958   5.500   4.941  12.228 -0.2365 -0.0866 -0.2450
 2588TIP3    H131959   5.580   4.892  12.205  1.0658  1.3970  0.9219
 2588TIP3    H231960   5.525   5.033  12.218 -1.5655  0.4253  0.9017
 2589TIP3   OH231961   5.460   3.327   8.750  0.5107  0.5504 -0.9065
 2589TIP3    H131962   5.424   3.255   8.698 -0.0826  1.5374 -1.9026
 2589TIP3    H231963   5.450   3.404   8.695  2.4368  1.1941 -0.4336
 2590TIP3   OH231964   5.326   6.407  11.290  0.7671 -0.2457 -0.5658
 2590TIP3    H131965   5.241   6.438  11.321  0.7605 -1.6358  0.9942
 2590TIP3    H231966   5.306   6.327  11.241  1.0354  0.4618 -1.8724
 2591TIP3   OH231967   2.720   6.621   9.354 -0.1385 -0.7930 -0.4865
 2591TIP3    H131968   2.701   6.596   9.445  1.4968 -2.0337 -0.4447
 2591TIP3    H231969   2.664   6.565   9.301  0.9921 -2.1709 -0.2865
 2592TIP3   OH231970   4.259   5.068   9.570  0.3029  0.2783  0.1886
 2592TIP3    H131971   4.317   5.079   9.645  3.0551  1.1428 -1.9190
 2592TIP3    H231972   4.317   5.059   9.494 -2.3097  0.1988 -1.9910
 2593TIP3   OH231973   1.732   3.579   8.942  1.0039  0.1179  0.2994
 2593TIP3    H131974   1.762   3.650   8.999 -1.0576 -0.2826  2.0364
 2593TIP3    H231975   1.760   3.499   8.987  2.2524 -0.2159 -1.0200
 2594TIP3   OH231976   2.353   5.813   9.090 -0.2878  0.0465 -0.3068
 2594TIP3    H131977   2.341   5.894   9.041  0.2151  0.1719 -0.2308
 2594TIP3    H231978   2.389   5.751   9.027  2.4335  0.8194  0.3383
 2595TIP3   OH231979   4.476   1.912   9.161 -0.3758  0.2335 -0.1120
 2595TIP3    H131980   4.479   1.903   9.257 -2.1405  2.0264  0.1709
 2595TIP3    H231981   4.559   1.955   9.139  0.2900 -0.6667  0.5065
 2596TIP3   OH231982   4.191   5.572   9.114 -0.0965 -0.0115 -0.1808
 2596TIP3    H131983   4.125   5.639   9.131 -1.4997 -1.3821  0.0259
 2596TIP3    H231984   4.180   5.550   9.021  1.4275  1.1005 -0.6667
 2597TIP3   OH231985   1.359   4.308  11.076 -0.1409 -0.1153 -0.0006
 2597TIP3    H131986   1.299   4.238  11.103  0.0113 -0.2957 -0.1225
 2597TIP3    H231987   1.334   4.328  10.986  1.7368 -2.1433 -1.0950
 2598TIP3   OH231988   1.387   0.020  11.133  0.2314 -0.5526  0.7233
 2598TIP3    H131989   1.359  -0.071  11.147  0.8863 -1.0770 -1.0924
 2598TIP3    H231990   1.454   0.034  11.199  0.2841 -1.4736  0.8863
 2599TIP3   OH231991   3.406   4.079  11.814  0.6102 -0.2378  0.3270
 2599TIP3    H131992   3.491   4.122  11.815  0.3507  0.3054 -0.4563
 2599TIP3    H231993   3.349   4.137  11.764  0.5716 -2.0807 -1.9548
 2600TIP3   OH231994   4.814   0.156   9.954 -0.1711 -0.5664 -0.0900
 2600TIP3    H131995   4.774   0.069   9.955  0.1931 -0.7357  1.1778
 2600TIP3    H231996   4.740   0.217   9.953 -0.4285 -0.8656 -1.2567
 2601TIP3   OH231997   3.068   0.127  11.547 -0.5217  0.2728 -0.2472
 2601TIP3    H131998   3.119   0.054  11.582  1.9862  1.8516 -0.3705
 2601TIP3    H231999   3.049   0.182  11.623 -2.0533 -0.2299 -0.2188
 2602TIP3   OH232000   1.130   2.793   9.972 -0.2134 -0.3849 -0.1122
 2602TIP3    H132001   1.169   2.736  10.039  1.3916  0.4450 -0.2951
 2602TIP3    H232002   1.038   2.766   9.969  0.3195 -2.4757  0.3068
 2603TIP3   OH232003   2.371   3.931  10.163 -0.2799 -0.1020 -0.0862
 2603TIP3    H132004   2.420   4.013  10.173 -0.2713 -0.1625  0.3528
 2603TIP3    H232005   2.296   3.940  10.222 -0.5006 -0.2408 -0.3427
 2604TIP3   OH232006   0.629   4.164  10.843 -0.0597  0.3918  0.2117
 2604TIP3    H132007   0.621   4.118  10.759 -0.9079  1.4860 -0.3350
 2604TIP3    H232008   0.671   4.247  10.820  0.8565  0.1859  1.0778
 2605TIP3   OH232009   6.655   0.521  11.278  0.0878  0.2365 -0.3338
 2605TIP3    H132010   6.619   0.541  11.364  0.0164  0.8445 -0.5044
 2605TIP3    H232011   6.747   0.548  11.283 -0.1849  1.2947 -0.7902
 2606TIP3   OH232012   1.619   5.127  11.234 -0.2796 -0.2030 -0.2528
 2606TIP3    H132013   1.713   5.129  11.221 -0.0844 -0.2686  1.0422
 2606TIP3    H232014   1.592   5.043  11.195  0.4066 -0.8425  0.6100
 2607TIP3   OH232015   0.998   4.263   9.570 -0.1875  0.1606  0.6582
 2607TIP3    H132016   1.077   4.290   9.616 -0.2492  0.9512  0.3018
 2607TIP3    H232017   0.963   4.192   9.623  0.2757  0.4049  1.2971
 2608TIP3   OH232018   1.564   5.147  10.282  0.5383  0.2119 -0.1417
 2608TIP3    H132019   1.642   5.153  10.338  0.0182  0.3020  0.5893
 2608TIP3    H232020   1.548   5.237  10.254  0.8880  0.1458 -0.5770
 2609TIP3   OH232021   5.074   2.463  10.841  0.1344 -0.1985 -0.1344
 2609TIP3    H132022   5.166   2.479  10.862 -0.1918 -0.4433  1.6528
 2609TIP3    H232023   5.025   2.510  10.909 -1.0751 -0.1204 -1.0197
 2610TIP3   OH232024   4.857   3.205  12.097  0.1601  0.0933 -0.2373
 2610TIP3    H132025   4.812   3.181  12.016  1.9142  0.1914 -1.2867
 2610TIP3    H232026   4.868   3.123  12.144 -0.8155  0.0267 -0.1041
 2611TIP3   OH232027   4.235   2.805  11.190 -0.2342  0.1160  0.0379
 2611TIP3    H132028   4.170   2.821  11.123 -0.2655  0.2535  0.0997
 2611TIP3    H232029   4.304   2.869  11.172  1.0950 -1.6729 -1.5661
 2612TIP3   OH232030   5.796   0.161  10.889 -0.3226  0.9875 -0.5758
 2612TIP3    H132031   5.784   0.067  10.902 -0.0661  0.8549 -1.2408
 2612TIP3    H232032   5.890   0.170  10.869  0.2738  1.7019  2.1613
 2613TIP3   OH232033   4.042   6.293  11.389 -0.0617 -0.2574 -0.2824
 2613TIP3    H132034   4.028   6.382  11.422 -0.2758  0.0742 -1.2141
 2613TIP3    H232035   4.038   6.237  11.466 -0.3176  0.5059  0.2670
 2614TIP3   OH232036   3.818   6.214  11.561  0.0032  0.3374 -0.3279
 2614TIP3    H132037   3.795   6.198  11.470  0.1663 -0.6983 -0.1970
 2614TIP3    H232038   3.899   6.165  11.575 -0.2008  0.2033  0.4624
 2615TIP3   OH232039   0.639   0.147  11.737 -0.4774  0.2646 -0.0431
 2615TIP3    H132040   0.587   0.157  11.657  0.5048 -0.8515 -0.8727
 2615TIP3    H232041   0.685   0.231  11.746 -0.9229  0.5541 -0.3959
 2616TIP3   OH232042   4.238   4.467  11.469  0.1825  0.3229  0.2969
 2616TIP3    H132043   4.301   4.434  11.534 -0.1384 -0.4759  0.2178
 2616TIP3    H232044   4.157   4.481  11.519 -0.1012 -0.4095  0.0657
 2617TIP3   OH232045   3.823   1.364  10.331 -0.0798  0.2380 -0.1287
 2617TIP3    H132046   3.851   1.449  10.296  1.6729 -0.3225 -0.1920
 2617TIP3    H232047   3.729   1.375  10.348 -0.5681  1.2727 -2.8549
 2618TIP3   OH232048   5.856   0.808  10.396  0.3337 -0.2835  0.4352
 2618TIP3    H132049   5.880   0.754  10.320  0.9876  0.5453  0.0422
 2618TIP3    H232050   5.918   0.782  10.465 -1.0796 -1.9758  1.1378
 2619TIP3   OH232051   2.766   1.485   9.228  0.0360  0.2111 -0.1731
 2619TIP3    H132052   2.697   1.459   9.289  0.6035  0.5915  0.6458
 2619TIP3    H232053   2.722   1.540   9.164 -0.7417 -0.8834 -0.6246
 2620TIP3   OH232054   3.349   4.749  11.139  0.2459 -0.5138 -0.5070
 2620TIP3    H132055   3.435   4.760  11.098  0.9380  0.3552  1.0868
 2620TIP3    H232056   3.294   4.816  11.098  1.1087  0.7838  0.3810
 2621TIP3   OH232057   2.430   5.187  12.038 -0.3179 -0.0066  0.6692
 2621TIP3    H132058   2.419   5.125  12.111 -0.1415  0.6785  1.2917
 2621TIP3    H232059   2.511   5.161  11.996 -0.9607 -1.0693  0.0537
 2622TIP3   OH232060   3.849   0.008  10.474  0.6847 -0.4119  0.3676
 2622TIP3    H132061   3.899  -0.046  10.413 -0.1236 -0.0447 -0.6515
 2622TIP3    H232062   3.821  -0.052  10.543 -0.1369 -1.2821 -0.7036
 2623TIP3   OH232063   3.363   0.632  10.959  0.2113 -0.0291  0.2312
 2623TIP3    H132064   3.366   0.725  10.981  0.7602 -0.0607  0.2941
 2623TIP3    H232065   3.345   0.588  11.042  2.8107 -0.1900  0.7818
 2624TIP3   OH232066   0.893   5.468  11.407 -0.1021  0.1979  0.0872
 2624TIP3    H132067   0.917   5.555  11.440 -1.4706  0.2206  1.0909
 2624TIP3    H232068   0.907   5.475  11.312 -0.8731  1.7810  0.0365
 2625TIP3   OH232069   6.398   3.154  10.852 -0.3464  0.1976 -0.3040
 2625TIP3    H132070   6.337   3.222  10.879  0.2360  0.2070  1.1035
 2625TIP3    H232071   6.453   3.195  10.786 -2.5676 -0.1646 -2.5026
 2626TIP3   OH232072   2.029   0.337   9.451 -0.3394  0.4319  0.2495
 2626TIP3    H132073   1.985   0.253   9.446 -1.2704  0.9719 -0.9896
 2626TIP3    H232074   2.117   0.321   9.417 -0.3311 -0.1390  0.5315
 2627TIP3   OH232075   0.654   4.263  11.803  0.1953 -0.0242  0.2596
 2627TIP3    H132076   0.744   4.293  11.793 -0.4912  1.5524 -1.6404
 2627TIP3    H232077   0.636   4.211  11.725 -0.2574 -1.1845  1.1019
 2628TIP3   OH232078   0.241   5.039  10.112 -0.0832 -0.1264 -0.1587
 2628TIP3    H132079   0.227   5.116  10.057 -2.4345 -0.5973 -0.3288
 2628TIP3    H232080   0.186   4.972  10.073  0.2683 -1.2701  1.2390
 2629TIP3   OH232081   4.796   4.140   9.958 -0.0302 -0.2106 -0.0061
 2629TIP3    H132082   4.775   4.141   9.865  1.3634 -0.7380 -0.3503
 2629TIP3    H232083   4.862   4.209   9.969  1.1408 -1.3357  0.2261
 2630TIP3   OH232084   2.981   6.592   9.243 -0.2562 -0.0494 -0.1859
 2630TIP3    H132085   2.902   6.635   9.278 -0.1579 -1.1982  1.5898
 2630TIP3    H232086   3.053   6.635   9.289 -0.1087 -1.4776  0.9990
 2631TIP3   OH232087   2.399   4.161   9.148  0.3200  0.3752  0.3704
 2631TIP3    H132088   2.365   4.240   9.190  1.0711  0.5220  0.7330
 2631TIP3    H232089   2.421   4.103   9.220 -0.2614 -0.1882  0.0991
 2632TIP3   OH232090   3.458   3.043  12.047  0.5255  0.0107  0.1712
 2632TIP3    H132091   3.364   3.032  12.041  0.5439  0.3907 -1.2385
 2632TIP3    H232092   3.493   2.954  12.053  0.0968 -0.1370  0.5306
 2633TIP3   OH232093   2.085   3.269  10.708  0.1820  0.5890  0.3788
 2633TIP3    H132094   2.095   3.347  10.762 -0.5013 -0.7397  2.5749
 2633TIP3    H232095   2.079   3.197  10.772  1.7899 -1.3876 -1.5483
 2634TIP3   OH232096   4.111   3.939  10.591 -0.0298 -0.5384  0.5606
 2634TIP3    H132097   4.127   4.032  10.606  1.8855 -1.0124  1.8522
 2634TIP3    H232098   4.023   3.924  10.625 -0.3233  0.7788  0.4260
 2635TIP3   OH232099   2.332   6.123   9.119  0.3990  0.1808 -0.2486
 2635TIP3    H132100   2.333   6.184   9.192 -0.8826  0.6733 -0.6077
 2635TIP3    H232101   2.259   6.153   9.064 -0.0054 -1.4312 -0.6392
 2636TIP3   OH232102   0.242   4.050  11.247 -0.2827  0.4123 -0.2944
 2636TIP3    H132103   0.204   4.135  11.269  1.5749  1.2673 -0.1695
 2636TIP3    H232104   0.325   4.048  11.295  0.9022 -0.3648 -2.2639
 2637TIP3   OH232105   1.541   5.803  11.419 -0.3750  0.2717  0.0851
 2637TIP3    H132106   1.631   5.783  11.395  0.1420  1.0910  1.2296
 2637TIP3    H232107   1.497   5.718  11.419  0.7461 -0.3488  0.8323
 2638TIP3   OH232108   1.169   0.244  12.475 -0.2367 -0.6459  0.0046
 2638TIP3    H132109   1.144   0.228  12.384  0.3349  0.1872 -0.3138
 2638TIP3    H232110   1.086   0.253  12.522 -0.5677  0.5881 -0.7563
 2639TIP3   OH232111   0.726   5.546   9.710  0.2959  0.2289 -0.2844
 2639TIP3    H132112   0.632   5.561   9.714  0.3838  0.6655  0.3110
 2639TIP3    H232113   0.744   5.528   9.617 -0.2195  1.1776 -0.5847
 2640TIP3   OH232114   5.171   4.598  11.931  0.2766  0.1608  0.1241
 2640TIP3    H132115   5.147   4.690  11.945 -2.2962 -0.8173  4.0035
 2640TIP3    H232116   5.257   4.589  11.973 -0.1422  0.5689  1.1137
 2641TIP3   OH232117   2.526   1.538   9.796 -0.2433  0.3536  0.0272
 2641TIP3    H132118   2.523   1.492   9.880  0.1812 -0.6644 -0.5044
 2641TIP3    H232119   2.468   1.488   9.739  0.8364 -0.0108 -0.7877
 2642TIP3   OH232120   6.374   1.476  12.250 -0.3222  0.1721 -0.2385
 2642TIP3    H132121   6.350   1.509  12.164 -1.4652  2.2570  0.7860
 2642TIP3    H232122   6.461   1.512  12.266  0.0647 -0.5627 -0.6827
 2643TIP3   OH232123   5.020   3.029  10.937  0.2896  0.2185 -0.2376
 2643TIP3    H132124   4.948   3.065  10.988  1.5971  0.6346  1.3916
 2643TIP3    H232125   5.027   2.938  10.967  2.2488  0.9610  1.8286
 2644TIP3   OH232126   4.198   6.384  10.362  0.1045 -0.2304  0.1096
 2644TIP3    H132127   4.279   6.392  10.412  0.7887  0.9489 -1.1094
 2644TIP3    H232128   4.129   6.373  10.428  1.2270 -1.0751  1.1674
 2645TIP3   OH232129   2.703   1.460  11.391  0.1701 -0.0510 -0.3296
 2645TIP3    H132130   2.771   1.424  11.334  2.4506  1.4827  1.2349
 2645TIP3    H232131   2.698   1.398  11.464  0.5888  0.3010  0.0047
 2646TIP3   OH232132   3.700   5.147  11.472  0.1198 -0.1191 -0.3296
 2646TIP3    H132133   3.753   5.102  11.537 -1.9815 -1.3636  0.6385
 2646TIP3    H232134   3.609   5.130  11.499 -0.8053  1.4569 -2.1677
 2647TIP3   OH232135   4.132   0.317   8.850  0.2369  0.2456  0.4384
 2647TIP3    H132136   4.165   0.345   8.936  0.2219 -1.3740  1.0071
 2647TIP3    H232137   4.046   0.280   8.868  0.5678 -0.8552 -0.1225
 2648TIP3   OH232138   2.929   3.541  11.457  0.0580 -0.0058  0.0283
 2648TIP3    H132139   2.954   3.560  11.367 -0.3845  0.3741 -0.0186
 2648TIP3    H232140   2.894   3.452  11.454  2.9057 -1.2652  0.3930
 2649TIP3   OH232141   2.090   3.241  11.617  0.1344 -0.3428 -0.5216
 2649TIP3    H132142   2.054   3.155  11.598  0.2495 -0.7224  0.8232
 2649TIP3    H232143   2.159   3.224  11.682  2.8902  0.3138 -3.0603
 2650TIP3   OH232144   5.359   2.213   8.421  0.2343  0.2697  0.2742
 2650TIP3    H132145   5.287   2.153   8.403  0.4781 -0.4047  1.5213
 2650TIP3    H232146   5.431   2.181   8.367 -0.2290  0.6692 -0.6140
 2651TIP3   OH232147   4.721   1.970   9.015  0.6973 -0.1446 -0.5008
 2651TIP3    H132148   4.732   2.041   9.077  1.6150 -0.1153 -0.6758
 2651TIP3    H232149   4.674   2.009   8.941  0.1311 -0.0327 -0.0880
 2652TIP3   OH232150   1.183   5.327  10.196  0.4523 -0.5997  0.0149
 2652TIP3    H132151   1.108   5.360  10.147  0.3266  0.2847  0.7726
 2652TIP3    H232152   1.254   5.388  10.174  0.0226  0.7334  2.0292
 2653TIP3   OH232153   3.250   0.673  11.740  0.3028 -0.4197 -0.3243
 2653TIP3    H132154   3.250   0.577  11.736  1.7436 -0.5906  1.8552
 2653TIP3    H232155   3.333   0.699  11.699  0.4027 -0.1770  0.0309
 2654TIP3   OH232156   4.430   3.218   9.135 -0.0002 -0.0657 -0.2704
 2654TIP3    H132157   4.416   3.306   9.170  1.3496  0.3652 -0.7558
 2654TIP3    H232158   4.394   3.221   9.047  0.7339  0.2493 -0.5677
 2655TIP3   OH232159   3.368   1.337   9.186 -0.5441 -0.4178 -0.0062
 2655TIP3    H132160   3.459   1.365   9.187  0.0016 -2.0758  0.3679
 2655TIP3    H232161   3.369   1.250   9.227 -2.2652 -0.5487 -0.1477
 2656TIP3   OH232162   4.781   1.849   9.598  0.7228 -0.2101 -0.1532
 2656TIP3    H132163   4.697   1.864   9.642  1.4727  0.5154  1.0710
 2656TIP3    H232164   4.846   1.892   9.654  1.7857  0.2550 -1.6753
 2657TIP3   OH232165   3.371   3.170  11.429 -0.0168 -0.0505  0.0814
 2657TIP3    H132166   3.320   3.132  11.501 -0.9640 -1.5347 -1.2954
 2657TIP3    H232167   3.459   3.136  11.440  0.2375  0.9555  1.3717
 2658TIP3   OH232168   5.102   5.523   9.117  0.2964  0.5380  0.0593
 2658TIP3    H132169   5.116   5.539   9.024  0.2283  2.6502  0.3546
 2658TIP3    H232170   5.016   5.560   9.136  0.0999 -0.3047  0.8618
 2659TIP3   OH232171   0.283   5.869  11.526  0.3615  0.1665  0.4395
 2659TIP3    H132172   0.276   5.964  11.525  0.0516  0.1437 -0.0420
 2659TIP3    H232173   0.351   5.850  11.461  0.1008  0.0378  0.2016
 2660TIP3   OH232174   4.391   0.563  11.633  0.2865 -0.3847 -0.0367
 2660TIP3    H132175   4.464   0.566  11.571 -1.3675  0.4180 -2.0586
 2660TIP3    H232176   4.398   0.644  11.683  1.9933 -1.3198  1.3732
 2661TIP3   OH232177   1.290   0.937  10.682  0.1755 -0.1790  0.1471
 2661TIP3    H132178   1.355   0.871  10.705  0.0777 -0.3758 -0.1383
 2661TIP3    H232179   1.267   0.918  10.591 -0.5214 -0.3209  0.3464
 2662TIP3   OH232180   1.479   0.897  11.435  0.4347 -0.3208  0.1128
 2662TIP3    H132181   1.554   0.912  11.492 -0.1030 -0.9975  1.0279
 2662TIP3    H232182   1.507   0.826  11.377  0.7140 -0.1469  0.0320
 2663TIP3   OH232183   4.187   1.737  10.997 -0.5205  0.1517 -0.2577
 2663TIP3    H132184   4.252   1.807  10.994 -1.7028  1.3176  0.1222
 2663TIP3    H232185   4.130   1.761  11.070 -0.1054 -2.0283  0.8640
 2664TIP3   OH232186   0.961   6.660  11.085  0.0065  0.2105 -0.1285
 2664TIP3    H132187   1.003   6.586  11.040 -1.5176  0.4872 -2.1771
 2664TIP3    H232188   1.015   6.736  11.061 -0.2913  0.2202 -0.8031
 2665TIP3   OH232189   1.957   5.632  12.233  0.2569  0.2602  0.5286
 2665TIP3    H132190   1.897   5.634  12.307  1.3308  2.6914  1.4056
 2665TIP3    H232191   1.960   5.722  12.201  1.4698 -0.3099 -1.1364
 2666TIP3   OH232192   5.001   3.381   9.580 -0.2209  0.0114 -0.0201
 2666TIP3    H132193   4.939   3.308   9.581  1.3428 -1.3661  0.6588
 2666TIP3    H232194   5.086   3.341   9.564  0.4362  1.9537 -1.8604
 2667TIP3   OH232195   0.161   5.639   9.953 -0.3239 -0.2612 -0.0404
 2667TIP3    H132196   0.104   5.582   9.902 -0.1877  0.0778 -0.5712
 2667TIP3    H232197   0.248   5.597   9.948 -0.5399 -0.8758  0.9178
 2668TIP3   OH232198   3.113   6.526  10.018 -0.5206 -0.1567  0.0756
 2668TIP3    H132199   3.055   6.588  10.062 -0.7731 -0.6132  0.3880
 2668TIP3    H232200   3.056   6.477   9.959 -0.2901  0.0283 -0.3040
 2669TIP3   OH232201   3.929   5.310  10.209 -0.2726  0.0391 -0.3011
 2669TIP3    H132202   3.911   5.250  10.282 -1.2407 -2.3115 -2.3379
 2669TIP3    H232203   4.004   5.362  10.239 -2.4219  1.3590  3.5130
 2670TIP3   OH232204   2.116   0.590  12.510 -0.1039  0.2622 -0.0427
 2670TIP3    H132205   2.061   0.660  12.476 -1.2710 -1.3629 -1.7522
 2670TIP3    H232206   2.187   0.581  12.446  0.2202  0.1023  0.3331
 2671TIP3   OH232207   5.128   0.427  10.216  0.0418  0.0529  0.1067
 2671TIP3    H132208   5.089   0.452  10.300  0.3975 -2.1581  1.0106
 2671TIP3    H232209   5.215   0.394  10.239  2.0080  3.4285 -1.6781
 2672TIP3   OH232210   6.526   1.563   9.878  0.0168  0.2737 -0.3535
 2672TIP3    H132211   6.535   1.622   9.953 -0.8651 -0.6543  0.5167
 2672TIP3    H232212   6.459   1.500   9.906  0.0810 -0.4182 -1.7172
 2673TIP3   OH232213   4.861   4.714  10.733  0.2005  0.0037 -0.4447
 2673TIP3    H132214   4.905   4.636  10.701 -0.4546 -1.5148  2.0504
 2673TIP3    H232215   4.931   4.777  10.748  1.3536 -1.5913  1.3525
 2674TIP3   OH232216   1.185   5.925  10.634 -0.7735 -0.4994 -0.3792
 2674TIP3    H132217   1.212   5.838  10.664  0.2866  0.0123  0.2032
 2674TIP3    H232218   1.092   5.930  10.655 -1.0434 -1.7813 -1.1409
 2675TIP3   OH232219   4.613   5.339  10.655 -0.4122  0.0503  0.6386
 2675TIP3    H132220   4.539   5.395  10.679  0.1008  1.4342 -0.8597
 2675TIP3    H232221   4.573   5.254  10.634 -1.4544  0.4820  0.8074
 2676TIP3   OH232222   1.124   2.591   8.447 -0.2596  0.3464  0.2021
 2676TIP3    H132223   1.054   2.573   8.510 -1.1216  1.0681 -0.5158
 2676TIP3    H232224   1.155   2.504   8.421 -0.7922  0.0125  0.6520
 2677TIP3   OH232225   3.869   3.987  10.783 -0.0804 -0.3207  0.4961
 2677TIP3    H132226   3.945   4.014  10.835  0.3429 -0.0356 -0.2627
 2677TIP3    H232227   3.831   4.068  10.751  1.1187 -0.5390 -1.6776
 2678TIP3   OH232228   5.123   5.544   9.702 -0.5271  0.3468 -0.0257
 2678TIP3    H132229   5.120   5.638   9.684  1.0977  0.4718  0.2290
 2678TIP3    H232230   5.031   5.517   9.707 -1.0339  1.6413 -1.5140
 2679TIP3   OH232231   6.342   6.142  10.823  0.6962 -0.1111 -0.5206
 2679TIP3    H132232   6.332   6.226  10.777 -0.9331 -0.0384 -0.1036
 2679TIP3    H232233   6.290   6.080  10.773 -0.7640 -0.1270  0.9122
 2680TIP3   OH232234   0.086   2.951   9.138  0.5497 -0.2266 -0.4666
 2680TIP3    H132235  -0.002   2.989   9.136  0.5975 -0.1526 -1.4397
 2680TIP3    H232236   0.127   2.990   9.215 -1.3600 -2.7734  2.0748
 2681TIP3   OH232237   3.907   3.297  11.303  0.0284 -0.1418 -0.2055
 2681TIP3    H132238   3.922   3.389  11.321 -0.5412 -0.0254 -0.3251
 2681TIP3    H232239   3.954   3.251  11.374 -0.5780  0.2640  0.4718
 2682TIP3   OH232240   5.140   5.767  10.254  0.1564  0.2518 -0.5027
 2682TIP3    H132241   5.196   5.815  10.193  0.2085  1.0499  0.1639
 2682TIP3    H232242   5.055   5.810  10.247  0.0160 -0.0080 -0.4173
 2683TIP3   OH232243   2.458   2.152  10.793  0.1109  0.3846  0.3285
 2683TIP3    H132244   2.553   2.142  10.785 -0.0086 -2.4793  1.1407
 2683TIP3    H232245   2.428   2.066  10.823 -2.9858  0.4801 -1.9502
 2684TIP3   OH232246   6.047   6.472  10.669 -0.7815  0.1335 -0.1630
 2684TIP3    H132247   6.043   6.567  10.654 -0.5554 -0.1722 -2.5146
 2684TIP3    H232248   5.956   6.446  10.679 -0.8481  0.5867  0.4796
 2685TIP3   OH232249   2.492   1.906   9.754 -0.0841  0.1944  0.8554
 2685TIP3    H132250   2.448   1.842   9.699  0.6389  1.4333 -1.2689
 2685TIP3    H232251   2.484   1.871   9.843 -1.4077 -1.8161  0.0058
 2686TIP3   OH232252   2.492   4.258   9.491 -0.4799  0.0711  0.6200
 2686TIP3    H132253   2.414   4.210   9.464 -0.9636  0.5297  1.1855
 2686TIP3    H232254   2.459   4.335   9.538  0.2355  1.7122 -1.4193
 2687TIP3   OH232255   1.325   6.557   9.938 -0.0911  0.1796  0.9986
 2687TIP3    H132256   1.322   6.475   9.987 -3.3288  0.5877  1.7155
 2687TIP3    H232257   1.274   6.540   9.859 -0.8844  1.4970  1.1959
 2688TIP3   OH232258   1.374   4.972   9.590 -0.6510 -0.3106 -0.1397
 2688TIP3    H132259   1.329   4.895   9.554  0.4875 -1.2627  0.4328
 2688TIP3    H232260   1.450   4.984   9.533 -0.6279  0.1864 -0.0053
 2689TIP3   OH232261   6.159   4.946  11.182 -0.4409  0.0939 -0.4889
 2689TIP3    H132262   6.148   4.969  11.274  1.5769  0.1474 -0.2187
 2689TIP3    H232263   6.143   5.028  11.135 -1.9409 -0.0398 -0.2570
 2690TIP3   OH232264   6.433   5.493  12.154 -0.1967  0.4704 -0.1686
 2690TIP3    H132265   6.441   5.446  12.071  1.1724 -0.1228  0.2675
 2690TIP3    H232266   6.341   5.517  12.159 -0.7660 -1.4001 -0.8325
 2691TIP3   OH232267   1.384   2.002  11.146 -0.7148 -0.5713 -0.1115
 2691TIP3    H132268   1.479   1.998  11.148 -0.6623  0.2358 -0.6203
 2691TIP3    H232269   1.358   1.922  11.101 -0.3916 -1.8040  1.7920
 2692TIP3   OH232270   3.401   2.737   9.742  0.3681 -0.1643 -0.3427
 2692TIP3    H132271   3.422   2.826   9.714 -0.2264  0.3940  0.9359
 2692TIP3    H232272   3.347   2.702   9.671 -0.6315  1.0162 -0.1986
 2693TIP3   OH232273   1.920   0.408  11.979 -0.0607 -0.0720  0.5368
 2693TIP3    H132274   1.948   0.453  12.058 -1.7202 -0.4420  1.3879
 2693TIP3    H232275   1.855   0.467  11.939  0.8935  0.2027 -0.6890
 2694TIP3   OH232276   6.257   3.513   9.513 -0.5639  0.0639 -0.1360
 2694TIP3    H132277   6.217   3.594   9.544 -1.5376 -0.8998  1.2377
 2694TIP3    H232278   6.200   3.443   9.546  1.9857 -1.3594  1.6528
 2695TIP3   OH232279   4.360   3.318  10.002  0.0057  0.1740 -0.6239
 2695TIP3    H132280   4.382   3.391   9.943  0.4245  1.6871  1.2874
 2695TIP3    H232281   4.441   3.302  10.051 -0.4494 -0.7359 -0.1506
 2696TIP3   OH232282   1.897   3.437  10.282 -0.5435 -0.0940 -0.1751
 2696TIP3    H132283   1.888   3.414  10.189  0.4973 -1.7679  0.0925
 2696TIP3    H232284   1.933   3.526  10.281 -1.9433  0.5025 -1.3225
 2697TIP3   OH232285   3.848   5.912  11.104  0.5335 -0.6005  0.2892
 2697TIP3    H132286   3.789   5.852  11.149 -0.3960 -0.5702 -0.8420
 2697TIP3    H232287   3.925   5.859  11.082  1.1121 -0.5473  2.0870
 2698TIP3   OH232288   5.650   3.863  12.071 -0.4835 -0.3584 -0.3682
 2698TIP3    H132289   5.734   3.908  12.075 -1.5024  1.6657 -0.4528
 2698TIP3    H232290   5.672   3.770  12.080  1.7058  0.1342 -0.0607
 2699TIP3   OH232291   2.798   2.549   8.956  0.3729  0.2589 -0.1721
 2699TIP3    H132292   2.878   2.601   8.958 -0.0903  0.9863  0.6720
 2699TIP3    H232293   2.758   2.569   8.871  0.2075  1.3113  0.1338
 2700TIP3   OH232294   5.578   5.209   9.690 -0.4979  0.4500 -0.6428
 2700TIP3    H132295   5.665   5.179   9.716 -0.2364  1.9376  0.3140
 2700TIP3    H232296   5.560   5.163   9.608  0.2323 -1.5890  0.2624
 2701TIP3   OH232297   5.056   1.963  11.275  0.0558 -0.4378 -0.1971
 2701TIP3    H132298   5.059   1.923  11.188 -0.7968 -1.2118  0.1105
 2701TIP3    H232299   5.105   2.045  11.266 -0.6677 -0.1373 -1.5997
 2702TIP3   OH232300   3.358   4.441  11.178 -0.7076  0.7143 -0.4876
 2702TIP3    H132301   3.277   4.418  11.133 -0.0331  0.3049 -1.5397
 2702TIP3    H232302   3.368   4.534  11.162 -0.5868  0.6150 -1.0151
 2703TIP3   OH232303   2.302   5.764  11.826  0.7487  0.3908  0.5313
 2703TIP3    H132304   2.248   5.831  11.868 -0.6954  0.7969 -1.7694
 2703TIP3    H232305   2.368   5.814  11.777  0.5151  0.0824 -0.1065
 2704TIP3   OH232306   4.955   0.987  11.500  0.0514  0.2329  0.4704
 2704TIP3    H132307   4.965   0.970  11.594 -0.5041 -0.1954  0.4597
 2704TIP3    H232308   4.864   1.016  11.490 -0.0404 -0.1970  0.0048
 2705TIP3   OH232309   2.552   4.693   9.670  0.1265  0.1069  0.1385
 2705TIP3    H132310   2.509   4.611   9.645  2.0721 -0.8633 -0.2294
 2705TIP3    H232311   2.602   4.719   9.592  1.9026  0.0010  1.1851
 2706TIP3   OH232312   1.086   6.568  11.561  0.6832 -0.0050  0.1598
 2706TIP3    H132313   1.022   6.625  11.605 -0.5406 -0.8061 -0.5317
 2706TIP3    H232314   1.053   6.559  11.472  1.5112 -0.8318 -0.0769
 2707TIP3   OH232315   5.671   5.952   9.515  0.3237 -0.4726 -0.0473
 2707TIP3    H132316   5.741   5.965   9.579  0.1152 -0.8913  0.2769
 2707TIP3    H232317   5.709   5.979   9.432  0.1566  1.4323  0.4447
 2708TIP3   OH232318   5.047   6.490   9.218  0.5404  0.1048  0.4066
 2708TIP3    H132319   5.065   6.582   9.203 -1.0208  0.6333  1.4682
 2708TIP3    H232320   5.010   6.459   9.136  1.9158  0.1666 -0.2542
 2709TIP3   OH232321   1.121   2.008  10.338 -0.3347 -0.0646 -0.0971
 2709TIP3    H132322   1.182   2.061  10.388 -0.0532  0.9026 -1.4067
 2709TIP3    H232323   1.049   1.991  10.398 -0.4280  1.8156  0.3867
 2710TIP3   OH232324   5.230   1.408  10.128 -0.0988  0.1079  0.0538
 2710TIP3    H132325   5.268   1.336  10.076 -0.4864 -0.2448  0.2594
 2710TIP3    H232326   5.303   1.440  10.180  0.2586  0.3528 -0.5796
 2711TIP3   OH232327   6.596   6.089   8.743 -0.3375 -0.4717 -0.0369
 2711TIP3    H132328   6.689   6.067   8.751 -0.0912  0.6254  0.4353
 2711TIP3    H232329   6.590   6.141   8.663 -0.1258  1.2998  1.0400
 2712TIP3   OH232330   6.120   5.804   9.987  0.7869  0.3137 -0.1174
 2712TIP3    H132331   6.200   5.816  10.038  1.1823 -2.3311  0.0196
 2712TIP3    H232332   6.104   5.709   9.990 -2.6133  0.7926  0.2511
 2713TIP3   OH232333   0.279   1.125  10.941 -0.2934 -0.6594 -0.2634
 2713TIP3    H132334   0.271   1.208  10.988 -0.3197 -0.4044 -0.7114
 2713TIP3    H232335   0.298   1.150  10.851 -0.5173 -1.1354 -0.4475
 2714TIP3   OH232336   3.303   1.709   9.059  0.3441  0.5077 -0.7681
 2714TIP3    H132337   3.253   1.659   9.124  0.2933  2.6657  0.9689
 2714TIP3    H232338   3.271   1.677   8.974 -2.9924  0.7267  0.2438
 2715TIP3   OH232339   6.126   4.796  11.421 -0.2897  0.2384 -0.0680
 2715TIP3    H132340   6.049   4.769  11.471 -1.0710 -0.7535 -1.7348
 2715TIP3    H232341   6.132   4.733  11.350  1.7704  0.6069 -0.3011
 2716TIP3   OH232342   4.496   0.980  11.213  0.1312 -0.2506 -0.0426
 2716TIP3    H132343   4.584   1.016  11.212  1.1666 -2.6143  0.2937
 2716TIP3    H232344   4.450   1.029  11.281  0.0492  3.2927 -2.3727
 2717TIP3   OH232345   4.464   5.868  10.314  0.8935 -0.0444 -0.8204
 2717TIP3    H132346   4.420   5.953  10.321  1.0012 -0.0762  0.4056
 2717TIP3    H232347   4.393   5.805  10.301  0.4711 -0.1511  1.5842
 2718TIP3   OH232348   4.606   3.081   9.983  0.2577  0.1950 -0.4493
 2718TIP3    H132349   4.698   3.075  10.009  0.3037 -1.3735 -0.8551
 2718TIP3    H232350   4.586   2.994   9.947 -1.2768  0.6329 -0.7157
 2719TIP3   OH232351   5.008   1.263   8.949  0.0167  0.1068  0.2950
 2719TIP3    H132352   5.102   1.261   8.963 -0.0968 -0.0448  1.1172
 2719TIP3    H232353   4.974   1.310   9.026 -0.4989  0.9405 -0.4255
 2720TIP3   OH232354   0.951   2.399  11.773  0.0253  0.0503  0.1513
 2720TIP3    H132355   0.939   2.468  11.838  0.3379 -0.0235  0.2891
 2720TIP3    H232356   0.862   2.371  11.751 -0.1530  1.2754 -0.7697
 2721TIP3   OH232357   4.393   0.641  12.128 -0.7960  0.5512 -0.2919
 2721TIP3    H132358   4.467   0.612  12.074 -0.9059 -0.6325  0.1629
 2721TIP3    H232359   4.418   0.728  12.157  0.8996 -0.1814  0.6394
 2722TIP3   OH232360   4.857   1.961  11.482 -0.2683  0.4958 -0.7359
 2722TIP3    H132361   4.910   1.946  11.403  0.3134 -0.6074 -0.1561
 2722TIP3    H232362   4.767   1.966  11.449 -0.1586 -1.0703 -1.3750
 2723TIP3   OH232363   3.816   5.962  11.434  0.3371  0.8251  0.4181
 2723TIP3    H132364   3.774   5.925  11.511  0.1910  0.0608 -0.0129
 2723TIP3    H232365   3.746   5.966  11.368  0.8073  0.0193 -0.1459
 2724TIP3   OH232366   2.155   5.159  12.031 -0.2707  0.2574 -0.4266
 2724TIP3    H132367   2.149   5.194  12.120  0.3025  0.9767 -0.6595
 2724TIP3    H232368   2.249   5.160  12.011 -0.3104 -0.7320 -0.7176
 2725TIP3   OH232369   6.098   3.420  11.871  0.1171  0.2801 -0.2589
 2725TIP3    H132370   6.148   3.443  11.793 -0.8470  0.1059 -0.9567
 2725TIP3    H232371   6.121   3.329  11.889 -1.1349 -0.3359 -1.5616
 2726TIP3   OH232372   2.898   3.922  11.346  0.5537  0.3663 -0.5045
 2726TIP3    H132373   2.873   3.867  11.421  4.0539 -0.1349  0.4758
 2726TIP3    H232374   2.864   4.009  11.368 -0.8600 -0.3477  0.2855
 2727TIP3   OH232375   0.677   4.297   8.941  0.0990  0.4135 -0.5860
 2727TIP3    H132376   0.600   4.349   8.965 -0.3579 -0.4016 -0.2262
 2727TIP3    H232377   0.662   4.271   8.851 -0.9530 -1.2400  0.0152
 2728TIP3   OH232378   2.857   3.714  11.976  0.3771 -0.3029 -0.3076
 2728TIP3    H132379   2.938   3.762  11.961  0.1550  0.3024  0.3827
 2728TIP3    H232380   2.885   3.633  12.020  0.4146  1.0277  2.2504
 2729TIP3   OH232381   2.737   2.520   9.214  0.5512  0.6194 -0.2075
 2729TIP3    H132382   2.648   2.487   9.226  0.0486  2.5938  2.4103
 2729TIP3    H232383   2.737   2.556   9.126 -1.4172  0.9651 -0.1190
 2730TIP3   OH232384   0.541   2.500  10.590 -0.0169 -0.2003 -0.1472
 2730TIP3    H132385   0.452   2.477  10.617 -0.3907  1.7601  0.4688
 2730TIP3    H232386   0.543   2.596  10.591  2.6352 -0.1524  1.7405
 2731TIP3   OH232387   4.665   0.764   9.188 -0.0188 -0.6815  0.4267
 2731TIP3    H132388   4.726   0.762   9.115  0.7197 -0.8610  1.0365
 2731TIP3    H232389   4.708   0.819   9.254 -0.5248 -0.7874  0.8526
 2732TIP3   OH232390   5.657   0.936  10.678  0.7021 -0.3203  0.2985
 2732TIP3    H132391   5.627   0.935  10.769  0.4088  0.3784  0.2142
 2732TIP3    H232392   5.582   0.967  10.628  1.3670  0.8902  0.0109
 2733TIP3   OH232393   6.601   0.022  10.709 -0.0688 -0.1774 -0.4625
 2733TIP3    H132394   6.521  -0.001  10.756 -0.0511 -2.6942 -1.5137
 2733TIP3    H232395   6.603   0.118  10.711 -0.9146 -0.1142  3.0980
 2734TIP3   OH232396   0.942   4.123   8.693  0.4081 -0.4687  0.8906
 2734TIP3    H132397   0.877   4.053   8.695  0.1341 -0.1971  2.7377
 2734TIP3    H232398   0.985   4.119   8.779  2.5969 -0.4022 -0.1284
 2735TIP3   OH232399   0.717   2.939  10.910 -0.6607  0.1901 -0.5564
 2735TIP3    H132400   0.779   2.984  10.853 -0.4347 -0.7496 -1.0564
 2735TIP3    H232401   0.645   3.002  10.920  0.8785  1.8362  1.0705
 2736TIP3   OH232402   3.040   2.900  10.240  0.4550  0.1793 -0.5874
 2736TIP3    H132403   2.984   2.977  10.252  1.1164  0.4348  1.0607
 2736TIP3    H232404   2.989   2.843  10.182 -0.5241  1.3661 -0.9495
 2737TIP3   OH232405   5.026   5.267   8.899  0.1492  0.5009 -0.0692
 2737TIP3    H132406   5.049   5.352   8.936 -2.6586  1.5192 -0.3867
 2737TIP3    H232407   4.936   5.279   8.866 -0.2408 -2.5076 -0.3727
 2738TIP3   OH232408   2.685   1.131   9.749 -0.2732 -0.0017  0.0812
 2738TIP3    H132409   2.727   1.179   9.677 -0.1652  0.6156  0.5399
 2738TIP3    H232410   2.734   1.157   9.827 -1.4960  0.7503  0.6418
 2739TIP3   OH232411   0.512   4.567   8.740 -0.1980  0.0444 -0.1479
 2739TIP3    H132412   0.552   4.495   8.690 -0.7736 -0.1993 -0.2653
 2739TIP3    H232413   0.445   4.524   8.793  0.6416  0.2535  1.1101
 2740TIP3   OH232414   1.201   5.251   9.826  0.3506 -0.1159 -0.0357
 2740TIP3    H132415   1.237   5.275   9.741  0.4378  0.4877  0.1719
 2740TIP3    H232416   1.106   5.263   9.816  0.1816 -1.5494 -0.5300
 2741TIP3   OH232417   2.626   3.587   9.590 -0.2799 -0.2361  0.2698
 2741TIP3    H132418   2.685   3.555   9.522  1.3408 -0.5083  1.7134
 2741TIP3    H232419   2.635   3.523   9.661 -0.5964  0.9167  1.3880
 2742TIP3   OH232420   0.272   4.907  11.993 -0.1108  0.2864 -0.4705
 2742TIP3    H132421   0.279   4.956  12.076  0.4736 -0.1778 -0.2327
 2742TIP3    H232422   0.346   4.938  11.941  2.2298 -2.5143  0.8847
 2743TIP3   OH232423   4.688   1.602   9.826 -0.4006 -0.6177  0.4346
 2743TIP3    H132424   4.685   1.691   9.791  1.7117 -1.0503 -1.0204
 2743TIP3    H232425   4.618   1.599   9.891 -2.5636  1.1898 -1.6236
 2744TIP3   OH232426   5.745   0.195   8.520  0.1848 -0.2177  0.2679
 2744TIP3    H132427   5.718   0.192   8.429  1.0987 -1.1816  0.0091
 2744TIP3    H232428   5.701   0.272   8.556 -1.5451 -0.7800 -0.5272
 2745TIP3   OH232429   1.169   2.641  12.350 -0.2988  0.2888 -0.7335
 2745TIP3    H132430   1.176   2.736  12.336 -0.7242  0.5451  0.6469
 2745TIP3    H232431   1.259   2.612  12.362 -0.1136  0.4122 -1.7558
 2746TIP3   OH232432   4.955   5.365   9.504 -0.7498 -0.0693 -0.4015
 2746TIP3    H132433   4.924   5.286   9.549 -0.2338  0.0100  0.1032
 2746TIP3    H232434   4.886   5.385   9.440 -0.3568 -1.6200 -1.3767
 2747TIP3   OH232435   5.658   1.118  10.181 -0.0369 -0.1894  0.4909
 2747TIP3    H132436   5.689   1.148  10.266  1.6203 -0.3725 -0.0179
 2747TIP3    H232437   5.685   1.187  10.120 -1.0747 -0.1300  0.0813
 2748TIP3   OH232438   5.224   5.660  11.712 -0.1144 -0.3138 -0.2024
 2748TIP3    H132439   5.270   5.736  11.677 -0.7490 -0.4360 -1.3476
 2748TIP3    H232440   5.293   5.594  11.725  0.3690  0.2856  0.3820
 2749TIP3   OH232441   5.181   2.176   9.065  0.3208  0.0520  0.1305
 2749TIP3    H132442   5.153   2.097   9.109  0.7616  0.5270  1.2927
 2749TIP3    H232443   5.221   2.146   8.984  1.3795 -0.9853  1.0199
 2750TIP3   OH232444   3.332   2.852  10.776 -0.3846  0.4266  0.0220
 2750TIP3    H132445   3.410   2.874  10.827  0.1352  0.7753 -0.8998
 2750TIP3    H232446   3.328   2.919  10.708 -1.5225  0.4439  0.0749
 2751TIP3   OH232447   2.505   3.548  11.566  0.3700 -0.1596  0.0354
 2751TIP3    H132448   2.430   3.604  11.547  0.1102 -0.3088  0.5965
 2751TIP3    H232449   2.568   3.567  11.496  0.7896  1.7573  0.8711
 2752TIP3   OH232450   2.528   4.149  10.712  0.2641  0.2314 -0.1662
 2752TIP3    H132451   2.457   4.213  10.715  0.0648 -0.0194  1.0858
 2752TIP3    H232452   2.520   4.100  10.794  2.3957  0.7447  0.4117
 2753TIP3   OH232453   2.281   6.380  10.329 -0.5732 -0.3956 -0.2055
 2753TIP3    H132454   2.362   6.432  10.332 -1.1841  0.6206 -0.8054
 2753TIP3    H232455   2.291   6.317  10.401  0.5065  0.0782  0.0875
 2754TIP3   OH232456   0.181   1.773   9.961 -0.2535 -0.0775  0.1916
 2754TIP3    H132457   0.193   1.769   9.866 -2.0525 -0.5868 -0.0488
 2754TIP3    H232458   0.219   1.856   9.986 -1.4453  0.9834 -1.2920
 2755TIP3   OH232459   1.569   2.342  12.154  0.3047  0.1227 -0.2369
 2755TIP3    H132460   1.629   2.270  12.178 -0.2623 -0.7901 -1.4820
 2755TIP3    H232461   1.614   2.387  12.083  0.2981  0.5320  0.0158
 2756TIP3   OH232462   1.275   1.451  10.763  0.0898 -0.0582  0.1054
 2756TIP3    H132463   1.256   1.364  10.726  0.6224 -0.3634  0.5466
 2756TIP3    H232464   1.257   1.441  10.856  2.1662 -0.3038  0.5230
 2757TIP3   OH232465   5.525   4.659   9.447  0.0166 -1.1032 -0.0505
 2757TIP3    H132466   5.463   4.621   9.511  0.3956  0.1463  1.1039
 2757TIP3    H232467   5.611   4.636   9.482  0.2327 -1.7120 -0.9551
 2758TIP3   OH232468   1.702   0.232   9.744 -0.0803  0.0782  0.1194
 2758TIP3    H132469   1.655   0.195   9.818  1.9008 -1.4758  0.7029
 2758TIP3    H232470   1.646   0.214   9.668 -0.0370 -2.6332  0.6258
 2759TIP3   OH232471   5.029   0.547  11.104  0.1404  0.6072 -0.1598
 2759TIP3    H132472   5.025   0.500  11.187 -0.0496  1.9074  0.5890
 2759TIP3    H232473   4.994   0.485  11.040  0.6084 -0.5387  0.6556
 2760TIP3   OH232474   4.614   4.805  11.038  0.0009 -0.7569  0.2059
 2760TIP3    H132475   4.543   4.769  11.091  0.2549 -0.4122  0.7943
 2760TIP3    H232476   4.690   4.804  11.096 -0.1130  1.2777  0.4724
 2761TIP3   OH232477   2.145   3.613   9.932 -0.2703 -0.1043 -1.1292
 2761TIP3    H132478   2.130   3.705   9.911  0.5128  0.0047 -1.2461
 2761TIP3    H232479   2.186   3.614  10.018  1.7064 -0.1790 -2.0097
 2762TIP3   OH232480   0.303   4.443   9.383  0.4459  0.0372 -0.1160
 2762TIP3    H132481   0.275   4.366   9.431  0.4965 -0.5731 -1.0365
 2762TIP3    H232482   0.398   4.446   9.397  0.1595  1.3744  1.9472
 2763TIP3   OH232483   5.125   6.233  11.893  0.0768  0.2187  0.2916
 2763TIP3    H132484   5.074   6.314  11.902  0.3710  0.4695 -0.2106
 2763TIP3    H232485   5.108   6.184  11.973  0.5061  1.1267  0.9526
 2764TIP3   OH232486   2.109   1.668  10.409 -0.1862 -0.0193 -0.5198
 2764TIP3    H132487   2.015   1.670  10.389 -0.7260 -0.0257  1.7475
 2764TIP3    H232488   2.149   1.720  10.340 -2.2246  2.6106  0.1268
 2765TIP3   OH232489   6.447   5.621  10.445  0.3400  0.1961  0.6810
 2765TIP3    H132490   6.518   5.647  10.503  1.5777 -0.1630 -0.6190
 2765TIP3    H232491   6.428   5.530  10.469  0.0362  0.4196  1.2987
 2766TIP3   OH232492   6.608   4.425  11.160  0.3538 -0.1668 -0.1546
 2766TIP3    H132493   6.694   4.408  11.198  0.2830  1.1254  0.6063
 2766TIP3    H232494   6.622   4.417  11.066  1.6994  1.6709 -0.1446
 2767TIP3   OH232495   2.833   2.877   9.384  0.5379 -0.1293 -0.3384
 2767TIP3    H132496   2.824   2.893   9.290  0.3784  0.1146 -0.2808
 2767TIP3    H232497   2.921   2.910   9.406  0.3494  0.3454 -0.2898
 2768TIP3   OH232498   2.767   1.633   9.692  0.0062  0.0963  0.4187
 2768TIP3    H132499   2.818   1.576   9.749  0.1034  1.6500  1.9686
 2768TIP3    H232500   2.676   1.607   9.705  0.0609  0.2027  1.0040
 2769TIP3   OH232501   6.447   6.578  11.618 -0.5099  0.0247 -0.6190
 2769TIP3    H132502   6.448   6.668  11.650  0.9101  0.0610 -0.7340
 2769TIP3    H232503   6.476   6.525  11.692 -1.2079 -0.3375 -0.5915
 2770TIP3   OH232504   3.673   1.097   9.928  0.1444  0.1852  0.2423
 2770TIP3    H132505   3.709   1.125  10.012 -1.8109  0.7191  0.9531
 2770TIP3    H232506   3.580   1.120   9.933 -0.3871 -1.4323 -1.3636
 2771TIP3   OH232507   1.794   3.891  10.348  0.0777 -0.2014 -0.3495
 2771TIP3    H132508   1.825   3.926  10.432 -0.5777 -1.0633  0.2690
 2771TIP3    H232509   1.701   3.877  10.361 -0.5363  1.8748 -2.0159
 2772TIP3   OH232510   3.953   3.659  11.878 -0.1626  0.1688  0.1388
 2772TIP3    H132511   4.027   3.602  11.860 -0.4838 -0.4163  0.6006
 2772TIP3    H232512   3.992   3.741  11.908  0.3996  1.3424 -3.4280
 2773TIP3   OH232513   0.931   4.958   9.376 -0.6214 -0.4983  0.5452
 2773TIP3    H132514   1.002   4.999   9.425  0.0347 -0.2812 -0.5610
 2773TIP3    H232515   0.971   4.932   9.293 -1.8579 -0.2622 -0.1451
 2774TIP3   OH232516   1.046   4.345  11.228  0.1059 -0.7142 -0.8538
 2774TIP3    H132517   1.003   4.287  11.291 -0.9459  1.0590  0.1110
 2774TIP3    H232518   1.100   4.403  11.281 -1.1538  1.1171 -1.4589
 2775TIP3   OH232519   2.507   5.424   9.836 -0.2996  0.0322 -0.1641
 2775TIP3    H132520   2.440   5.387   9.779 -0.7876  1.2226 -0.3985
 2775TIP3    H232521   2.576   5.358   9.838 -1.1290 -0.8727 -0.5541
 2776TIP3   OH232522   2.052   2.354  12.077  0.6439 -0.0627 -0.5996
 2776TIP3    H132523   2.145   2.349  12.095  1.1421 -0.8443 -2.9345
 2776TIP3    H232524   2.047   2.383  11.986 -1.3668 -0.3987 -0.6480
 2777TIP3   OH232525   0.187   0.184  12.305  0.0686  0.1412 -0.0647
 2777TIP3    H132526   0.126   0.111  12.292 -1.1370  1.1287 -0.0987
 2777TIP3    H232527   0.266   0.143  12.341 -1.0461 -1.0119  1.1537
 2778TIP3   OH232528   6.046   1.048  10.670  0.3609 -0.4041 -0.2582
 2778TIP3    H132529   6.052   1.124  10.613  0.8813 -0.7105 -0.6139
 2778TIP3    H232530   6.045   1.084  10.759  1.1116 -0.0147 -0.4093
 2779TIP3   OH232531   4.874   0.695  10.028  0.1771 -0.1851 -0.2724
 2779TIP3    H132532   4.842   0.608  10.052 -1.1935  0.3106 -0.1861
 2779TIP3    H232533   4.864   0.699   9.933  0.6925 -0.2833 -0.3345
 2780TIP3   OH232534   4.191   0.997  10.557  0.4525  0.3441  0.0054
 2780TIP3    H132535   4.157   1.054  10.626 -0.1049  0.3635 -0.2796
 2780TIP3    H232536   4.265   0.952  10.597  0.5881  0.8964  0.3883
 2781TIP3   OH232537   6.346   5.511   9.846 -0.2356 -0.1760 -0.3742
 2781TIP3    H132538   6.392   5.428   9.837  0.6048  0.1485  0.6906
 2781TIP3    H232539   6.288   5.515   9.770  1.0584 -0.8788 -1.4284
 2782TIP3   OH232540   1.793   4.936  10.513 -0.0919 -0.1490  0.3749
 2782TIP3    H132541   1.826   4.893  10.434  0.7256  0.1304  0.5557
 2782TIP3    H232542   1.724   4.879  10.545 -1.2682  0.3283 -1.2075
 2783TIP3   OH232543   2.206   0.419  10.492  0.1360  0.0217 -0.3867
 2783TIP3    H132544   2.235   0.480  10.559  0.3813 -0.5493  0.0358
 2783TIP3    H232545   2.275   0.421  10.426  0.6044 -0.4885  0.0742
 2784TIP3   OH232546   4.122   3.294  11.767 -0.0361 -0.0880  0.4138
 2784TIP3    H132547   4.131   3.388  11.751  0.8457 -0.4519 -1.4827
 2784TIP3    H232548   4.211   3.260  11.769 -0.3579 -1.1970 -1.2918
 2785TIP3   OH232549   4.365   6.699  11.164 -0.3341 -0.3650 -0.3491
 2785TIP3    H132550   4.325   6.784  11.183 -0.5074 -0.2072 -1.3529
 2785TIP3    H232551   4.366   6.694  11.068  1.8909 -0.4503 -0.3688
 2786TIP3   OH232552   1.098   0.844  11.774  0.4226  0.4311  0.1562
 2786TIP3    H132553   1.018   0.894  11.756  0.0702 -0.7743 -1.9116
 2786TIP3    H232554   1.164   0.881  11.715  0.3162 -1.0863 -0.9616
 2787TIP3   OH232555   5.808   3.287  10.096  0.2405 -0.4706  0.0670
 2787TIP3    H132556   5.751   3.311  10.023 -0.0283  0.3029  0.5190
 2787TIP3    H232557   5.889   3.258  10.055  0.8622  1.9204 -0.5440
 2788TIP3   OH232558   2.197   3.227  11.251 -0.1541  0.5306 -0.2131
 2788TIP3    H132559   2.114   3.178  11.243 -1.3225  2.5083 -0.9955
 2788TIP3    H232560   2.186   3.280  11.330  0.6587  0.3166  0.0468
 2789TIP3   OH232561   1.367   3.062  11.836 -0.3069  0.2052  0.2803
 2789TIP3    H132562   1.422   3.132  11.871  0.8908  0.2350 -1.5377
 2789TIP3    H232563   1.382   3.064  11.742 -3.1282 -0.0747 -0.2731
 2790TIP3   OH232564   5.622   0.496   9.007 -0.4389  0.4310  0.2737
 2790TIP3    H132565   5.539   0.475   9.049 -0.6372  1.3486  0.3527
 2790TIP3    H232566   5.622   0.591   8.999  0.2900  0.3902 -0.3737
 2791TIP3   OH232567   5.307   2.534   9.038  0.1114  0.3586  0.4943
 2791TIP3    H132568   5.349   2.600   9.094  1.3162 -0.7681  0.9793
 2791TIP3    H232569   5.214   2.554   9.044  0.2016  0.4229  2.7926
 2792TIP3   OH232570   6.585   5.895   9.242 -0.3917 -0.5961  0.0153
 2792TIP3    H132571   6.625   5.926   9.160 -0.1992  0.5085  0.5046
 2792TIP3    H232572   6.492   5.917   9.232  0.1081  2.8676  1.4565
 2793TIP3   OH232573   5.051   4.988   8.855  0.1869 -0.3183  0.0785
 2793TIP3    H132574   5.142   4.961   8.864  0.9715 -0.1403 -4.9566
 2793TIP3    H232575   5.054   5.083   8.847 -0.7006 -0.1484  1.3772
 2794TIP3   OH232576   6.571   3.841   9.279 -0.1619  0.2822  0.0797
 2794TIP3    H132577   6.476   3.838   9.266  0.0560 -0.3675 -1.6574
 2794TIP3    H232578   6.603   3.763   9.233  1.2843  0.9678 -0.1178
 2795TIP3   OH232579   5.024   3.561  10.089 -0.3082  0.6529  0.8267
 2795TIP3    H132580   5.105   3.510  10.091 -0.0245  1.0963  0.7994
 2795TIP3    H232581   4.971   3.524  10.160  0.2253  0.8457  1.3382
 2796TIP3   OH232582   6.384   2.503  11.307  0.8450 -0.0825  0.2339
 2796TIP3    H132583   6.296   2.503  11.270  0.3845 -1.3297  1.2528
 2796TIP3    H232584   6.398   2.592  11.337 -0.4014 -0.0542  0.7742
 2797TIP3   OH232585   1.285   4.393  10.824  0.4951 -0.3994  0.3960
 2797TIP3    H132586   1.228   4.446  10.880 -1.3758 -1.5233 -0.3509
 2797TIP3    H232587   1.309   4.452  10.752  0.9221  0.3229  1.1203
 2798TIP3   OH232588   2.936   6.495  10.363 -0.4698  0.1650  0.4493
 2798TIP3    H132589   2.954   6.513  10.271 -0.1847 -0.4383  0.3861
 2798TIP3    H232590   2.842   6.513  10.372 -0.3433  0.9983  0.2329
 2799TIP3   OH232591   4.367   3.276  11.077 -0.4172  0.5425 -0.1081
 2799TIP3    H132592   4.360   3.318  11.163 -0.5482  0.6031 -0.1488
 2799TIP3    H232593   4.445   3.316  11.037 -0.3959  0.5640 -0.0463
 2800TIP3   OH232594   4.359   2.254   9.238 -0.1076 -0.4415  0.2739
 2800TIP3    H132595   4.381   2.344   9.264  0.3247 -0.8000  1.1896
 2800TIP3    H232596   4.272   2.261   9.198 -1.5761 -0.0606  3.3064
 2801TIP3   OH232597   1.946   3.526   8.655  0.0979 -0.0492  0.6259
 2801TIP3    H132598   2.030   3.559   8.685  0.3926 -0.5982  0.4190
 2801TIP3    H232599   1.922   3.458   8.718 -1.4601  1.8600  2.1983
 2802TIP3   OH232600   6.263   4.223  10.462  0.0084 -0.3708 -0.3303
 2802TIP3    H132601   6.218   4.164  10.522  0.2368 -0.2027  0.0088
 2802TIP3    H232602   6.329   4.266  10.516  1.5857 -1.6825 -1.1238
 2803TIP3   OH232603   3.201   4.082  11.025  1.3229  0.2942  0.4552
 2803TIP3    H132604   3.207   4.106  10.933  1.3561 -1.3256 -0.0068
 2803TIP3    H232605   3.292   4.067  11.052  1.2325 -0.4938  0.3609
 2804TIP3   OH232606   6.362   3.601  10.808 -0.3832  0.4943 -0.0736
 2804TIP3    H132607   6.303   3.672  10.830 -0.6881 -0.4740  2.4934
 2804TIP3    H232608   6.440   3.617  10.861  0.9127  0.6598 -1.9313
 2805TIP3   OH232609   0.194   1.429  11.004 -0.2858 -0.1348  0.8058
 2805TIP3    H132610   0.261   1.438  10.936  1.4920 -1.4688  2.2951
 2805TIP3    H232611   0.159   1.517  11.014  0.6635  0.4469 -0.5838
 2806TIP3   OH232612   2.980   4.287   9.435 -0.2076  0.3186 -0.4387
 2806TIP3    H132613   2.895   4.252   9.407  0.4116 -1.3416 -0.3608
 2806TIP3    H232614   2.986   4.372   9.392 -0.9447 -0.5080 -2.2925
 2807TIP3   OH232615   0.909   3.043  10.744  0.2535 -0.1635 -0.0875
 2807TIP3    H132616   0.890   3.101  10.670  0.2117 -3.0781 -2.5512
 2807TIP3    H232617   1.004   3.036  10.745  0.5641  2.5175  2.4934
 2808TIP3   OH232618   5.078   1.800  11.049  0.2439 -0.0623  0.1183
 2808TIP3    H132619   5.129   1.776  10.972 -1.7705 -0.9159 -1.0209
 2808TIP3    H232620   5.100   1.734  11.115  1.3129  0.1610 -0.0005
 2809TIP3   OH232621   1.122   0.100  10.653 -0.4994  0.2863  0.5228
 2809TIP3    H132622   1.199   0.123  10.601 -0.8135 -1.0552 -0.5685
 2809TIP3    H232623   1.158   0.061  10.733  0.0222 -2.1212 -0.7918
 2810TIP3   OH232624   6.190   5.612   9.336 -0.2367  0.6779 -0.1069
 2810TIP3    H132625   6.121   5.546   9.330  0.3239 -0.2362  2.4604
 2810TIP3    H232626   6.210   5.634   9.245 -1.1296 -1.9865 -1.0259
 2811TIP3   OH232627   2.885   5.690  11.225 -0.0767  0.1684  0.6257
 2811TIP3    H132628   2.854   5.600  11.218 -0.9531  0.4584  0.7027
 2811TIP3    H232629   2.812   5.738  11.265  0.5970  0.7957  1.1450
 2812TIP3   OH232630   6.395   4.388  11.781  0.4495 -0.0686 -0.1846
 2812TIP3    H132631   6.324   4.451  11.786  0.8262  0.3573 -0.1578
 2812TIP3    H232632   6.360   4.316  11.729 -0.8153 -0.9394  1.7761
 2813TIP3   OH232633   2.748   2.528  12.198  0.2683 -0.0750  0.2409
 2813TIP3    H132634   2.661   2.536  12.236 -0.0124 -0.4683 -0.3000
 2813TIP3    H232635   2.744   2.583  12.119 -0.5811 -2.6220 -1.6266
 2814TIP3   OH232636   2.287   3.347   9.734  0.2810  0.1040 -0.5894
 2814TIP3    H132637   2.307   3.406   9.807  1.9449 -2.2138  0.9772
 2814TIP3    H232638   2.260   3.265   9.776  0.4323 -1.0301 -2.5867
 2815TIP3   OH232639   3.198   4.476  12.240  0.3809  0.4080 -0.2241
 2815TIP3    H132640   3.215   4.545  12.305 -1.4794 -0.0997  0.8802
 2815TIP3    H232641   3.263   4.408  12.259  0.5246  0.7242  0.4288
 2816TIP3   OH232642   5.870   6.078   9.003  0.2602  0.2179  0.3374
 2816TIP3    H132643   5.813   6.123   8.940 -2.2535 -1.1170  1.4871
 2816TIP3    H232644   5.903   6.002   8.956  1.8583  1.4484 -0.6035
 2817TIP3   OH232645   4.575   4.572   9.029 -0.2191 -0.1295  0.0985
 2817TIP3    H132646   4.540   4.641   8.972  0.3895 -1.5996 -2.1722
 2817TIP3    H232647   4.655   4.610   9.065 -0.6054  0.8362 -0.0184
 2818TIP3   OH232648   5.604   3.038   8.250  0.4665 -0.1924  0.0335
 2818TIP3    H132649   5.549   3.027   8.328  0.5289 -0.0998  0.0922
 2818TIP3    H232650   5.625   2.949   8.222 -0.3665 -0.2431 -0.4594
 2819TIP3   OH232651   1.454   6.014  11.553  0.4167 -0.0782  0.3657
 2819TIP3    H132652   1.380   6.041  11.497  1.1926  0.0595 -0.6297
 2819TIP3    H232653   1.483   5.931  11.515  2.0177  0.8428 -0.5082
 2820TIP3   OH232654   5.564   5.044   9.466 -0.2523  0.1581  0.3822
 2820TIP3    H132655   5.497   5.028   9.399  1.1512 -2.5335 -0.5239
 2820TIP3    H232656   5.644   5.061   9.415  0.7840 -1.6653  1.3193
 2821TIP3   OH232657   6.336   0.999  11.304  0.7560 -0.2130 -0.0710
 2821TIP3    H132658   6.363   1.036  11.220 -1.7731 -0.2757 -1.0097
 2821TIP3    H232659   6.375   0.911  11.306  1.1417 -0.0678 -0.9872
 2822TIP3   OH232660   5.766   5.813  10.565  0.0479  0.5964  0.6973
 2822TIP3    H132661   5.745   5.852  10.480 -1.2930  1.3266  1.3409
 2822TIP3    H232662   5.682   5.782  10.599  0.6270 -0.0599  1.5853
 2823TIP3   OH232663   2.004   1.338  10.787  0.0992  0.1248 -0.2674
 2823TIP3    H132664   2.061   1.361  10.861  0.2049  0.7254 -0.5250
 2823TIP3    H232665   2.032   1.396  10.716 -0.5621  0.1492 -0.5230
 2824TIP3   OH232666   5.004   0.266  11.151 -0.2165 -0.4028 -0.0315
 2824TIP3    H132667   5.029   0.256  11.060 -0.7339  1.6066 -0.4408
 2824TIP3    H232668   4.933   0.203  11.163 -0.5976 -0.2297 -1.2303
 2825TIP3   OH232669   2.879   0.008  11.245 -1.0625  0.4534  0.5238
 2825TIP3    H132670   2.968  -0.024  11.257  0.1559  2.8145 -1.4687
 2825TIP3    H232671   2.887   0.103  11.246 -3.3237  0.7462 -1.0864
 2826TIP3   OH232672   1.296   6.490  11.753  0.1827  0.1076  0.4016
 2826TIP3    H132673   1.253   6.452  11.829 -1.9256 -1.6249 -1.5112
 2826TIP3    H232674   1.224   6.517  11.696  1.6805  1.6932 -0.8712
 2827TIP3   OH232675   1.795   2.197  12.163  0.4132  0.1627 -0.1597
 2827TIP3    H132676   1.863   2.264  12.171  0.5933  0.0306 -0.5448
 2827TIP3    H232677   1.843   2.114  12.159  0.1848 -0.0095  0.4984
 2828TIP3   OH232678   0.262   1.311   9.155  0.1267 -0.3194  0.2862
 2828TIP3    H132679   0.178   1.355   9.166 -0.0786 -0.9615  1.4897
 2828TIP3    H232680   0.260   1.278   9.066 -0.6450  0.1980  0.1015
 2829TIP3   OH232681   1.545   4.796   8.305  0.3190 -0.4910 -0.2388
 2829TIP3    H132682   1.519   4.722   8.249  1.1243 -0.3114 -0.8614
 2829TIP3    H232683   1.568   4.755   8.388 -2.6866 -0.6017  0.6621
 2830TIP3   OH232684   3.951   2.728  10.407  0.3329 -0.5257 -0.1196
 2830TIP3    H132685   3.969   2.807  10.458 -0.2956 -0.8367  0.6108
 2830TIP3    H232686   4.038   2.696  10.381  0.6422 -0.1248  0.3938
 2831TIP3   OH232687   0.537   6.555  11.196  0.0575 -0.0410  0.2492
 2831TIP3    H132688   0.590   6.588  11.123 -2.2123 -0.1421 -1.5478
 2831TIP3    H232689   0.518   6.632  11.249  0.2952  0.3559 -0.2336
 2832TIP3   OH232690   1.597   3.353   8.530 -0.1952  0.2884  0.2590
 2832TIP3    H132691   1.593   3.269   8.576  1.3098  0.7612  1.3567
 2832TIP3    H232692   1.631   3.332   8.443 -2.1573 -0.4980 -0.3778
 2833TIP3   OH232693   3.881   3.340  10.311 -0.9568 -0.1395  0.4694
 2833TIP3    H132694   3.976   3.347  10.320 -1.0213 -0.8993  2.1864
 2833TIP3    H232695   3.867   3.260  10.261 -0.6794  1.4563 -2.3468
 2834TIP3   OH232696   2.408   1.632  10.362  0.2708 -0.2348  0.8203
 2834TIP3    H132697   2.353   1.553  10.355  1.2206 -0.8800  0.4353
 2834TIP3    H232698   2.348   1.704  10.344 -0.4364 -0.9278  0.3067
 2835TIP3   OH232699   1.807   2.457  10.646  0.1483 -0.3955 -0.5706
 2835TIP3    H132700   1.735   2.405  10.682  0.2825 -0.9526 -1.0857
 2835TIP3    H232701   1.782   2.548  10.662 -0.2382 -0.6046  0.0686
 2836TIP3   OH232702   5.524   3.403  11.556 -0.4883  0.4774 -0.3744
 2836TIP3    H132703   5.584   3.456  11.608  1.4383 -0.7511 -1.2560
 2836TIP3    H232704   5.519   3.447  11.472 -0.3537  0.2417 -0.5051
 2837TIP3   OH232705   5.211   5.625   9.372 -0.7315 -0.3845 -0.6082
 2837TIP3    H132706   5.151   5.699   9.385  0.2655  0.5195 -0.9533
 2837TIP3    H232707   5.200   5.601   9.280  0.6350  0.9155 -1.1503
 2838TIP3   OH232708   0.744   2.572  10.156  0.0216  0.0307  0.4992
 2838TIP3    H132709   0.722   2.524  10.236 -1.2649 -0.3629 -0.0544
 2838TIP3    H232710   0.726   2.663  10.176 -1.9725 -0.2446  0.1700
 2839TIP3   OH232711   6.611   5.668  11.768 -0.2129  0.2455  0.1634
 2839TIP3    H132712   6.683   5.654  11.830  1.5845  0.1526 -1.8007
 2839TIP3    H232713   6.550   5.596  11.783 -0.1116  0.5357  2.1436
 2840TIP3   OH232714   2.885   4.188  11.337 -0.0391  0.9456 -0.1655
 2840TIP3    H132715   2.942   4.243  11.390  0.9353 -0.4764  0.3279
 2840TIP3    H232716   2.797   4.224  11.350  0.4048  1.6006  1.1519
 2841TIP3   OH232717   5.722   0.807   9.581 -0.0851 -0.1688 -0.2122
 2841TIP3    H132718   5.700   0.900   9.590 -2.9920 -0.7765 -0.1756
 2841TIP3    H232719   5.817   0.806   9.569 -0.0458  2.8416 -0.8670
 2842TIP3   OH232720   0.986   3.244   8.794 -0.0214  0.3698 -0.2555
 2842TIP3    H132721   1.076   3.221   8.771  0.4723  2.3963 -0.5648
 2842TIP3    H232722   0.955   3.297   8.720 -1.5876 -0.5086 -0.2822
 2843TIP3   OH232723   0.455   3.884   9.981  0.2180 -0.1264  0.8850
 2843TIP3    H132724   0.543   3.853   9.960 -0.3819 -0.6385 -1.0808
 2843TIP3    H232725   0.468   3.946  10.053  2.2595  0.3282  0.1970
 2844TIP3   OH232726   5.690   0.547   9.287  0.1473 -0.4845  0.1992
 2844TIP3    H132727   5.699   0.552   9.191  0.0633 -0.2122  0.2032
 2844TIP3    H232728   5.613   0.492   9.301  0.2410 -0.6386  0.1136
 2845TIP3   OH232729   5.782   3.337   9.127  0.0474 -0.2302  0.3827
 2845TIP3    H132730   5.809   3.290   9.206 -0.6152  0.4417  1.0289
 2845TIP3    H232731   5.862   3.380   9.096  0.6745 -1.7771 -0.2490
 2846TIP3   OH232732   1.367   3.666  11.025 -0.3343 -0.4374 -0.1044
 2846TIP3    H132733   1.274   3.670  11.000 -0.2817 -0.7964 -0.3572
 2846TIP3    H232734   1.367   3.685  11.119 -0.4141  2.4712 -0.5781
 2847TIP3   OH232735   2.768   3.553   9.903  0.0465 -0.8295  0.2175
 2847TIP3    H132736   2.766   3.641   9.865  1.1874  0.1398  2.2584
 2847TIP3    H232737   2.857   3.523   9.888 -0.2361 -1.5078 -0.1391
 2848TIP3   OH232738   5.460   5.460   9.732  0.6080  0.6217  0.1665
 2848TIP3    H132739   5.502   5.374   9.730  0.4324  0.5142  0.8228
 2848TIP3    H232740   5.414   5.462   9.816  0.3409  1.2295  0.0108
 2849TIP3   OH232741   5.600   2.892  10.596  0.4768 -0.2970  0.5109
 2849TIP3    H132742   5.535   2.865  10.532  0.1533  1.7502 -0.1019
 2849TIP3    H232743   5.576   2.982  10.619  2.6364  0.2786  0.8191
 2850TIP3   OH232744   2.330   3.393   9.478 -0.2433 -0.7326 -0.3761
 2850TIP3    H132745   2.353   3.315   9.426  1.2998 -1.0316  0.6805
 2850TIP3    H232746   2.330   3.362   9.569 -0.4828  0.3185 -0.0066
 2851TIP3   OH232747   5.949   4.352  11.925  0.1424 -0.1783  0.5203
 2851TIP3    H132748   5.940   4.351  12.021  0.9041 -2.1742  0.6094
 2851TIP3    H232749   6.030   4.401  11.909  0.8725 -1.1821  1.0202
 2852TIP3   OH232750   3.173   3.052  12.036  0.0953  0.2631 -0.1754
 2852TIP3    H132751   3.115   2.984  12.070  0.4848 -0.5956 -1.1916
 2852TIP3    H232752   3.114   3.116  11.996 -0.2384  0.2974  0.3506
 2853TIP3   OH232753   4.751   4.753  11.452  0.2358 -0.0546 -0.0322
 2853TIP3    H132754   4.697   4.677  11.430  2.0610 -1.3807 -0.0858
 2853TIP3    H232755   4.687   4.819  11.481 -1.3340 -1.9940  1.2499
 2854TIP3   OH232756   1.654   0.958  12.011  0.5086  0.2855 -0.1800
 2854TIP3    H132757   1.718   0.937  11.943  1.3102  0.2622  0.5717
 2854TIP3    H232758   1.569   0.947  11.967  0.7310 -4.5981  0.0121
 2855TIP3   OH232759   3.478   0.295  12.178 -0.3477  0.0681 -0.4747
 2855TIP3    H132760   3.433   0.212  12.189 -0.8176  0.0986 -1.9159
 2855TIP3    H232761   3.415   0.362  12.205 -0.0407 -0.0074  0.4861
 2856TIP3   OH232762   1.897   1.386  12.370 -0.1588 -0.4689 -0.0671
 2856TIP3    H132763   1.862   1.453  12.312  2.6098  0.8232 -0.4023
 2856TIP3    H232764   1.837   1.312  12.360 -1.7887  0.9866 -1.7710
 2857TIP3   OH232765   4.407   4.771  10.572 -0.2879 -0.0050  0.2571
 2857TIP3    H132766   4.497   4.793  10.547 -0.8631  0.5090 -1.5577
 2857TIP3    H232767   4.366   4.855  10.591 -0.6300 -0.1383  0.1224
 2858TIP3   OH232768   5.258   1.326  11.609  0.0667 -0.1797 -0.0822
 2858TIP3    H132769   5.286   1.358  11.695 -1.4827 -0.0552  0.4011
 2858TIP3    H232770   5.284   1.395  11.548 -0.3884  0.5428  0.5276
 2859TIP3   OH232771   0.260   2.419  11.106  0.2673 -0.0425 -0.2919
 2859TIP3    H132772   0.236   2.405  11.198 -2.0752  0.7840 -0.7164
 2859TIP3    H232773   0.315   2.344  11.084  0.1453 -0.7096  1.5479
 2860TIP3   OH232774   3.803   3.397  10.598  0.1115 -1.0241  0.0128
 2860TIP3    H132775   3.755   3.367  10.521 -0.6265  0.7175 -0.2486
 2860TIP3    H232776   3.891   3.417  10.565 -0.7490  1.6764 -0.9259
 2861TIP3   OH232777   4.281   3.860  10.130  0.1845  0.3197  0.1128
 2861TIP3    H132778   4.204   3.911  10.106  0.2131  0.6296  0.6626
 2861TIP3    H232779   4.336   3.860  10.052  0.3502  1.4441  0.2213
 2862TIP3   OH232780   1.854   0.138  12.030  0.2915  0.0316 -0.7142
 2862TIP3    H132781   1.759   0.141  12.020 -0.0599 -0.4431  1.8103
 2862TIP3    H232782   1.882   0.229  12.024 -0.5791  0.3878  0.2626
 2863TIP3   OH232783   1.969   5.651   8.974  0.9873 -0.1152 -0.0821
 2863TIP3    H132784   2.001   5.619   9.059  1.9217  1.0311  0.0318
 2863TIP3    H232785   1.875   5.636   8.977  1.0097 -0.1890  1.1235
 2864TIP3   OH232786   3.211   3.867  11.859  0.7201 -0.4761 -0.1786
 2864TIP3    H132787   3.277   3.930  11.828 -1.4160  1.2497 -1.5234
 2864TIP3    H232788   3.163   3.913  11.927  0.4587 -1.4598  0.3250
 2865TIP3   OH232789   1.060   5.280  11.571 -0.9040 -0.0055  0.5462
 2865TIP3    H132790   1.133   5.339  11.553 -1.8246  1.3861  1.1810
 2865TIP3    H232791   0.988   5.314  11.517 -1.6718 -0.0300  1.5133
 2866TIP3   OH232792   1.565   3.306   9.287 -0.1988 -0.0121 -0.4386
 2866TIP3    H132793   1.579   3.357   9.367 -0.6678 -1.5182  0.6474
 2866TIP3    H232794   1.636   3.333   9.228  0.6168  0.5429  0.7700
 2867TIP3   OH232795   6.222   4.099  12.199  0.5672  0.3193  0.2774
 2867TIP3    H132796   6.225   4.125  12.291  0.7786 -0.6136  0.5431
 2867TIP3    H232797   6.245   4.179  12.151  2.8821  0.2629  1.1463
 2868TIP3   OH232798   5.052   1.295   9.514 -0.5745 -0.5447 -0.0339
 2868TIP3    H132799   5.039   1.388   9.496 -0.4769 -0.3632  0.8223
 2868TIP3    H232800   5.001   1.278   9.593  0.8089 -0.8112  0.8423
 2869TIP3   OH232801   6.024   6.405  10.067 -0.0428  0.0710 -0.0924
 2869TIP3    H132802   6.072   6.458  10.004 -0.6693  1.3226  0.4427
 2869TIP3    H232803   6.040   6.447  10.151 -1.8329  0.3981  0.1339
 2870TIP3   OH232804   5.884   3.689   8.414 -0.5737  0.9377  0.3157
 2870TIP3    H132805   5.857   3.615   8.469  1.8996  0.4547  1.0096
 2870TIP3    H232806   5.893   3.651   8.326  1.7681  0.0573  0.8746
 2871TIP3   OH232807   1.254   0.422  12.108  0.3062  0.8487  0.4552
 2871TIP3    H132808   1.188   0.370  12.154  0.8539  0.7724  1.1631
 2871TIP3    H232809   1.210   0.449  12.027  0.0975 -0.9562 -0.0791
 2872TIP3   OH232810   2.740   4.764   9.441 -0.1775 -0.1434  0.0749
 2872TIP3    H132811   2.773   4.850   9.414 -0.1181  1.3280  4.1311
 2872TIP3    H232812   2.817   4.719   9.477 -0.1912 -2.0386 -2.0689
 2873TIP3   OH232813   3.339   0.100  11.381  0.2189 -0.3443 -0.5619
 2873TIP3    H132814   3.411   0.040  11.402 -0.4764 -1.7500 -1.9495
 2873TIP3    H232815   3.374   0.158  11.313  0.1220 -0.9082 -1.1032
 2874TIP3   OH232816   0.272   5.354   9.243 -0.4004  0.0707  0.1609
 2874TIP3    H132817   0.282   5.268   9.202 -0.3625  0.4125 -0.5634
 2874TIP3    H232818   0.356   5.372   9.283  0.2619  0.6410 -1.4153
 2875TIP3   OH232819   2.201   5.076   9.973 -0.1047 -0.2083  0.1450
 2875TIP3    H132820   2.150   5.036   9.903 -0.3596  2.5126 -1.3767
 2875TIP3    H232821   2.214   5.006  10.037  0.2640 -2.8933 -2.6436
 2876TIP3   OH232822   0.706   0.464   9.090 -0.4609 -0.7550 -0.4550
 2876TIP3    H132823   0.715   0.369   9.089 -0.3774 -0.7449 -1.1028
 2876TIP3    H232824   0.795   0.497   9.090 -0.4768 -0.6694  0.7523
 2877TIP3   OH232825   4.984   4.617   9.343  0.3487 -0.5207  0.0478
 2877TIP3    H132826   4.941   4.581   9.265  0.5698 -1.0730  0.1785
 2877TIP3    H232827   4.915   4.622   9.409  0.6168 -2.0632  0.4779
 2878TIP3   OH232828   3.888   6.389  11.978 -0.1545  0.2327  0.3011
 2878TIP3    H132829   3.953   6.320  11.962  0.3864  0.7877  0.0480
 2878TIP3    H232830   3.941   6.465  12.005 -0.7921  0.3328  1.3107
 2879TIP3   OH232831   0.461   3.856  10.476 -0.0024 -0.1714  0.1008
 2879TIP3    H132832   0.531   3.842  10.413  0.0156  2.0006 -0.4376
 2879TIP3    H232833   0.491   3.929  10.530 -1.6165  0.4802  0.1848
 2880TIP3   OH232834   2.468   2.441  12.213 -0.7752  0.4512 -0.3012
 2880TIP3    H132835   2.499   2.381  12.146 -1.6705  2.9153 -3.1577
 2880TIP3    H232836   2.438   2.385  12.284 -0.0666 -2.3456 -2.0698
 2881TIP3   OH232837   2.917   3.043  11.129 -0.4519  0.0780 -0.0650
 2881TIP3    H132838   2.880   2.978  11.069  2.0414  0.1045 -1.7941
 2881TIP3    H232839   2.953   3.111  11.071  2.2108  0.0434  1.3859
 2882TIP3   OH232840   6.327   2.898   9.538  0.1032  0.1026  0.0255
 2882TIP3    H132841   6.379   2.850   9.602 -1.3517 -3.3920 -1.1320
 2882TIP3    H232842   6.390   2.920   9.468  0.7550 -0.6724  0.3444
 2883TIP3   OH232843   4.328   2.510   9.314  0.5823  0.2339  1.1563
 2883TIP3    H132844   4.245   2.554   9.294 -0.2129 -0.8462  1.9829
 2883TIP3    H232845   4.389   2.582   9.333  0.0145  1.0680 -0.0004
 2884TIP3   OH232846   2.189   6.696  10.845  0.5920  0.1434  0.0649
 2884TIP3    H132847   2.209   6.789  10.853  2.1473 -0.1894  0.5017
 2884TIP3    H232848   2.106   6.693  10.798  0.4797  1.7442  0.0982
 2885TIP3   OH232849   2.096   5.979  10.775 -0.2708  0.3470  0.3052
 2885TIP3    H132850   2.141   6.032  10.841 -0.2200 -0.5843  1.0467
 2885TIP3    H232851   2.121   5.889  10.796 -3.1613 -0.3187  1.3118
 2886TIP3   OH232852   3.659   1.839  10.018  0.0133  0.0086 -0.2861
 2886TIP3    H132853   3.694   1.914   9.971 -0.0174 -0.6515 -1.3901
 2886TIP3    H232854   3.609   1.878  10.090  1.8010  0.9927  0.5003
 2887TIP3   OH232855   6.098   1.299  10.314 -0.0556  0.2003  0.0528
 2887TIP3    H132856   6.048   1.378  10.295 -1.2273 -0.3326  0.8229
 2887TIP3    H232857   6.079   1.280  10.406  0.6722 -0.6505  0.0434
 2888TIP3   OH232858   2.908   2.489  10.748 -0.2324 -0.1373  0.2578
 2888TIP3    H132859   2.840   2.511  10.811 -0.0033  0.2760  0.3610
 2888TIP3    H232860   2.968   2.564  10.749  0.6825 -0.8639  0.7784
 2889TIP3   OH232861   6.124   3.662  11.571 -0.0989 -0.2823 -0.3103
 2889TIP3    H132862   6.132   3.648  11.665 -0.0071  1.1369 -0.0842
 2889TIP3    H232863   6.214   3.672  11.541 -0.0911 -1.3687 -0.6615
 2890TIP3   OH232864   2.373   5.171   9.370  0.2350  0.0289 -0.4154
 2890TIP3    H132865   2.366   5.077   9.389 -0.1803  0.5111  2.0552
 2890TIP3    H232866   2.463   5.193   9.392 -0.0833  0.4862  0.4620
 2891TIP3   OH232867   5.379   1.149  10.064  0.3653  0.1921  0.4561
 2891TIP3    H132868   5.470   1.150  10.095  0.7729 -0.4628 -0.6632
 2891TIP3    H232869   5.386   1.131   9.970 -0.9079  0.5248  0.2832
 2892TIP3   OH232870   4.162   4.763   9.404  0.3133  0.1087 -0.3985
 2892TIP3    H132871   4.141   4.670   9.396  0.3893  0.2167 -2.1714
 2892TIP3    H232872   4.258   4.766   9.405  0.3117  0.1513  0.1526
 2893TIP3   OH232873   6.377   2.751   9.973 -0.3682 -0.4895  0.3591
 2893TIP3    H132874   6.288   2.785   9.977  0.4273  1.6163  2.3524
 2893TIP3    H232875   6.407   2.772   9.884 -1.3967  0.0067  0.1113
 2894TIP3   OH232876   4.097   4.021   8.734  0.1980  0.3185 -0.0190
 2894TIP3    H132877   4.093   4.116   8.737  1.4056  0.4212 -0.8197
 2894TIP3    H232878   4.133   4.001   8.647  0.9765 -0.8092  0.5349
 2895TIP3   OH232879   4.832   0.386   9.711  0.4898 -0.0767 -0.0076
 2895TIP3    H132880   4.838   0.482   9.718  1.9532 -0.2150  1.0915
 2895TIP3    H232881   4.916   0.355   9.744  0.9675 -1.6761 -2.4369
 2896TIP3   OH232882   2.854   3.430  11.941  0.1627 -0.0578  0.6767
 2896TIP3    H132883   2.759   3.419  11.945 -0.0785  0.7966 -1.3223
 2896TIP3    H232884   2.879   3.394  11.856  1.4105  1.1115  0.5135
 2897TIP3   OH232885   4.396   6.493  10.752  0.2008 -0.4068  0.4348
 2897TIP3    H132886   4.395   6.431  10.825 -0.0742  0.0744  0.8484
 2897TIP3    H232887   4.396   6.579  10.794 -2.9823 -0.0186 -0.0667
 2898TIP3   OH232888   0.423   1.422  11.179 -0.1207 -0.5522 -0.2044
 2898TIP3    H132889   0.445   1.368  11.103 -0.5277 -1.8365  0.5702
 2898TIP3    H232890   0.344   1.470  11.153 -1.1845 -2.1655 -0.0625
 2899TIP3   OH232891   4.716   1.978   9.937 -0.2225 -0.0765  0.1904
 2899TIP3    H132892   4.754   1.963  10.024  0.4264 -0.4049 -0.1369
 2899TIP3    H232893   4.750   1.905   9.884  1.5870  1.5358 -1.0121
 2900TIP3   OH232894   1.152   3.516  10.100 -0.6194 -0.5930 -0.0600
 2900TIP3    H132895   1.193   3.596  10.133 -1.1445 -0.2060 -0.3309
 2900TIP3    H232896   1.180   3.448  10.160  0.4321 -0.3407 -0.2403
 2901TIP3   OH232897   3.096   5.373  12.016 -0.4836  0.2814 -0.1538
 2901TIP3    H132898   3.002   5.358  12.005 -0.1315 -2.8366  0.1057
 2901TIP3    H232899   3.104   5.414  12.102 -1.5462 -1.1367  0.6641
 2902TIP3   OH232900   1.590   4.755  11.941  0.0607 -0.3971 -0.2415
 2902TIP3    H132901   1.503   4.736  11.976  0.0912  0.8060  0.5477
 2902TIP3    H232902   1.574   4.813  11.867  0.2402  1.4702  1.1059
 2903TIP3   OH232903   5.841   5.106   9.721  0.0949  0.5010  0.3681
 2903TIP3    H132904   5.895   5.160   9.778 -0.4297  0.6073  0.7753
 2903TIP3    H232905   5.812   5.034   9.777  1.2818 -0.5580 -0.3205
 2904TIP3   OH232906   0.001   1.266  11.114 -0.4409  0.5468  0.3555
 2904TIP3    H132907   0.046   1.181  11.109  0.1138  0.8886 -1.8828
 2904TIP3    H232908   0.067   1.329  11.084 -0.7769  1.8403  2.1888
 2905TIP3   OH232909   4.367   1.164  11.383 -0.3779 -0.1353  0.0532
 2905TIP3    H132910   4.400   1.227  11.447  0.2348 -0.4271  0.0289
 2905TIP3    H232911   4.287   1.205  11.349 -1.2696 -0.3979  1.6934
 2906TIP3   OH232912   5.858   3.829   9.209  0.8459  0.0956 -0.4868
 2906TIP3    H132913   5.825   3.753   9.257 -0.0852  0.3590 -0.6770
 2906TIP3    H232914   5.939   3.799   9.168  0.9403 -0.5297  0.1514
 2907TIP3   OH232915   0.720   2.984  11.471 -0.5583 -0.1315  0.6315
 2907TIP3    H132916   0.691   2.912  11.416 -0.8905  0.2038  0.3652
 2907TIP3    H232917   0.725   2.947  11.559 -1.6458 -0.2297  0.6554
 2908TIP3   OH232918   4.434   1.714   8.590  0.0789  0.8634 -0.2044
 2908TIP3    H132919   4.490   1.642   8.618 -0.2783  0.4802 -0.4675
 2908TIP3    H232920   4.345   1.680   8.598 -0.0512  0.9572 -1.2163
 2909TIP3   OH232921   2.096   0.027   9.721  0.2499 -0.1838  0.2428
 2909TIP3    H132922   2.036  -0.044   9.740 -0.4001 -0.0366 -1.1490
 2909TIP3    H232923   2.169  -0.015   9.674  0.6603 -0.1680  0.8471
 2910TIP3   OH232924   3.431   6.620  10.997  0.0007 -0.9194  0.8895
 2910TIP3    H132925   3.403   6.695  10.945 -0.4137  0.0664  2.4914
 2910TIP3    H232926   3.351   6.573  11.017  0.0169 -0.6238  1.6551
 2911TIP3   OH232927   1.523   6.053  11.997 -0.4033  0.3496 -0.3844
 2911TIP3    H132928   1.543   6.142  12.027  1.0480 -0.3854  0.9359
 2911TIP3    H232929   1.449   6.065  11.936 -1.4181  2.2510  1.0868
 2912TIP3   OH232930   2.668   6.358  11.639  0.5104 -0.4314  0.1788
 2912TIP3    H132931   2.702   6.277  11.677 -0.2481 -0.1395  1.5582
 2912TIP3    H232932   2.738   6.422  11.650  1.0263 -0.8237 -0.7152
 2913TIP3   OH232933   0.669   6.545  11.650  0.2993  0.1300 -0.5710
 2913TIP3    H132934   0.577   6.567  11.633  0.2919 -0.2834 -1.0923
 2913TIP3    H232935   0.712   6.630  11.660 -0.0239  0.3451 -0.9511
 2914TIP3   OH232936   3.310   0.723  10.663  0.3110 -0.1796  0.1521
 2914TIP3    H132937   3.285   0.659  10.730  1.1973 -0.1025  0.5752
 2914TIP3    H232938   3.258   0.699  10.586 -1.1373  0.0739  1.0171
 2915TIP3   OH232939   5.850   1.292   9.771  0.5263  0.3491  0.7456
 2915TIP3    H132940   5.774   1.320   9.721  0.3484 -0.3713  0.5970
 2915TIP3    H232941   5.916   1.360   9.756  0.5474  0.0603 -0.6255
 2916TIP3   OH232942   3.846   6.195  11.063  0.5972  0.4040 -0.3136
 2916TIP3    H132943   3.838   6.101  11.078  3.0673  0.1550 -0.2914
 2916TIP3    H232944   3.802   6.234  11.139 -0.6758 -0.6824 -0.4426
 2917TIP3   OH232945   0.014   3.750  10.856  0.2861  0.0794  0.5715
 2917TIP3    H132946   0.102   3.765  10.892 -0.1815  1.1976  1.3078
 2917TIP3    H232947  -0.037   3.720  10.931 -0.1104  0.0001  0.2732
 2918TIP3   OH232948   0.427   4.011  11.443  0.2854 -0.2784  0.0798
 2918TIP3    H132949   0.416   3.933  11.498  1.6472 -0.2732  0.3826
 2918TIP3    H232950   0.360   4.071  11.475 -1.6179 -1.7077 -0.9476
 2919TIP3   OH232951   2.428   1.504  11.035  0.3275  0.0406 -0.4645
 2919TIP3    H132952   2.497   1.495  10.969 -0.0268 -1.0740 -0.7098
 2919TIP3    H232953   2.463   1.461  11.113  0.3922  0.5557 -0.2103
 2920TIP3   OH232954   5.161   0.535  10.681 -0.1520 -0.7149  0.3826
 2920TIP3    H132955   5.160   0.505  10.772  2.5294 -1.8020  0.1451
 2920TIP3    H232956   5.101   0.476  10.636  0.4343 -1.8388  1.0183
 2921TIP3   OH232957   4.359   1.528  12.138 -0.4473  0.1736 -0.2807
 2921TIP3    H132958   4.412   1.448  12.139  0.0223  0.3690 -2.5930
 2921TIP3    H232959   4.419   1.595  12.103 -1.1015  1.3557  0.7612
 2922TIP3   OH232960   6.049   0.115   9.417  0.2733 -0.2705  0.0020
 2922TIP3    H132961   6.106   0.067   9.476  0.4466  0.6365  0.5830
 2922TIP3    H232962   5.961   0.084   9.438  0.1820  0.9871  1.6887
 2923TIP3   OH232963   0.032   1.906   9.522  0.0864 -0.0325  0.7256
 2923TIP3    H132964   0.017   1.894   9.428 -1.3248  1.2081  0.7506
 2923TIP3    H232965  -0.018   1.836   9.564 -0.8028  0.5019  0.5902
 2924TIP3   OH232966   4.199   1.864  10.323  0.3830 -0.4253  0.2558
 2924TIP3    H132967   4.135   1.868  10.252  0.3531  0.8571  0.3311
 2924TIP3    H232968   4.209   1.955  10.352  1.6229 -0.7045  0.7933
 2925TIP3   OH232969   3.117   3.611  11.801  0.1579 -0.6170  0.0978
 2925TIP3    H132970   3.139   3.689  11.852  0.8502 -0.9822  0.3660
 2925TIP3    H232971   3.183   3.547  11.825  0.1849 -0.9721 -0.8589
 2926TIP3   OH232972   6.521   2.254   9.904 -0.2342 -0.2945 -0.0489
 2926TIP3    H132973   6.569   2.186   9.857  0.3891  0.1323 -0.0309
 2926TIP3    H232974   6.518   2.328   9.844 -1.1822 -0.4349 -0.1870
 2927TIP3   OH232975   2.907   1.766  10.660  0.1440  0.0638  0.1122
 2927TIP3    H132976   2.815   1.739  10.669  0.0874  0.0140 -0.5565
 2927TIP3    H232977   2.920   1.831  10.730 -0.9948  1.6406 -1.0690
 2928TIP3   OH232978   3.592   2.954   9.093  0.0279  0.0406  0.5127
 2928TIP3    H132979   3.648   2.877   9.102 -1.0793 -0.8618  0.1189
 2928TIP3    H232980   3.531   2.930   9.023  0.0129  1.5186 -0.0203
 2929TIP3   OH232981   4.817   0.724  11.160  0.5705  0.5360  0.5844
 2929TIP3    H132982   4.864   0.784  11.217  0.3425  0.1740  1.1617
 2929TIP3    H232983   4.885   0.685  11.104  0.4715  3.0361 -1.4472
 2930TIP3   OH232984   0.343   6.026   8.388 -0.1031  0.0465 -0.2562
 2930TIP3    H132985   0.327   6.082   8.464  1.2762  2.1509 -1.4173
 2930TIP3    H232986   0.303   6.073   8.315  0.9084 -0.5953 -1.2496
 2931TIP3   OH232987   5.974   1.041   9.767 -0.4218 -0.2426  0.0531
 2931TIP3    H132988   6.025   1.084   9.699  1.7381  1.0846  2.3270
 2931TIP3    H232989   5.923   1.111   9.807 -1.0774 -0.8552  0.3179
 2932TIP3   OH232990   1.035   6.381   9.530  0.1922  0.4026  0.3600
 2932TIP3    H132991   1.045   6.370   9.436  0.8681 -1.4594  0.6164
 2932TIP3    H232992   0.946   6.414   9.541 -0.3077 -0.4569 -0.8646
 2933TIP3   OH232993   5.058   2.258  10.396 -0.0698 -0.4785  0.0950
 2933TIP3    H132994   5.036   2.167  10.415  1.9336 -1.2332 -1.0015
 2933TIP3    H232995   5.143   2.271  10.436 -0.8972  1.3620  1.3873
 2934TIP3   OH232996   5.689   2.619  11.507 -0.3382  0.9546 -0.5472
 2934TIP3    H132997   5.656   2.532  11.482  0.6533  0.2670  0.4110
 2934TIP3    H232998   5.621   2.679  11.478 -1.4494 -0.2185 -0.4929
 2935TIP3   OH232999   3.685   4.323   9.529 -0.0645 -0.2926  0.3668
 2935TIP3    H133000   3.698   4.264   9.455  0.4276  0.2101  0.0456
 2935TIP3    H233001   3.640   4.399   9.491 -0.3761 -0.3068  0.7053
 2936TIP3   OH233002   2.653   1.808   8.246  0.0027 -0.3851 -0.0227
 2936TIP3    H133003   2.579   1.854   8.286  0.4909 -0.0018  0.4571
 2936TIP3    H233004   2.689   1.870   8.183  0.3748 -0.2716  0.2921
 2937TIP3   OH233005   4.145   3.129  11.008  0.1034 -0.0313 -0.5025
 2937TIP3    H133006   4.068   3.185  11.000 -0.6885 -0.7618  1.3666
 2937TIP3    H233007   4.216   3.188  11.033  0.5203  0.8411 -3.4450
 2938TIP3   OH233008   1.215   3.957   9.747  0.1596 -0.0974 -0.5085
 2938TIP3    H133009   1.288   3.907   9.783 -0.4702 -0.4122  0.3759
 2938TIP3    H233010   1.253   4.007   9.674  1.1190 -0.6991 -0.4376
 2939TIP3   OH233011   4.938   5.025   9.180 -0.1023  0.1368  0.4124
 2939TIP3    H133012   4.893   4.978   9.109 -0.3320  0.7173  0.1707
 2939TIP3    H233013   4.923   5.117   9.161  1.1571  0.3454  0.3666
 2940TIP3   OH233014   6.446   0.440  10.846  0.3376  0.1859  0.3073
 2940TIP3    H133015   6.409   0.489  10.771  1.2963 -0.3622 -0.5505
 2940TIP3    H233016   6.431   0.348  10.824 -1.3379  0.0394  1.8516
 2941TIP3   OH233017   5.187   3.512  11.711  0.4839 -0.4937 -0.7066
 2941TIP3    H133018   5.187   3.567  11.633 -2.4734 -0.2002 -0.6191
 2941TIP3    H233019   5.198   3.574  11.783 -2.3380  0.0892 -0.6419
 2942TIP3   OH233020   1.626   5.149  10.016  0.3338  0.4093  0.5139
 2942TIP3    H133021   1.593   5.150  10.106  1.7095  0.5559  1.0466
 2942TIP3    H233022   1.624   5.056   9.991 -2.0196  0.5688 -0.1116
 2943TIP3   OH233023   2.364   3.148   9.376  0.8218  0.3554 -0.1273
 2943TIP3    H133024   2.326   3.064   9.348  0.6875  0.1021  0.8015
 2943TIP3    H233025   2.456   3.127   9.396  0.2527 -0.0800  2.2682
 2944TIP3   OH233026   5.998   4.016  12.428  0.3924 -0.7965  0.1699
 2944TIP3    H133027   6.069   4.062  12.472  0.5856 -0.2843 -0.6657
 2944TIP3    H233028   6.041   3.956  12.368  0.1305  0.0491 -0.8838
 2945TIP3   OH233029   6.445   1.261   9.905 -0.3175 -0.2406  0.0078
 2945TIP3    H133030   6.409   1.289   9.821 -0.8317 -2.3205 -0.5396
 2945TIP3    H233031   6.370   1.258   9.964 -1.0156 -3.4621 -0.8304
 2946TIP3   OH233032   3.338   3.779  11.592 -0.2299 -0.2425 -0.5063
 2946TIP3    H133033   3.312   3.808  11.680  3.6138 -0.8841  1.0575
 2946TIP3    H233034   3.366   3.859  11.548 -1.5392 -0.0094 -0.9519
 2947TIP3   OH233035   4.229   5.085  10.718 -0.8654 -0.2183  0.1498
 2947TIP3    H133036   4.296   5.066  10.784 -1.2456  1.4523  1.0965
 2947TIP3    H233037   4.148   5.048  10.754 -0.9230  0.0043  0.2534
 2948TIP3   OH233038   1.001   4.828  11.982 -0.2972 -0.0002  0.2805
 2948TIP3    H133039   0.950   4.906  12.004  0.3704  0.5007  0.0892
 2948TIP3    H233040   1.088   4.845  12.019  0.0353 -0.3666 -0.3210
 2949TIP3   OH233041   0.348   4.454   9.702 -0.4457  0.4933 -0.1857
 2949TIP3    H133042   0.356   4.540   9.660  1.0864  0.9863  0.9880
 2949TIP3    H233043   0.432   4.442   9.746 -0.7808 -1.4621 -0.0199
 2950TIP3   OH233044   5.809   4.551   9.848 -0.8114  0.4964 -0.5986
 2950TIP3    H133045   5.823   4.603   9.928  0.9686 -1.4664  0.4701
 2950TIP3    H233046   5.896   4.541   9.810 -1.1446 -1.2677 -1.0068
 2951TIP3   OH233047   2.381   1.085  11.519 -0.2014 -0.8384 -0.0502
 2951TIP3    H133048   2.312   1.150  11.515  1.6640  1.1914 -0.9000
 2951TIP3    H233049   2.460   1.131  11.490  1.5613 -2.9877  1.0242
 2952TIP3   OH233050   0.375   0.070  10.758 -0.3499 -0.0744  0.3888
 2952TIP3    H133051   0.433  -0.006  10.774 -1.5256 -0.6553  2.2285
 2952TIP3    H233052   0.406   0.136  10.820 -1.0763 -0.0674  0.7480
 2953TIP3   OH233053   3.602   6.478  10.386  0.1821 -0.4272  0.3325
 2953TIP3    H133054   3.615   6.543  10.317 -0.3075 -0.1891  0.4598
 2953TIP3    H233055   3.523   6.431  10.360 -1.7807  1.6014  2.1765
 2954TIP3   OH233056   0.297   5.990  10.107  0.2816 -0.4842  0.1596
 2954TIP3    H133057   0.336   6.068  10.069  1.7256 -0.7381  1.0470
 2954TIP3    H233058   0.371   5.941  10.143 -0.8462 -1.0323  1.8424
 2955TIP3   OH233059   0.565   4.351  10.562  0.1803  0.1093  0.6441
 2955TIP3    H133060   0.571   4.444  10.540 -1.7642 -0.0445 -0.8596
 2955TIP3    H233061   0.653   4.326  10.589  1.3833  1.8077 -1.4232
 2956TIP3   OH233062   0.805   2.015   9.923 -0.1520  0.0447 -0.0815
 2956TIP3    H133063   0.877   1.962   9.956  0.6074  0.3767 -1.1797
 2956TIP3    H233064   0.734   1.953   9.908  0.6371 -0.6381 -1.0999
 2957TIP3   OH233065   6.195   3.780   9.581 -0.1609  0.2984 -0.1193
 2957TIP3    H133066   6.151   3.837   9.645 -0.0852  0.7255 -0.4422
 2957TIP3    H233067   6.286   3.777   9.611 -0.1622  0.3614 -0.1075
 2958TIP3   OH233068   0.979   2.271  11.508  0.3633  0.4680  0.4200
 2958TIP3    H133069   0.901   2.285  11.562  0.3988 -0.9209  0.8585
 2958TIP3    H233070   1.051   2.307  11.560 -0.1118  3.0718 -0.5960
 2959TIP3   OH233071   5.149   0.154  11.840 -0.2924  0.3794 -0.6160
 2959TIP3    H133072   5.161   0.062  11.863  3.1530  0.4966 -1.5171
 2959TIP3    H233073   5.083   0.153  11.771 -1.0129 -1.2655  0.0375
 2960TIP3   OH233074   0.854   3.259  12.302  0.1647 -0.2722  0.0668
 2960TIP3    H133075   0.803   3.198  12.248  0.5729 -0.7529  0.2174
 2960TIP3    H233076   0.943   3.223  12.301 -0.0210 -0.8986  1.9225
 2961TIP3   OH233077   3.866   2.132   9.483  0.5075 -1.0785 -0.0776
 2961TIP3    H133078   3.850   2.213   9.532 -1.7181  0.2435 -2.6981
 2961TIP3    H233079   3.945   2.149   9.433  0.3556 -0.7282 -0.2029
 2962TIP3   OH233080   4.988   0.394   8.259  0.0221  0.0526  0.1322
 2962TIP3    H133081   4.980   0.308   8.299  0.2324  0.8465  1.9711
 2962TIP3    H233082   5.076   0.424   8.282 -0.5822  1.3784  0.8395
 2963TIP3   OH233083   4.905   2.933  12.116  0.0580 -0.3233  0.3030
 2963TIP3    H133084   4.975   2.876  12.083 -0.2925 -0.7974  0.3706
 2963TIP3    H233085   4.919   2.935  12.211 -0.8297 -1.5487  0.4943
 2964TIP3   OH233086   6.395   1.839  11.841 -1.1787  0.0773 -0.3469
 2964TIP3    H133087   6.398   1.913  11.903  0.9474  0.5965 -0.9578
 2964TIP3    H233088   6.329   1.864  11.777 -0.2425  1.7020 -0.7502
 2965TIP3   OH233089   3.016   6.193  10.749 -0.0088  0.6876  0.1584
 2965TIP3    H133090   3.101   6.223  10.780  0.1849  0.0086  0.3080
 2965TIP3    H233091   3.018   6.209  10.655  0.8091 -0.5050 -0.0568
 2966TIP3   OH233092   6.442   6.414   8.258 -0.3518 -0.2157  0.2570
 2966TIP3    H133093   6.394   6.390   8.337 -0.2452  0.3748  0.5028
 2966TIP3    H233094   6.384   6.474   8.212  0.1726  0.5713  0.5979
 2967TIP3   OH233095   1.740   4.357  12.321  0.5354 -0.9459  0.3382
 2967TIP3    H133096   1.762   4.449  12.308 -0.2869 -1.0386 -2.3967
 2967TIP3    H233097   1.658   4.358  12.371  1.5645 -0.3039  2.0694
 2968TIP3   OH233098   0.308   3.418  10.470  0.2994  0.1297  0.7421
 2968TIP3    H133099   0.288   3.497  10.520  1.2161  0.7092  0.2185
 2968TIP3    H233100   0.233   3.406  10.411  1.7148  2.7379 -1.8026
 2969TIP3   OH233101   1.070   0.359  10.408 -0.1830 -0.3211  0.1743
 2969TIP3    H133102   1.161   0.355  10.379 -0.4257  0.7029 -0.7935
 2969TIP3    H233103   1.019   0.337  10.330 -0.8526  2.7268 -0.3868
 2970TIP3   OH233104   3.800   5.196  11.219 -0.2599  0.7255  0.3657
 2970TIP3    H133105   3.783   5.193  11.313 -0.3741 -2.6654  0.3845
 2970TIP3    H233106   3.720   5.163  11.179  0.9266 -1.1584 -0.6213
 2971TIP3   OH233107   1.561   1.511   9.181  0.0068  0.0461 -0.8008
 2971TIP3    H133108   1.573   1.545   9.092 -2.3801  0.7845 -0.8932
 2971TIP3    H233109   1.480   1.462   9.178  0.0093 -0.1319  0.9185
 2972TIP3   OH233110   3.094   3.242  11.673  0.1029 -0.9859  0.1113
 2972TIP3    H133111   3.101   3.257  11.768  0.4503 -0.9973  0.0883
 2972TIP3    H233112   3.145   3.313  11.634 -1.6306  0.1796 -0.1446
 2973TIP3   OH233113   4.458   4.740   8.861  0.6937 -1.3503  0.9875
 2973TIP3    H133114   4.444   4.832   8.841 -1.4237 -1.4322  1.8307
 2973TIP3    H233115   4.414   4.693   8.790 -0.8039 -1.6588  2.0730
 2974TIP3   OH233116   2.174   2.255   9.953  0.0414 -0.1186 -0.3127
 2974TIP3    H133117   2.115   2.185   9.982 -0.7299 -0.5038 -2.5723
 2974TIP3    H233118   2.260   2.212   9.946  0.0200 -0.2773  0.3236
 2975TIP3   OH233119   3.050   0.224  11.287 -0.3957  0.0341 -0.1890
 2975TIP3    H133120   3.096   0.196  11.366 -0.5888  0.0717 -0.0638
 2975TIP3    H233121   3.111   0.204  11.215 -0.8357 -1.4767 -0.1870
 2976TIP3   OH233122   1.993   2.788   9.914  0.3414 -0.0096  0.3432
 2976TIP3    H133123   1.903   2.766   9.936  0.1099 -0.3174 -0.8449
 2976TIP3    H233124   2.034   2.809   9.998 -0.9337  0.5272  0.8519
 2977TIP3   OH233125   3.183   4.907  11.481 -0.2828 -0.2052  0.3438
 2977TIP3    H133126   3.131   4.857  11.544 -1.3087 -0.7881 -0.9134
 2977TIP3    H233127   3.132   4.987  11.466 -0.1502 -0.1617  0.1121
 2978TIP3   OH233128   0.021   1.474  10.304  0.4801  0.2220  0.3608
 2978TIP3    H133129  -0.058   1.424  10.325  1.2702 -0.8650  0.8385
 2978TIP3    H233130   0.003   1.562  10.337 -0.5117 -0.0115  0.4888
 2979TIP3   OH233131   3.074   4.739   9.658 -0.0200  0.1596  0.0695
 2979TIP3    H133132   3.054   4.694   9.576 -1.6573  1.1616 -0.1213
 2979TIP3    H233133   3.000   4.798   9.672 -0.1735 -0.5070  2.6521
 2980TIP3   OH233134   1.291   2.588  10.148  0.8376  0.0976 -0.1241
 2980TIP3    H133135   1.276   2.512  10.205 -0.9261  1.0730  0.7893
 2980TIP3    H233136   1.264   2.663  10.201  1.0074  1.2222 -1.5781
 2981TIP3   OH233137   5.353   0.015  11.578  0.4587  0.5216 -0.5332
 2981TIP3    H133138   5.370   0.095  11.628  1.9638  0.1411 -0.4072
 2981TIP3    H233139   5.351  -0.054  11.645 -2.1567  0.5665 -0.4666
 2982TIP3   OH233140   2.722   1.222   8.469 -0.0843  0.0467  0.2181
 2982TIP3    H133141   2.696   1.298   8.417  1.3193  1.4024  1.3909
 2982TIP3    H233142   2.647   1.163   8.464 -1.1662  1.4366 -0.8636
 2983TIP3   OH233143   5.506   0.551  11.845 -0.2515 -0.4926  0.4083
 2983TIP3    H133144   5.533   0.640  11.819 -1.6776 -0.1280  0.0916
 2983TIP3    H233145   5.577   0.495  11.814  1.3014  0.6518  1.7435
 2984TIP3   OH233146   1.589   2.598  10.117 -0.3379  0.2388 -0.0698
 2984TIP3    H133147   1.494   2.609  10.126 -0.1273  1.8118  0.7068
 2984TIP3    H233148   1.623   2.606  10.206  0.3781 -2.6633 -0.0084
 2985TIP3   OH233149   1.042   1.418   9.766 -1.0555  0.1990  0.3931
 2985TIP3    H133150   1.066   1.455   9.851 -1.0276  1.1391 -0.0140
 2985TIP3    H233151   1.106   1.454   9.705 -1.3784 -0.0732 -0.1127
 2986TIP3   OH233152   6.446   0.753  10.955  0.0205 -0.2216 -0.1416
 2986TIP3    H133153   6.509   0.712  10.896  0.8531  1.0717 -0.1919
 2986TIP3    H233154   6.451   0.702  11.035 -0.2865 -1.2979 -0.7918
 2987TIP3   OH233155   4.859   4.455  11.069 -1.1669 -0.1714  0.4408
 2987TIP3    H133156   4.810   4.440  10.988 -1.8605 -1.5529  1.0851
 2987TIP3    H233157   4.852   4.550  11.083 -0.1581  0.2882 -1.6126
 2988TIP3   OH233158   1.570   3.011   9.672 -0.1831 -0.3261 -0.5499
 2988TIP3    H133159   1.534   2.923   9.682  1.1318 -0.9984 -1.4242
 2988TIP3    H233160   1.560   3.031   9.579  1.1541 -0.3275 -0.7257
 2989TIP3   OH233161   1.004   0.623  11.386  0.0868  0.1735  0.5409
 2989TIP3    H133162   0.961   0.678  11.451 -0.5525  0.6257 -0.2574
 2989TIP3    H233163   0.944   0.620  11.312  0.8870 -0.1840 -0.1134
 2990TIP3   OH233164   2.523   3.912  11.386 -0.4444 -0.5261  0.4494
 2990TIP3    H133165   2.561   3.922  11.473 -1.4139 -0.5222  0.8828
 2990TIP3    H233166   2.430   3.930  11.398 -0.1872  2.3778 -1.0946
 2991TIP3   OH233167   1.195   6.063  12.338  0.4302 -1.0246  0.0312
 2991TIP3    H133168   1.208   6.153  12.369 -1.6158 -0.7892  0.3403
 2991TIP3    H233169   1.195   6.070  12.243 -0.5696 -0.5324  0.0564
 2992TIP3   OH233170   2.914   2.575   9.658  0.2345 -0.2688 -0.0920
 2992TIP3    H133171   2.904   2.568   9.563 -0.4944  0.3331 -0.0710
 2992TIP3    H233172   3.004   2.548   9.675  1.0587  1.5944 -1.1816
 2993TIP3   OH233173   4.202   3.552  11.289 -0.0387  0.7097  0.3845
 2993TIP3    H133174   4.285   3.599  11.286  0.5353 -0.3409 -0.8855
 2993TIP3    H233175   4.221   3.474  11.342  0.7536 -1.2136 -2.5163
 2994TIP3   OH233176   1.093   3.560  11.843 -0.3771 -0.0618 -0.4774
 2994TIP3    H133177   1.047   3.578  11.761  2.2449  0.7200 -1.8985
 2994TIP3    H233178   1.092   3.643  11.891 -0.0206  0.1000 -0.7467
 2995TIP3   OH233179   2.640   1.567  12.082 -0.0391  0.1972 -1.0329
 2995TIP3    H133180   2.711   1.582  12.144  0.2826 -0.1234 -1.3195
 2995TIP3    H233181   2.682   1.529  12.005 -0.5180  0.0199 -1.2159
 2996TIP3   OH233182   2.447   4.871  11.274  1.0880 -0.6816  0.3439
 2996TIP3    H133183   2.455   4.799  11.337 -0.7157 -1.0872  0.1386
 2996TIP3    H233184   2.466   4.832  11.189 -1.3094 -1.3019  0.0436
 2997TIP3   OH233185   1.108   3.660  10.939  0.2139 -0.4665  0.1833
 2997TIP3    H133186   1.062   3.682  10.858  0.4180 -1.2063 -0.1391
 2997TIP3    H233187   1.075   3.574  10.963 -0.0942 -0.1120  1.0773
 2998TIP3   OH233188   1.169   6.653  12.046  0.1456  0.1857  0.1874
 2998TIP3    H133189   1.225   6.716  12.000  0.0103  0.8467  0.9147
 2998TIP3    H233190   1.081   6.670  12.014  0.3144 -0.7583 -0.8489
 2999TIP3   OH233191   3.874   5.625  11.760 -0.1483  0.3421  0.0519
 2999TIP3    H133192   3.802   5.603  11.701  1.1122 -0.0379 -1.4106
 2999TIP3    H233193   3.925   5.545  11.766  1.1159  1.0935 -0.3706
 3000TIP3   OH233194   0.803   4.038   9.402  0.6449 -0.0309 -0.0324
 3000TIP3    H133195   0.793   4.127   9.437  1.2656 -0.0548  0.2192
 3000TIP3    H233196   0.825   4.052   9.310  2.4386  0.1510  0.3832
 3001TIP3   OH233197   1.327   1.320  10.414 -0.1946 -0.0367 -0.5055
 3001TIP3    H133198   1.416   1.285  10.406 -0.8964 -1.6407 -1.8539
 3001TIP3    H233199   1.295   1.287  10.498  0.5019  0.6693  0.0566
 3002TIP3   OH233200   1.059   2.935   9.208 -0.6005  0.1104 -0.0216
 3002TIP3    H133201   1.069   3.017   9.161  1.4378  0.3120  0.6447
 3002TIP3    H233202   1.050   2.869   9.140 -2.4804  0.8720 -0.5617
 3003TIP3   OH233203   0.896   1.938  12.265  0.1910 -0.0417 -0.7711
 3003TIP3    H133204   0.898   2.033  12.252 -1.8863  0.2088  0.2366
 3003TIP3    H233205   0.810   1.912  12.233 -0.1036 -1.2310  0.8801
 3004TIP3   OH233206   4.838   0.902  10.217 -0.0435  0.2394  0.3419
 3004TIP3    H133207   4.925   0.905  10.256  1.8171 -0.8310 -3.2888
 3004TIP3    H233208   4.844   0.834  10.150 -2.9185  1.7845 -1.7261
 3005TIP3   OH233209   5.644   3.093  11.312  0.0680 -0.6836 -0.0109
 3005TIP3    H133210   5.739   3.100  11.302  0.2633 -1.1391  1.3319
 3005TIP3    H233211   5.628   3.114  11.404 -1.1054 -0.9063 -0.1479
 3006TIP3   OH233212   4.503   3.475  11.633 -0.8062  0.0482  0.1730
 3006TIP3    H133213   4.515   3.520  11.716  1.4695  2.3346 -1.2342
 3006TIP3    H233214   4.505   3.545  11.567 -2.4123 -1.6600 -1.8507
 3007TIP3   OH233215   4.547   1.043   8.383  0.4017  0.0152  0.0610
 3007TIP3    H133216   4.572   1.122   8.336  0.2487  1.4737  2.2864
 3007TIP3    H233217   4.630   1.007   8.415  0.3766 -0.1896 -0.0967
 3008TIP3   OH233218   1.647   1.282  11.468  0.2026  0.0862  0.0132
 3008TIP3    H133219   1.641   1.264  11.562  0.3655  1.8413  0.3873
 3008TIP3    H233220   1.557   1.281  11.438  0.0897  0.2918  0.3390
 3009TIP3   OH233221   4.621   3.495   9.679  0.5652  0.0196  0.7608
 3009TIP3    H133222   4.676   3.535   9.747  0.8293 -1.9924  1.7998
 3009TIP3    H233223   4.626   3.401   9.696 -1.5894 -0.3597 -0.3946
 3010TIP3   OH233224   3.626   5.674  10.529 -0.0632 -0.5079  0.0508
 3010TIP3    H133225   3.719   5.679  10.551 -0.4226  0.8535  1.4892
 3010TIP3    H233226   3.624   5.680  10.434  1.2848  0.7517  0.0540
 3011TIP3   OH233227   3.141   0.650  11.425  0.5263  0.2448  0.4920
 3011TIP3    H133228   3.092   0.588  11.480 -1.0103  2.1013  1.3497
 3011TIP3    H233229   3.202   0.693  11.485  1.0525  0.1074  0.0654
 3012TIP3   OH233230   0.608   5.331   9.930 -0.1962 -0.1495 -0.4606
 3012TIP3    H133231   0.576   5.420   9.912 -0.2351  0.2600  1.4352
 3012TIP3    H233232   0.613   5.326  10.026  1.2544 -1.6909 -0.5755
 3013TIP3   OH233233   2.006   6.533  12.348 -0.5167 -0.0405 -0.0468
 3013TIP3    H133234   1.922   6.580  12.346 -0.5827  0.2465  3.3116
 3013TIP3    H233235   2.063   6.590  12.400  0.1171 -2.4840  2.1834
 3014TIP3   OH233236   4.942   2.507   9.300 -0.0906 -0.0074  0.2001
 3014TIP3    H133237   4.924   2.425   9.346 -2.0583  0.1775 -0.1598
 3014TIP3    H233238   4.956   2.571   9.370 -2.2718  0.1033  0.5953
 3015TIP3   OH233239   5.909   4.828  11.223 -0.6487 -0.3243  0.7068
 3015TIP3    H133240   5.906   4.780  11.140 -0.9418  1.4596 -0.3783
 3015TIP3    H233241   6.002   4.838  11.242 -0.5782 -0.6215  0.5246
 3016TIP3   OH233242   0.625   3.302  10.725 -0.3913 -0.0055  0.2585
 3016TIP3    H133243   0.607   3.301  10.631  1.2422 -0.1801 -0.0913
 3016TIP3    H233244   0.569   3.233  10.761  1.0073 -1.9529 -1.0491
 3017TIP3   OH233245   1.600   5.210   9.198  0.2973  0.9859  0.3411
 3017TIP3    H133246   1.593   5.297   9.158  0.9585  0.6224 -0.6121
 3017TIP3    H233247   1.659   5.162   9.140 -0.6870 -0.3523  0.4072
 3018TIP3   OH233248   4.167   3.057   8.974  0.3480  0.3750  0.1848
 3018TIP3    H133249   4.233   3.031   8.909  0.3778 -3.0095  1.3809
 3018TIP3    H233250   4.162   2.983   9.034 -3.6273  1.0542  0.9345
 3019TIP3   OH233251   2.640   1.236  10.233  0.1924 -0.1831 -0.2306
 3019TIP3    H133252   2.728   1.248  10.269  0.6354 -0.3991 -1.2032
 3019TIP3    H233253   2.653   1.177  10.159 -0.8241 -0.4625 -0.1929
 3020TIP3   OH233254   5.936   0.258   9.185 -0.0143  0.5931  0.4829
 3020TIP3    H133255   5.994   0.220   9.251 -0.6602  1.0531  1.3269
 3020TIP3    H233256   5.979   0.339   9.159  1.2203 -0.5086 -1.1097
 3021TIP3   OH233257   5.229   3.881  10.316 -0.0765  0.3028 -0.1905
 3021TIP3    H133258   5.302   3.820  10.330 -1.0790 -0.9129 -0.0595
 3021TIP3    H233259   5.241   3.948  10.383  0.1565 -0.6548  0.7689
 3022TIP3   OH233260   3.579   4.127   9.698  0.4171 -0.2987  0.1233
 3022TIP3    H133261   3.493   4.110   9.661 -0.0236  1.2402  0.3760
 3022TIP3    H233262   3.626   4.175   9.629  1.4353 -1.9447 -0.3837
 3023TIP3   OH233263   3.340   0.983   9.702  0.4063 -0.0682 -0.1479
 3023TIP3    H133264   3.319   1.072   9.731 -0.0981  0.1280 -1.0479
 3023TIP3    H233265   3.278   0.967   9.630 -0.2392 -1.5540  0.6918
 3024TIP3   OH233266   3.327   3.396   9.688  0.5175  0.0802  0.4456
 3024TIP3    H133267   3.248   3.415   9.637  1.3368  2.3879 -0.0854
 3024TIP3    H233268   3.317   3.304   9.713 -1.4654 -0.2161 -1.1100
 3025TIP3   OH233269   1.209   2.108   9.803 -0.3269 -0.2237  0.1573
 3025TIP3    H133270   1.162   2.183   9.764  2.4066  1.2102 -0.6240
 3025TIP3    H233271   1.143   2.039   9.807 -2.6575  1.8023 -0.2929
 3026TIP3   OH233272   4.024   4.691  10.277 -0.2035 -0.3521 -0.2384
 3026TIP3    H133273   4.042   4.662  10.367 -0.1551  1.9562  0.5774
 3026TIP3    H233274   4.107   4.726  10.246 -0.2942 -0.8673 -1.0875
 3027TIP3   OH233275   2.146   4.212  10.226  0.3372  0.1287 -0.0840
 3027TIP3    H133276   2.100   4.254  10.299  0.3157 -0.0699  0.0161
 3027TIP3    H233277   2.199   4.144  10.267  1.6594  1.1355 -0.0727
 3028TIP3   OH233278   6.065   6.083  11.580 -0.7472  0.2425  0.2621
 3028TIP3    H133279   6.150   6.123  11.561  0.8618 -2.4873  1.1206
 3028TIP3    H233280   6.014   6.096  11.500  1.5808 -0.6397 -1.4781
 3029TIP3   OH233281   4.572   5.527   9.831 -0.0155 -0.2822 -0.6109
 3029TIP3    H133282   4.486   5.497   9.801 -0.2791  0.2040 -0.3457
 3029TIP3    H233283   4.579   5.616   9.797 -0.4666  0.4212  1.0475
 3030TIP3   OH233284   4.468   3.891   9.953  0.5902  0.4682 -0.2332
 3030TIP3    H133285   4.496   3.974   9.992  1.4854  0.3327 -0.5646
 3030TIP3    H233286   4.479   3.904   9.859  0.2858  0.1334 -0.3155
 3031TIP3   OH233287   1.226   6.043  11.402  0.1983  0.3524 -0.2180
 3031TIP3    H133288   1.241   6.000  11.317 -0.3880  0.2744 -0.2838
 3031TIP3    H233289   1.223   6.136  11.382  2.3700  0.5456  0.0410
 3032TIP3   OH233290   6.172   4.379  10.889 -0.5033 -0.1596  0.3253
 3032TIP3    H133291   6.237   4.364  10.958 -0.4359 -1.7004 -0.0241
 3032TIP3    H233292   6.087   4.368  10.933 -0.4679 -0.5740  0.3011
 3033TIP3   OH233293   0.568   5.266   9.243  0.3606 -1.1710 -0.1406
 3033TIP3    H133294   0.630   5.334   9.216 -0.8695  0.0047 -0.1118
 3033TIP3    H233295   0.606   5.184   9.211  0.9243 -0.2637 -1.9045
 3034TIP3   OH233296   1.348   4.991  10.325 -0.1720 -0.0891 -0.3277
 3034TIP3    H133297   1.379   4.901  10.323  0.1700 -0.0532  1.6075
 3034TIP3    H233298   1.427   5.044  10.330 -0.4062  0.2215  0.1944
 3035TIP3   OH233299   5.702   0.131  10.572 -0.0400  0.1929 -0.0303
 3035TIP3    H133300   5.608   0.118  10.572 -0.0199 -0.1078 -1.3146
 3035TIP3    H233301   5.731   0.104  10.659 -1.2833  1.4872  0.8170
 3036TIP3   OH233302   4.470   5.383  11.341 -0.4899 -0.0928 -0.1070
 3036TIP3    H133303   4.561   5.385  11.312 -0.3741 -0.6953  0.2082
 3036TIP3    H233304   4.424   5.442  11.281  0.2111  0.6918  0.1061
 3037TIP3   OH233305   0.898   5.253   9.555  0.2785  0.1925  0.3363
 3037TIP3    H133306   0.915   5.161   9.534 -0.3318  0.1553 -0.0042
 3037TIP3    H233307   0.929   5.263   9.646 -0.1412 -0.4807  0.5579
 3038TIP3   OH233308   2.120   2.335   8.863 -0.3797 -0.1761 -0.3857
 3038TIP3    H133309   2.067   2.396   8.914 -0.3500  0.2771 -0.8957
 3038TIP3    H233310   2.176   2.390   8.809 -0.8965 -0.6302 -1.4293
 3039TIP3   OH233311   2.365   1.523  11.833 -0.6615  0.0156  0.7182
 3039TIP3    H133312   2.417   1.518  11.752  0.0512 -1.3812  1.2365
 3039TIP3    H233313   2.313   1.603  11.822 -0.6986 -0.2056 -1.1926
 3040TIP3   OH233314   4.088   6.286  11.090 -0.0217 -0.3283 -0.0214
 3040TIP3    H133315   4.030   6.219  11.055 -0.4831  1.6710 -3.6174
 3040TIP3    H233316   4.053   6.305  11.177 -2.2238 -2.0188 -0.4416
 3041TIP3   OH233317   6.329   2.470   9.849  0.0970  0.1835  0.0352
 3041TIP3    H133318   6.237   2.488   9.827 -0.2843 -1.1128  0.4762
 3041TIP3    H233319   6.376   2.549   9.822 -1.4006  1.6504  1.4320
 3042TIP3   OH233320   5.579   1.427   9.165 -0.3194  0.0518 -0.4369
 3042TIP3    H133321   5.665   1.386   9.169 -1.4893 -2.5531 -0.2545
 3042TIP3    H233322   5.561   1.436   9.072 -0.4219 -0.7121 -0.4942
 3043TIP3   OH233323   3.636   3.208  11.375  0.0867 -0.3889 -0.3474
 3043TIP3    H133324   3.584   3.269  11.322 -0.8763 -0.8165  0.0830
 3043TIP3    H233325   3.727   3.234  11.359 -0.1199 -0.9590 -2.7756
 3044TIP3   OH233326   6.231   1.756  11.413  0.2085 -0.2959 -0.0492
 3044TIP3    H133327   6.245   1.672  11.370 -2.1228 -0.2336 -1.0624
 3044TIP3    H233328   6.307   1.808  11.388  0.8762 -1.5632 -0.7698
 3045TIP3   OH233329   1.331   2.795  10.597  0.3716  0.2106  0.0097
 3045TIP3    H133330   1.249   2.775  10.641 -0.0945 -1.0496 -1.3723
 3045TIP3    H233331   1.333   2.891  10.593 -1.4746  0.2637 -0.7026
 3046TIP3   OH233332   2.567   5.214  10.616  0.1068 -0.0650  0.6099
 3046TIP3    H133333   2.636   5.280  10.619 -1.2699  1.4670  0.1806
 3046TIP3    H233334   2.490   5.258  10.651 -0.5284 -1.9413  1.7109
 3047TIP3   OH233335   5.242   0.572  11.797 -0.4482 -0.2970 -0.7670
 3047TIP3    H133336   5.185   0.523  11.856 -0.6214  0.6562 -0.1278
 3047TIP3    H233337   5.330   0.556  11.832 -0.4609 -0.5066 -0.8274
 3048TIP3   OH233338   0.521   2.769  10.644  0.0352 -0.2982 -0.2002
 3048TIP3    H133339   0.461   2.809  10.706 -0.0011 -1.2559  0.4045
 3048TIP3    H233340   0.568   2.842  10.605 -0.9303  0.4079 -0.0706
 3049TIP3   OH233341   4.315   3.089  10.794 -0.0844  0.3320  0.4029
 3049TIP3    H133342   4.233   3.090  10.844  0.2284  0.4294  0.9165
 3049TIP3    H233343   4.289   3.112  10.705 -0.7898 -0.7937  0.3021
 3050TIP3   OH233344   5.338   0.677  11.563 -0.2655  0.5421 -0.2100
 3050TIP3    H133345   5.291   0.624  11.498 -0.1510  1.2578 -0.9011
 3050TIP3    H233346   5.302   0.650  11.647 -3.2697  2.3107 -0.7923
 3051TIP3   OH233347   5.690   1.653  10.484 -0.3553 -0.2044  0.0779
 3051TIP3    H133348   5.623   1.612  10.539 -0.4391 -0.6387 -0.3427
 3051TIP3    H233349   5.660   1.743  10.473  0.3617  0.3030  1.8866
 3052TIP3   OH233350   4.286   0.197  11.470  0.2119  0.2257 -0.1403
 3052TIP3    H133351   4.281   0.102  11.481 -0.7601  0.4227  1.3815
 3052TIP3    H233352   4.285   0.210  11.375 -0.4286 -1.2572 -0.3681
 3053TIP3   OH233353   6.194   2.139  11.757 -0.3174 -0.1298 -0.6457
 3053TIP3    H133354   6.102   2.151  11.783  0.7891  1.7262  3.3411
 3053TIP3    H233355   6.195   2.056  11.710 -3.9893 -0.3507 -0.6488
 3054TIP3   OH233356   0.267   1.089  10.624  0.0187 -0.0825  0.0509
 3054TIP3    H133357   0.246   1.093  10.531  0.4088  1.2885 -0.0140
 3054TIP3    H233358   0.359   1.117  10.629  0.9298 -2.8490  0.6133
 3055TIP3   OH233359   5.471   1.995   9.639 -0.3223 -0.6415  0.7284
 3055TIP3    H133360   5.493   1.999   9.732 -0.0423 -0.5015  0.6565
 3055TIP3    H233361   5.555   1.985   9.595 -0.5026 -1.2650  0.5231
 3056TIP3   OH233362   6.434   4.205  10.832  0.7697 -0.1509 -0.1204
 3056TIP3    H133363   6.479   4.122  10.820 -1.3072 -1.2989 -0.4019
 3056TIP3    H233364   6.431   4.244  10.744  2.7578  0.8328  0.1966
 3057TIP3   OH233365   2.515   0.923   9.694 -0.0429 -0.4809 -0.6530
 3057TIP3    H133366   2.569   0.848   9.719 -1.1873 -0.8768  0.7870
 3057TIP3    H233367   2.572   0.999   9.706  0.2796 -0.9060  0.7049
 3058TIP3   OH233368   4.861   5.202   9.915 -0.5482 -0.5920  0.1264
 3058TIP3    H133369   4.856   5.242   9.829  0.3255 -2.1743 -0.7101
 3058TIP3    H233370   4.865   5.276   9.976 -2.0669  0.5523 -1.0963
 3059TIP3   OH233371   0.962   6.607   9.899  0.2218  0.5544  0.5030
 3059TIP3    H133372   1.006   6.687   9.927 -0.0962  0.6061  0.8742
 3059TIP3    H233373   0.944   6.560   9.981 -0.6189  0.6449  0.3825
 3060TIP3   OH233374   3.674   5.978  10.309  0.3534  0.4532  0.4029
 3060TIP3    H133375   3.585   6.012  10.312  0.1698 -0.0644  1.4444
 3060TIP3    H233376   3.664   5.883  10.306  0.8690  0.4186 -0.4340
 3061TIP3   OH233377   0.011   1.489   9.195 -0.5803 -0.1560 -0.2590
 3061TIP3    H133378  -0.020   1.513   9.108  0.1582 -3.1500 -1.4683
 3061TIP3    H233379  -0.007   1.396   9.203  2.2597 -0.7106  1.4902
 3062TIP3   OH233380   1.501   2.582  10.602  0.5512  0.5920 -0.1476
 3062TIP3    H133381   1.442   2.649  10.566 -0.3230 -1.5363 -3.0948
 3062TIP3    H233382   1.443   2.524  10.652  0.5339 -0.1349 -0.9835
 3063TIP3   OH233383   1.375   1.088  11.839  0.1988  1.0693 -0.1950
 3063TIP3    H133384   1.343   1.053  11.922  2.5366  0.5545  0.5945
 3063TIP3    H233385   1.315   1.053  11.773 -1.5401  1.2534  1.2359
 3064TIP3   OH233386   4.585   0.407   9.469 -0.4565  0.0578  0.0190
 3064TIP3    H133387   4.535   0.479   9.507 -0.6413 -0.9320  1.7595
 3064TIP3    H233388   4.667   0.447   9.441 -1.0799  1.1814 -0.2704
 3065TIP3   OH233389   4.675   5.608  11.043  0.0709  0.1441 -0.7273
 3065TIP3    H133390   4.681   5.654  11.127 -0.0211 -1.6037  0.2799
 3065TIP3    H233391   4.757   5.560  11.036 -0.1676 -0.1767 -1.3503
 3066TIP3   OH233392   0.346   5.634   9.279 -0.1401  0.2783 -0.8123
 3066TIP3    H133393   0.321   5.649   9.187 -0.8837  0.7265 -0.5452
 3066TIP3    H233394   0.285   5.566   9.308 -0.8257  1.1152 -0.2584
 3067TIP3   OH233395   2.402   5.771   9.625 -0.1359 -0.3439 -0.1248
 3067TIP3    H133396   2.317   5.775   9.670 -0.1512  1.3301 -0.2422
 3067TIP3    H233397   2.463   5.741   9.692 -0.5406  0.0489  0.4372
 3068TIP3   OH233398   6.137   3.809   8.852 -0.0289  0.2783  0.0557
 3068TIP3    H133399   6.087   3.864   8.911 -0.5950 -2.4604  2.3378
 3068TIP3    H233400   6.212   3.780   8.904  2.2392  1.6416 -2.2303
 3069TIP3   OH233401   6.618   1.577  12.278 -0.5935 -0.4013  0.4480
 3069TIP3    H133402   6.658   1.496  12.311  0.6719  0.0338  0.0273
 3069TIP3    H233403   6.691   1.637  12.266 -1.1018 -0.1406 -2.0232
 3070TIP3   OH233404   4.355   1.489  10.874 -0.0921  0.0040  0.6361
 3070TIP3    H133405   4.326   1.559  10.933  0.9898  0.8434  0.2041
 3070TIP3    H233406   4.338   1.523  10.786  3.7595  1.3778  0.2577
 3071TIP3   OH233407   2.523   0.629  10.830  0.1137  0.4836  0.0449
 3071TIP3    H133408   2.526   0.534  10.819  1.1873  0.3848  1.0096
 3071TIP3    H233409   2.615   0.656  10.833 -0.1749  1.5676 -0.2802
 3072TIP3   OH233410   3.075   5.840  11.388 -0.5114  0.6223 -0.5741
 3072TIP3    H133411   3.061   5.919  11.440  1.9293  0.7157  0.0479
 3072TIP3    H233412   3.031   5.771  11.437 -0.0873  1.0940  0.5098
 3073TIP3   OH233413   5.909   4.551  10.801  0.5358  0.0177  0.5025
 3073TIP3    H133414   5.909   4.499  10.721 -0.1873  0.2296  0.3561
 3073TIP3    H233415   5.928   4.489  10.871  0.5920 -0.2759  0.2286
 3074TIP3   OH233416   2.807   4.580  12.153  0.3383  0.6455 -0.0548
 3074TIP3    H133417   2.852   4.507  12.195 -1.0032 -0.1130  0.1084
 3074TIP3    H233418   2.876   4.626  12.105  1.4351  0.0380  0.8776
 3075TIP3   OH233419   1.882   0.345  10.759  0.5087  0.2180 -0.5119
 3075TIP3    H133420   1.830   0.276  10.801  0.7780  0.7668  0.7692
 3075TIP3    H233421   1.932   0.384  10.830  1.0325  1.1602 -1.3671
 3076TIP3   OH233422   3.954   4.892  10.637 -0.0394  0.3537  0.4897
 3076TIP3    H133423   3.913   4.960  10.690 -0.8208  0.9820 -0.8435
 3076TIP3    H233424   3.942   4.812  10.687 -1.3314  0.8211  0.9659
 3077TIP3   OH233425   4.898   4.022  11.568  0.0284  0.0447  0.8273
 3077TIP3    H133426   4.932   4.102  11.608  0.2921  0.7699 -0.7586
 3077TIP3    H233427   4.803   4.035  11.566 -0.1987 -0.9342  3.0872
 3078TIP3   OH233428   0.295   2.082  11.629  0.3840 -0.4268 -0.2864
 3078TIP3    H133429   0.328   2.086  11.540  0.2807  0.5144 -0.2877
 3078TIP3    H233430   0.267   1.991  11.640 -2.1796  0.0644 -2.1349
 3079TIP3   OH233431   2.385   0.938  10.825  0.3821  0.2036  0.0358
 3079TIP3    H133432   2.369   0.864  10.883  0.5256  0.7652  0.8087
 3079TIP3    H233433   2.386   0.900  10.737 -3.1423 -0.2055  0.0194
 3080TIP3   OH233434   0.860   4.161  11.368  0.4097  0.4367 -0.0913
 3080TIP3    H133435   0.882   4.068  11.375  0.9439  0.5602 -0.0993
 3080TIP3    H233436   0.802   4.166  11.293  0.0970  0.0599  0.1206
 3081TIP3   OH233437   4.424   3.045   9.731 -0.1435  0.0179  0.0994
 3081TIP3    H133438   4.488   2.979   9.758 -0.4865 -0.2951  0.1612
 3081TIP3    H233439   4.364   2.998   9.673 -0.3038  0.3137  0.0229
 3082TIP3   OH233440   4.765   4.598  10.482 -0.0586  0.4347  0.4882
 3082TIP3    H133441   4.746   4.688  10.509 -1.7408 -0.6249  3.3209
 3082TIP3    H233442   4.846   4.575  10.527  0.6680  0.6587 -0.6669
 3083TIP3   OH233443   5.356   6.527   9.210 -0.2222  0.3155 -0.0907
 3083TIP3    H133444   5.299   6.453   9.192  0.9537 -0.7818  0.5005
 3083TIP3    H233445   5.402   6.503   9.290  3.2058 -0.2347 -2.0138
 3084TIP3   OH233446   5.251   2.164  10.980  0.1004 -0.2712 -0.1021
 3084TIP3    H133447   5.283   2.221  10.910 -0.4243 -0.0854 -0.1949
 3084TIP3    H233448   5.298   2.081  10.966  1.2107  0.2629  0.3100
 3085TIP3   OH233449   6.628   2.357  11.245  0.5585  0.8047 -0.4746
 3085TIP3    H133450   6.588   2.289  11.298  3.5897  0.3514  1.4855
 3085TIP3    H233451   6.562   2.427  11.241 -0.3657  0.2535  2.7127
 3086TIP3   OH233452   4.806   2.590  11.335  0.1939  0.3568 -0.1447
 3086TIP3    H133453   4.761   2.628  11.260  1.5595 -0.5576 -1.5080
 3086TIP3    H233454   4.808   2.496  11.317 -0.0530  0.0221  1.3969
 3087TIP3   OH233455   5.606   4.529  12.000 -0.0847  0.1399  0.1986
 3087TIP3    H133456   5.653   4.447  12.019  2.9772  1.3152 -1.6145
 3087TIP3    H233457   5.596   4.530  11.905  0.7115  2.2261  0.0940
 3088TIP3   OH233458   3.135   5.885  10.744 -0.0854  0.2180  0.0598
 3088TIP3    H133459   3.220   5.917  10.775  0.5663 -0.9641 -0.4048
 3088TIP3    H233460   3.158   5.812  10.685 -1.4330 -0.2017  0.0307
 3089TIP3   OH233461   2.765   0.627   9.231 -0.1981 -0.0785  0.2693
 3089TIP3    H133462   2.843   0.572   9.226 -0.6489 -0.8481  1.1744
 3089TIP3    H233463   2.725   0.621   9.145  0.6418  0.1815 -0.1455
 3090TIP3   OH233464   4.466   2.227  11.727 -0.0838 -0.2038  0.0946
 3090TIP3    H133465   4.378   2.255  11.753 -0.0612 -0.6224  0.6443
 3090TIP3    H233466   4.469   2.133  11.747  1.3047  0.2516  2.5347
 3091TIP3   OH233467   6.602   5.274  11.810  0.1025  0.4142 -0.4072
 3091TIP3    H133468   6.565   5.354  11.846 -1.0606 -0.5137  0.5479
 3091TIP3    H233469   6.672   5.303  11.751  0.0089  2.0864  0.2812
 3092TIP3   OH233470   5.250   2.883  10.649 -0.6734 -0.0341 -0.3457
 3092TIP3    H133471   5.319   2.883  10.584  0.7157 -0.0231  1.0706
 3092TIP3    H233472   5.244   2.974  10.679 -0.0624 -0.3440  0.7731
 3093TIP3   OH233473   1.104   5.904  11.600 -0.1592 -0.0411  0.2560
 3093TIP3    H133474   1.133   5.938  11.516 -2.5595 -0.6248 -0.8845
 3093TIP3    H233475   1.089   5.981  11.654 -0.8077  0.4567 -0.6304
 3094TIP3   OH233476   4.831   1.334   8.738 -0.4890  0.2835 -0.3177
 3094TIP3    H133477   4.917   1.321   8.780 -0.1374  1.1378 -0.7534
 3094TIP3    H233478   4.844   1.302   8.649 -0.9041 -0.4681 -0.1105
 3095TIP3   OH233479   5.992   1.841  11.901  0.3942 -0.2803 -0.3873
 3095TIP3    H133480   5.966   1.750  11.914 -0.6720  0.1337  0.5024
 3095TIP3    H233481   6.004   1.876  11.990  0.7919  0.4503 -0.7131
 3096TIP3   OH233482   6.251   3.382  10.684 -0.2968  0.0513  0.5427
 3096TIP3    H133483   6.307   3.445  10.729  2.3400 -2.4134  1.0377
 3096TIP3    H233484   6.165   3.423  10.681  1.2373  3.6252  0.7604
 3097TIP3   OH233485   2.523   4.991   8.833  0.1981  0.2891  0.6400
 3097TIP3    H133486   2.557   4.901   8.830 -1.0957 -0.2117  0.1518
 3097TIP3    H233487   2.494   5.002   8.924  0.9248  0.4365  0.8562
 3098TIP3   OH233488   2.346   1.421  10.674 -0.7255 -0.4052  0.1085
 3098TIP3    H133489   2.285   1.479  10.720  0.5070  2.6755 -1.7564
 3098TIP3    H233490   2.304   1.406  10.589  0.6638  1.1607 -0.9188
 3099TIP3   OH233491   1.646   6.534  10.646 -0.5294  0.3020 -0.3589
 3099TIP3    H133492   1.646   6.607  10.584  2.6403  1.6518  0.9723
 3099TIP3    H233493   1.682   6.460  10.596  0.7470  1.0161 -0.5517
 3100TIP3   OH233494   0.310   5.066   9.210  0.1981 -0.0802 -0.0614
 3100TIP3    H133495   0.298   5.007   9.284 -0.4679 -0.2710 -0.3152
 3100TIP3    H233496   0.261   5.025   9.139 -0.2453  0.7595 -0.2479
 3101TIP3   OH233497   3.001   2.413  12.151 -0.0870 -0.0809 -0.5859
 3101TIP3    H133498   3.017   2.336  12.206  1.3825  1.1679  0.8476
 3101TIP3    H233499   2.915   2.444  12.179 -0.0517 -0.3836 -0.1154
 3102TIP3   OH233500   2.295   4.651  11.053 -0.4808  0.1000  0.0809
 3102TIP3    H133501   2.291   4.624  10.961 -0.9162 -0.8794  0.3748
 3102TIP3    H233502   2.221   4.710  11.064  0.6339  1.7240 -0.6349
 3103TIP3   OH233503   3.437   1.891   9.662 -0.0823  0.4240 -0.0534
 3103TIP3    H133504   3.434   1.985   9.675 -0.2966  0.4378 -0.1955
 3103TIP3    H233505   3.506   1.878   9.597 -0.0328  0.4820 -0.0116
 3104TIP3   OH233506   4.561   3.379  11.335 -0.0547 -0.5504 -0.1873
 3104TIP3    H133507   4.636   3.359  11.280  0.7641 -0.8814  1.0123
 3104TIP3    H233508   4.540   3.470  11.314  1.2214 -0.1771  0.0406
 3105TIP3   OH233509   4.192   2.649   9.888  0.7793  0.1688  0.4567
 3105TIP3    H133510   4.224   2.572   9.841  0.0544  0.4420 -0.5249
 3105TIP3    H233511   4.101   2.659   9.859  0.0688 -0.0556  2.4678
 3106TIP3   OH233512   4.419   3.617   9.897  0.4218  0.2198 -0.3061
 3106TIP3    H133513   4.458   3.583   9.817 -1.5419 -0.4398 -1.0382
 3106TIP3    H233514   4.413   3.712   9.882  0.4909  0.1577 -0.7367
 3107TIP3   OH233515   3.735   1.152  10.982  0.3492 -0.1619  0.1102
 3107TIP3    H133516   3.781   1.236  10.983 -0.9266  0.5606  0.7035
 3107TIP3    H233517   3.692   1.147  11.068  0.4964 -1.4794  0.1303
 3108TIP3   OH233518   6.022   4.112  11.772 -0.2034 -0.7353  0.4866
 3108TIP3    H133519   5.951   4.055  11.800 -1.2416  0.4953  0.4759
 3108TIP3    H233520   6.019   4.186  11.832  0.3970 -0.1608 -0.1621
 3109TIP3   OH233521   6.105   5.777  11.287 -0.2467 -0.4763  0.2720
 3109TIP3    H133522   6.102   5.769  11.192  1.6906  0.8960  0.0244
 3109TIP3    H233523   6.194   5.807  11.305 -0.8632  0.2246  2.4384
 3110TIP3   OH233524   4.619   0.505  10.129 -0.0558 -0.2423 -0.0790
 3110TIP3    H133525   4.595   0.442  10.062 -1.8116  0.4765 -0.1797
 3110TIP3    H233526   4.553   0.574  10.122  2.2555  2.0953 -0.5777
 3111TIP3   OH233527   4.934   6.628   8.723  0.6689  0.0900  0.2953
 3111TIP3    H133528   4.865   6.605   8.661  1.7626  0.4552 -1.1237
 3111TIP3    H233529   4.927   6.723   8.733 -0.2473 -0.1038  1.6886
 3112TIP3   OH233530   6.217   3.097  11.351  0.0236 -0.1835 -0.3267
 3112TIP3    H133531   6.203   3.038  11.277  1.4019 -0.3925 -0.4547
 3112TIP3    H233532   6.265   3.044  11.415  0.9666  0.6761 -0.2927
 3113TIP3   OH233533   0.365   3.593  11.132 -0.2269 -0.5404 -0.4724
 3113TIP3    H133534   0.367   3.547  11.049 -0.2140 -2.3704  0.4900
 3113TIP3    H233535   0.308   3.669  11.117  0.6597 -0.2162 -2.4086
 3114TIP3   OH233536   5.433   2.299   9.671 -0.2441  0.0547  0.2576
 3114TIP3    H133537   5.391   2.279   9.755  0.5068 -0.6343  0.4814
 3114TIP3    H233538   5.520   2.330   9.694 -0.3575  0.7679 -0.2347
 3115TIP3   OH233539   5.381   4.432  10.984  1.0767 -0.0545  0.1468
 3115TIP3    H133540   5.294   4.430  11.023  0.7365  1.0409 -0.5039
 3115TIP3    H233541   5.421   4.349  11.009 -1.1185 -1.8136 -1.7029
 3116TIP3   OH233542   6.194   4.067  11.165  0.0187 -0.5527 -0.1824
 3116TIP3    H133543   6.269   4.118  11.133  0.8069 -1.3159  0.4079
 3116TIP3    H233544   6.160   4.118  11.238  0.8247 -0.8761  0.4274
 3117TIP3   OH233545   2.350   1.459   9.543  0.3681 -0.3516  0.0737
 3117TIP3    H133546   2.415   1.435   9.477 -0.1262  0.5593 -0.7816
 3117TIP3    H233547   2.283   1.391   9.536  1.3144 -1.4250  1.1256
 3118TIP3   OH233548   0.943   4.617   9.811  0.4113  0.2936  0.0953
 3118TIP3    H133549   0.855   4.652   9.804  0.4699  0.5229  0.5189
 3118TIP3    H233550   1.000   4.694   9.806  0.5223  0.3263  1.4827
 3119TIP3   OH233551   5.312   2.260  11.500 -0.1869 -0.3203  0.5015
 3119TIP3    H133552   5.275   2.243  11.413 -2.2843 -0.0208  1.2917
 3119TIP3    H233553   5.330   2.173  11.535 -1.8768 -0.5911  0.7823
 3120TIP3   OH233554   0.438   6.078   9.479 -0.3301 -0.5475 -0.2864
 3120TIP3    H133555   0.503   6.095   9.411  0.9124 -3.0431  0.1588
 3120TIP3    H233556   0.397   5.995   9.453 -2.2675  0.1670  0.2852
 3121TIP3   OH233557   6.488   2.116   9.417 -0.1945  0.2317 -0.0486
 3121TIP3    H133558   6.443   2.174   9.479 -1.6407 -0.9108 -0.0054
 3121TIP3    H233559   6.505   2.036   9.467 -0.8697 -0.4908 -0.9573
 3122TIP3   OH233560   2.390   0.078  11.187  0.4527 -0.0324 -0.0992
 3122TIP3    H133561   2.474   0.062  11.144 -0.8894 -1.1018 -2.5333
 3122TIP3    H233562   2.356   0.158  11.146  1.2967  1.9099  2.6831
 3123TIP3   OH233563   1.967   4.165  10.623  0.1845  0.2772 -0.3902
 3123TIP3    H133564   2.011   4.089  10.586 -1.6645 -1.0284 -0.0031
 3123TIP3    H233565   1.970   4.151  10.718  0.3810  1.0216 -0.2747
 3124TIP3   OH233566   3.914   5.658  10.515 -0.4399  0.7001  0.2326
 3124TIP3    H133567   3.970   5.674  10.439  0.2626 -2.2588  0.0392
 3124TIP3    H233568   3.958   5.704  10.586  0.8356  0.5469 -0.4284
 3125TIP3   OH233569   4.928   1.465  10.608  0.2140  0.6001  0.6744
 3125TIP3    H133570   4.891   1.435  10.524  0.6116  1.8059  0.0466
 3125TIP3    H233571   4.880   1.415  10.674 -0.6402  0.1699 -0.2419
 3126TIP3   OH233572   1.067   3.154  12.102  0.0552  0.0895 -0.0392
 3126TIP3    H133573   1.049   3.247  12.118 -2.4301 -0.1482 -1.0237
 3126TIP3    H233574   1.026   3.136  12.018  1.1370 -1.7572 -0.2163
 3127TIP3   OH233575   1.341   6.406  10.469  0.0987 -0.0307 -0.1035
 3127TIP3    H133576   1.353   6.311  10.469  0.2509 -0.0165  0.3644
 3127TIP3    H233577   1.423   6.441  10.436 -0.2619 -0.0890 -1.0793
 3128TIP3   OH233578   0.776   6.250   8.960 -0.1986  0.0524 -0.5415
 3128TIP3    H133579   0.791   6.261   9.054 -0.5144  1.2651 -0.6119
 3128TIP3    H233580   0.728   6.329   8.934 -0.3979 -0.4171 -1.6630
 3129TIP3   OH233581   5.224   6.216  10.178 -0.6408  0.1226 -0.4748
 3129TIP3    H133582   5.171   6.278  10.229 -0.2781  0.1920 -0.1718
 3129TIP3    H233583   5.237   6.259  10.094  2.1596  1.9209  0.7081
 3130TIP3   OH233584   3.525   0.095  10.477 -0.5916 -0.3026  0.3904
 3130TIP3    H133585   3.529   0.024  10.413  1.0361 -0.3478  0.4936
 3130TIP3    H233586   3.446   0.143  10.454 -0.1736 -0.4349 -1.5309
 3131TIP3   OH233587   3.730   5.333   9.287 -0.3138 -0.4444  0.2613
 3131TIP3    H133588   3.674   5.335   9.364 -2.1339  1.5736 -0.9876
 3131TIP3    H233589   3.789   5.407   9.298 -0.1345 -0.5539  0.0506
 3132TIP3   OH233590   3.521   1.469   9.774 -0.3478 -0.1264 -0.3062
 3132TIP3    H133591   3.552   1.510   9.694  2.0254  1.5822  1.3687
 3132TIP3    H233592   3.471   1.538   9.819  0.2633 -0.3146  0.7010
 3133TIP3   OH233593   2.711   2.292   8.599  0.6267  0.0095 -0.2949
 3133TIP3    H133594   2.732   2.380   8.569 -0.5305 -0.3520 -2.3446
 3133TIP3    H233595   2.774   2.235   8.554  1.1843 -0.2607  0.7911
 3134TIP3   OH233596   0.138   1.981  10.229  0.3189 -0.0239  0.6636
 3134TIP3    H133597   0.088   1.987  10.310  0.6144 -2.0324  1.0298
 3134TIP3    H233598   0.229   1.978  10.258  0.6298  1.9362  0.0793
 3135TIP3   OH233599   4.672   3.810  11.161 -0.4554  0.7431  0.4428
 3135TIP3    H133600   4.690   3.818  11.068  0.2938  0.1457  0.5272
 3135TIP3    H233601   4.747   3.853  11.204 -1.3184  1.9838  0.7763
 3136TIP3   OH233602   4.648   4.183  11.470 -0.1379 -0.0745 -0.0583
 3136TIP3    H133603   4.585   4.194  11.399  1.9758  0.6715 -1.9290
 3136TIP3    H233604   4.704   4.260  11.465  0.6745 -0.4873  1.8332
 3137TIP3   OH233605   0.277   4.363  10.244  0.7109  0.8031  0.0298
 3137TIP3    H133606   0.323   4.302  10.302 -0.9938 -2.2853 -1.5695
 3137TIP3    H233607   0.346   4.406  10.193  1.9923 -1.0306  0.1296
 3138TIP3   OH233608   4.260   6.428   9.901 -0.5652 -0.4603 -0.2492
 3138TIP3    H133609   4.199   6.492   9.938  1.1345  0.4205  1.1782
 3138TIP3    H233610   4.215   6.344   9.909 -0.8305 -0.1176  2.6107
 3139TIP3   OH233611   0.192   3.290  11.411 -0.3669 -0.0643 -0.7847
 3139TIP3    H133612   0.197   3.302  11.316  1.6777  1.0536 -0.5868
 3139TIP3    H233613   0.283   3.290  11.441 -0.9742  0.3322  1.2689
 3140TIP3   OH233614   5.506   1.126  11.353 -0.0975  0.3482 -0.3621
 3140TIP3    H133615   5.489   1.104  11.445 -1.6069 -2.7971 -1.2620
 3140TIP3    H233616   5.433   1.088  11.305 -0.1784  3.2491 -2.8147
 3141TIP3   OH233617   0.480   0.784  12.028 -0.3979 -0.1436 -0.0907
 3141TIP3    H133618   0.432   0.750  12.104 -0.1229 -0.5200 -0.0841
 3141TIP3    H233619   0.511   0.706  11.983  1.2228  0.0964  0.5515
 3142TIP3   OH233620   5.170   1.666  10.817  0.0273 -0.5325  0.0206
 3142TIP3    H133621   5.190   1.573  10.830  0.1160 -0.3406  1.3709
 3142TIP3    H233622   5.083   1.667  10.778  0.4989 -1.2091 -1.0997
 3143TIP3   OH233623   1.424   0.629  10.339 -0.0166 -0.2859 -0.3293
 3143TIP3    H133624   1.437   0.550  10.392  0.0313 -0.2132 -0.2326
 3143TIP3    H233625   1.446   0.601  10.250  1.5587  0.0198 -0.0620
 3144TIP3   OH233626   6.332   6.522  11.092  0.3077 -0.0796 -0.6092
 3144TIP3    H133627   6.363   6.431  11.099  0.7575  0.0512 -0.9081
 3144TIP3    H233628   6.336   6.554  11.182  2.0540  0.2583 -0.7749
 3145TIP3   OH233629   3.478   4.157  10.297  0.1444 -0.3564 -1.2642
 3145TIP3    H133630   3.397   4.127  10.256 -0.9392  0.0652  0.4707
 3145TIP3    H233631   3.497   4.091  10.364  0.5440  0.1914 -0.8267
 3146TIP3   OH233632   2.916   4.610  10.717  0.2475 -0.2487 -0.5407
 3146TIP3    H133633   2.834   4.608  10.767  0.3337  3.8083  0.0261
 3146TIP3    H233634   2.889   4.634  10.628  0.7772  1.7081 -0.2136
 3147TIP3   OH233635   5.227   1.880   9.658 -0.1019 -0.1444 -0.2401
 3147TIP3    H133636   5.260   1.790   9.667  0.9975 -0.0713 -2.8214
 3147TIP3    H233637   5.305   1.933   9.647 -0.8374  0.5883 -2.4979
 3148TIP3   OH233638   4.572   1.977  11.467 -0.0798  0.2660 -0.2918
 3148TIP3    H133639   4.538   1.970  11.557  0.3401 -0.3290 -0.1758
 3148TIP3    H233640   4.505   2.028  11.421 -2.3348 -2.7332 -0.6480
 3149TIP3   OH233641   4.376   4.048  10.290 -0.1297  0.3411  0.2998
 3149TIP3    H133642   4.316   4.000  10.233 -0.4850  0.9370  0.1618
 3149TIP3    H233643   4.446   4.078  10.231 -0.6795  1.2571  0.1087
 3150TIP3   OH233644   0.776   2.877   9.876  0.0634 -0.4593  0.2229
 3150TIP3    H133645   0.853   2.929   9.852 -0.1480 -0.1303  0.2474
 3150TIP3    H233646   0.807   2.787   9.875  0.4167 -0.3401  0.1001
 3151TIP3   OH233647   0.854   0.371  11.653  0.1556  0.6465 -0.2359
 3151TIP3    H133648   0.785   0.409  11.598  0.7938  3.0819  0.5224
 3151TIP3    H233649   0.924   0.436  11.651  1.3921 -0.5912  1.0897
 3152TIP3   OH233650   2.756   5.671  10.955  0.0167 -0.3288  0.2185
 3152TIP3    H133651   2.717   5.591  10.991 -0.7465 -0.5432 -1.0416
 3152TIP3    H233652   2.850   5.654  10.959 -0.0860 -0.7769  1.1000
 3153TIP3   OH233653   6.215   5.880   8.980  0.4179 -0.3173 -0.3589
 3153TIP3    H133654   6.205   5.796   9.026  0.4033 -0.8098 -1.2510
 3153TIP3    H233655   6.149   5.878   8.911  3.2736 -1.5664 -3.3032
 3154TIP3   OH233656   0.130   2.032  11.218  0.8484 -0.1728 -0.5262
 3154TIP3    H133657   0.099   2.095  11.283 -2.9249 -2.2418 -0.0455
 3154TIP3    H233658   0.115   2.075  11.133  0.5775  0.4471 -0.1727
 3155TIP3   OH233659   5.790   1.537   9.601 -0.5016 -0.3848 -0.1579
 3155TIP3    H133660   5.715   1.540   9.541  1.0099  1.7960 -2.1173
 3155TIP3    H233661   5.760   1.582   9.680 -1.5205 -0.3743 -0.5400
 3156TIP3   OH233662   1.894   0.102   9.548 -0.1089 -0.6111 -0.5068
 3156TIP3    H133663   1.954   0.067   9.614 -0.8670 -1.2041 -0.1172
 3156TIP3    H233664   1.830   0.151   9.599 -0.4023 -0.6392 -0.8516
 3157TIP3   OH233665   4.275   1.175  11.958 -0.1553 -0.3880 -0.3088
 3157TIP3    H133666   4.219   1.251  11.974  0.9883  0.7480 -1.5052
 3157TIP3    H233667   4.234   1.130  11.884 -1.1387 -1.2828  0.7470
 3158TIP3   OH233668   3.572   1.663   9.070  0.9068  0.0724 -0.1976
 3158TIP3    H133669   3.593   1.577   9.107  0.7924 -0.3490 -1.1043
 3158TIP3    H233670   3.478   1.673   9.086  1.3505  1.1695  2.2119
 3159TIP3   OH233671   1.731   1.278   9.611 -0.0852 -0.2108  0.2358
 3159TIP3    H133672   1.802   1.221   9.582 -0.0256  0.0722 -0.1925
 3159TIP3    H233673   1.671   1.220   9.658  0.3614 -0.4745  0.4859
 3160TIP3   OH233674   3.594   1.618  11.450 -0.1679 -0.0638  0.0280
 3160TIP3    H133675   3.501   1.637  11.451 -0.2832 -0.5868  0.9816
 3160TIP3    H233676   3.632   1.679  11.513  0.5170  1.7685 -2.0302
 3161TIP3   OH233677   0.919   6.148   8.746 -0.1608 -0.5576  0.1844
 3161TIP3    H133678   0.890   6.209   8.678  0.3531 -0.4199  0.0909
 3161TIP3    H233679   0.852   6.155   8.814  0.7904  1.4142  0.9795
 3162TIP3   OH233680   4.224   4.862  12.011  0.2189  0.5403 -0.2799
 3162TIP3    H133681   4.247   4.786  11.958  0.5002 -1.2734  2.2628
 3162TIP3    H233682   4.130   4.855  12.024  0.2510  0.6046 -0.0093
 3163TIP3   OH233683   4.477   6.634   9.350 -0.3668 -0.0898  0.3464
 3163TIP3    H133684   4.483   6.690   9.427  3.3236 -0.9991  0.9470
 3163TIP3    H233685   4.470   6.695   9.276  0.6050  1.0743  1.1712
 3164TIP3   OH233686   5.996   0.125  10.221  0.5018 -0.3051 -0.2223
 3164TIP3    H133687   5.939   0.197  10.248  0.8132  1.6910 -4.1484
 3164TIP3    H233688   5.936   0.055  10.197 -0.0873  0.2888 -0.5176
 3165TIP3   OH233689   0.445   0.819   9.688  0.0024  0.3703 -0.1265
 3165TIP3    H133690   0.434   0.914   9.688 -2.7345  0.1717  1.3789
 3165TIP3    H233691   0.366   0.786   9.646  1.4921 -1.2762 -1.8016
 3166TIP3   OH233692   2.439   5.025   9.724 -0.1700 -0.0830  0.2276
 3166TIP3    H133693   2.366   4.963   9.713  0.3435 -0.5086 -0.9934
 3166TIP3    H233694   2.507   4.991   9.666  0.0241  1.7713 -0.6819
 3167TIP3   OH233695   1.792   4.047   9.320  0.6106 -0.4230  0.1026
 3167TIP3    H133696   1.867   4.096   9.287  0.1076  0.3751  0.1223
 3167TIP3    H233697   1.716   4.090   9.281 -0.0475  0.7625  2.5032
 3168TIP3   OH233698   3.392   5.999  10.264  0.5240 -0.5585  0.2093
 3168TIP3    H133699   3.300   5.973  10.260  0.6420 -1.2015  1.2637
 3168TIP3    H233700   3.423   5.990  10.174 -0.3867 -0.5176 -0.1279
 3169TIP3   OH233701   5.214   5.325   9.532 -0.2437 -0.2272  1.0004
 3169TIP3    H133702   5.210   5.233   9.505 -0.6446 -0.3998  1.6358
 3169TIP3    H233703   5.122   5.353   9.535 -0.0667  0.6815 -0.8035
 3170TIP3   OH233704   5.176   5.096  12.132  0.1069 -0.4042  0.2846
 3170TIP3    H133705   5.173   5.164  12.064 -0.3938 -2.1409 -1.5364
 3170TIP3    H233706   5.264   5.101  12.167  0.4664  0.3782 -0.6810
 3171TIP3   OH233707   5.733   3.857  10.308 -0.0184  0.8101 -0.1735
 3171TIP3    H133708   5.783   3.910  10.370 -0.2086  0.3937  0.3440
 3171TIP3    H233709   5.797   3.796  10.271  0.0302  0.8440 -0.1452
 3172TIP3   OH233710   0.315   2.997  10.522  0.0744  0.6652 -0.3423
 3172TIP3    H133711   0.225   2.999  10.488 -0.0234  1.4704 -0.0503
 3172TIP3    H233712   0.307   2.952  10.606  0.0561  0.1463 -0.6154
 3173TIP3   OH233713   2.388   6.299  11.071  0.1395  0.1859  0.0077
 3173TIP3    H133714   2.459   6.341  11.121 -0.9653 -0.2901  2.0842
 3173TIP3    H233715   2.361   6.365  11.008 -0.7366  2.2395  2.3675
 3174TIP3   OH233716   5.522   5.979   8.980  0.4375  0.4347  0.2400
 3174TIP3    H133717   5.491   6.010   8.895 -0.7166 -0.7704  0.1929
 3174TIP3    H233718   5.545   6.059   9.028 -2.1740  1.4109  0.0282
 3175TIP3   OH233719   1.477   1.792   8.759 -0.2034  0.3369  0.3611
 3175TIP3    H133720   1.504   1.825   8.844  0.7520  2.0358 -0.5418
 3175TIP3    H233721   1.481   1.869   8.701 -3.1197 -0.2182 -0.7329
 3176TIP3   OH233722   4.392   3.248   9.523 -0.7660 -0.3344  0.2296
 3176TIP3    H133723   4.301   3.245   9.553 -0.5000 -1.3258  0.9730
 3176TIP3    H233724   4.417   3.339   9.532 -1.6523 -0.0685  0.1225
 3177TIP3   OH233725   1.262   0.520  10.943 -0.1385  0.0912  0.4356
 3177TIP3    H133726   1.249   0.426  10.932 -1.6407  0.4201 -1.1450
 3177TIP3    H233727   1.234   0.557  10.859 -1.3510  2.0881  1.6483
 3178TIP3   OH233728   4.619   0.892  10.366  0.0998  0.1295 -0.6043
 3178TIP3    H133729   4.641   0.840  10.443  0.2668  0.9475 -0.0959
 3178TIP3    H233730   4.672   0.854  10.296  2.4282  1.4007  0.3658
 3179TIP3   OH233731   1.043   0.372  10.722  0.2356  0.4174 -0.5326
 3179TIP3    H133732   1.069   0.290  10.680 -1.0180 -0.1199 -0.2978
 3179TIP3    H233733   1.119   0.429  10.712  1.7381 -1.2722  0.6642
 3180TIP3   OH233734   2.837   4.491  10.254  0.2869  0.2581  0.2344
 3180TIP3    H133735   2.860   4.398  10.255 -1.5205 -0.2297  1.4350
 3180TIP3    H233736   2.807   4.507  10.164  0.7239 -0.2772 -0.0133
 3181TIP3   OH233737   1.931   1.198  10.445  0.1473 -0.4082 -0.1837
 3181TIP3    H133738   1.952   1.279  10.399  0.9076 -0.2973  0.3397
 3181TIP3    H233739   1.836   1.194  10.445  0.1206  0.0742 -0.9164
 3182TIP3   OH233740   1.334   5.415  11.762 -0.1328 -0.4035 -0.1064
 3182TIP3    H133741   1.282   5.494  11.747 -0.2749 -0.4224  0.2666
 3182TIP3    H233742   1.425   5.444  11.754 -0.1971 -0.4839 -1.3118
 3183TIP3   OH233743   0.443   0.301   9.266 -0.1602  0.2065  0.1259
 3183TIP3    H133744   0.432   0.219   9.314  1.4506 -0.2333 -0.2018
 3183TIP3    H233745   0.461   0.366   9.334  0.6370 -0.1361  0.2637
 3184TIP3   OH233746   4.107   1.761   8.895  0.5019 -0.1085  0.0450
 3184TIP3    H133747   4.092   1.676   8.938  1.6249  0.0657  0.8090
 3184TIP3    H233748   4.198   1.783   8.915 -0.1690  1.9736  1.0898
 3185TIP3   OH233749   3.995   2.930  11.575  0.3173  0.1873 -0.2360
 3185TIP3    H133750   3.988   2.869  11.649  1.0223  1.7225  1.1699
 3185TIP3    H233751   3.916   2.983  11.581 -0.5306 -0.8438 -1.7445
 3186TIP3   OH233752   0.508   3.532  12.282  0.1721 -0.2906  0.1742
 3186TIP3    H133753   0.594   3.556  12.248 -0.5133  0.8310 -0.8273
 3186TIP3    H233754   0.455   3.611  12.273 -0.7140 -0.6546  1.7039
 3187TIP3   OH233755   2.898   1.773   9.000  0.0738  0.2444  0.1435
 3187TIP3    H133756   2.963   1.779   9.070  0.1212  1.3410  0.0094
 3187TIP3    H233757   2.949   1.759   8.921  0.1061  0.4185  0.1336
 3188TIP3   OH233758   4.446   3.684  10.270 -0.0619  0.3653  0.2219
 3188TIP3    H133759   4.389   3.757  10.245  0.2200  0.6994  0.5248
 3188TIP3    H233760   4.529   3.726  10.291  0.1556 -0.0690  0.2294
 3189TIP3   OH233761   3.864   1.304  11.769  0.4031 -0.1864  0.3134
 3189TIP3    H133762   3.863   1.398  11.784 -0.6956 -0.3549  1.5110
 3189TIP3    H233763   3.952   1.285  11.735  0.8301  1.1778  0.6178
 3190TIP3   OH233764   6.494   1.952   9.758  0.5171  0.5283 -0.0944
 3190TIP3    H133765   6.511   1.881   9.696  1.9422 -0.5390  1.3887
 3190TIP3    H233766   6.581   1.978   9.789 -0.0208  2.5445 -0.1572
 3191TIP3   OH233767   2.985   0.520  11.609  0.1007 -0.0934 -0.1313
 3191TIP3    H133768   2.914   0.459  11.632 -0.6022  0.7863  0.0906
 3191TIP3    H233769   3.065   0.476  11.639 -0.5484 -0.1504  1.6334
 3192TIP3   OH233770   0.722   4.690   8.873  0.1257  0.1039 -0.6498
 3192TIP3    H133771   0.760   4.771   8.839 -0.2542 -0.1666 -1.7443
 3192TIP3    H233772   0.645   4.675   8.818 -1.0873  0.1751  0.9440
 3193TIP3   OH233773   1.167   5.251  11.199 -0.5917  0.4110  0.8991
 3193TIP3    H133774   1.227   5.184  11.230  0.7391  1.8984  1.6484
 3193TIP3    H233775   1.213   5.292  11.126 -2.3170 -0.8683 -1.0219
 3194TIP3   OH233776   2.451   1.020  11.934 -0.9319 -0.5908 -0.3511
 3194TIP3    H133777   2.409   1.093  11.889  0.5191 -0.5550 -1.7585
 3194TIP3    H233778   2.379   0.964  11.962 -2.0350  1.0227  0.1731
 3195TIP3   OH233779   4.071   3.976   9.897  0.4028  0.3829  0.1768
 3195TIP3    H133780   4.012   4.032   9.946  1.5366  1.9548 -0.1645
 3195TIP3    H233781   4.016   3.905   9.864 -1.3095  1.8390 -0.2288
 3196TIP3   OH233782   0.275   6.399  10.766  0.5384 -0.3622  0.0216
 3196TIP3    H133783   0.203   6.395  10.702  0.2813  0.0136  0.2901
 3196TIP3    H233784   0.237   6.365  10.847  0.6857 -0.2269  0.1468
 3197TIP3   OH233785   4.423   4.648  11.127  0.1727 -0.2685  0.2479
 3197TIP3    H133786   4.406   4.635  11.034 -0.6482 -0.0426  0.3639
 3197TIP3    H233787   4.339   4.673  11.164  0.5618 -0.0340  0.9977
 3198TIP3   OH233788   4.603   1.182   8.799 -0.0629 -0.3441  0.2165
 3198TIP3    H133789   4.649   1.102   8.775  1.4414  0.3491  0.6339
 3198TIP3    H233790   4.666   1.252   8.781 -1.5403  0.8120 -0.6686
 3199TIP3   OH233791   0.422   2.772  10.319  0.2992 -0.2523  0.6552
 3199TIP3    H133792   0.431   2.726  10.402 -0.4100  0.0923  0.9307
 3199TIP3    H233793   0.354   2.837  10.335  0.4067  0.0538 -0.0943
 3200TIP3   OH233794   4.460   4.809   9.940 -0.0175 -0.4513 -0.1552
 3200TIP3    H133795   4.489   4.861   9.865 -3.0456  0.6871 -0.6765
 3200TIP3    H233796   4.489   4.859  10.016  1.2180 -0.5124 -0.5590
 3201TIP3   OH233797   6.146   3.309  11.003  0.0777 -0.4450  0.1143
 3201TIP3    H133798   6.140   3.405  11.000 -3.1088 -0.4999  0.4500
 3201TIP3    H233799   6.190   3.291  11.086  2.9080  0.6376 -1.0217
 3202TIP3   OH233800   0.897   1.619  12.110 -0.0109 -0.8456 -0.0967
 3202TIP3    H133801   0.962   1.673  12.155  0.1131 -0.2396 -0.9832
 3202TIP3    H233802   0.940   1.534  12.100  0.0664 -0.9028  0.6604
 3203TIP3   OH233803   2.633   3.624   9.127 -0.4655 -0.2611  0.3427
 3203TIP3    H133804   2.637   3.538   9.084  0.8069 -0.4056  0.7088
 3203TIP3    H233805   2.594   3.682   9.061 -0.9610 -1.0307 -0.0574
 3204TIP3   OH233806   6.619   6.109   9.838  0.0892  0.0898 -0.3056
 3204TIP3    H133807   6.674   6.071   9.906 -0.8685 -1.2532 -0.2166
 3204TIP3    H233808   6.655   6.076   9.756  0.7330  1.0181 -0.4060
 3205TIP3   OH233809   4.693   6.189   9.911  0.3301  0.6064  0.5454
 3205TIP3    H133810   4.622   6.201   9.848 -0.3303 -0.3643  1.0763
 3205TIP3    H233811   4.742   6.114   9.878  0.1201  0.2416  1.0618
 3206TIP3   OH233812   3.565   3.247  10.740  0.3802 -0.5859 -0.3152
 3206TIP3    H133813   3.488   3.304  10.740 -0.1438 -1.1473  2.2354
 3206TIP3    H233814   3.607   3.262  10.655 -0.2580  2.8346 -0.1491
 3207TIP3   OH233815   3.670   4.748  11.076 -0.0481  0.2420 -0.0550
 3207TIP3    H133816   3.715   4.672  11.040 -0.0548 -0.2605  0.9523
 3207TIP3    H233817   3.661   4.808  11.002  0.4861 -0.4846 -0.7286
 3208TIP3   OH233818   6.387   6.678  10.222 -0.4910 -0.1738  0.2466
 3208TIP3    H133819   6.404   6.772  10.217  1.5741 -0.5726 -1.7768
 3208TIP3    H233820   6.373   6.661  10.315 -0.8694  2.0906  0.6764
 3209TIP3   OH233821   3.874   1.918  11.670 -0.2724  0.1685  0.1126
 3209TIP3    H133822   3.869   1.977  11.595  0.8587 -2.4575 -2.2114
 3209TIP3    H233823   3.856   1.974  11.746  2.7405  3.9340 -1.6060
 3210TIP3   OH233824   4.390   0.666   9.150 -0.3241 -0.1506 -0.2367
 3210TIP3    H133825   4.466   0.724   9.141 -0.9587  1.0325  1.5939
 3210TIP3    H233826   4.361   0.678   9.241 -1.3120 -2.3267 -0.2055
 3211TIP3   OH233827   5.271   3.312  11.333 -0.0045  0.2723 -0.2264
 3211TIP3    H133828   5.251   3.250  11.404 -0.9494 -0.0045 -0.7216
 3211TIP3    H233829   5.290   3.257  11.258 -2.8074  0.5035 -1.2235
 3212TIP3   OH233830   4.671   3.972   9.296 -0.2776 -0.0060 -0.4871
 3212TIP3    H133831   4.742   3.911   9.279 -1.1449 -1.2317  0.0931
 3212TIP3    H233832   4.665   3.975   9.392 -1.6388 -0.7029 -0.5341
 3213TIP3   OH233833   6.212   0.431   8.522  0.2729  0.2388 -0.5487
 3213TIP3    H133834   6.273   0.401   8.589  1.8659  0.4617 -1.8245
 3213TIP3    H233835   6.130   0.386   8.542  0.2962  1.2267  2.2406
 3214TIP3   OH233836   4.327   1.809  11.277 -0.5466 -0.2455 -0.4096
 3214TIP3    H133837   4.386   1.854  11.217  2.2447 -0.4594  1.9208
 3214TIP3    H233838   4.339   1.716  11.258  0.4498 -0.3197  0.5039
 3215TIP3   OH233839   6.166   0.962  10.013 -0.3480  0.4808  0.3240
 3215TIP3    H133840   6.074   0.972   9.988  0.1402 -0.1030 -1.9289
 3215TIP3    H233841   6.178   0.867  10.022 -0.0459  0.5770  0.9883
 3216TIP3   OH233842   5.061   5.342  11.271  0.1832  0.0920  0.7284
 3216TIP3    H133843   5.154   5.324  11.259  0.7117  2.8300  0.0788
 3216TIP3    H233844   5.027   5.358  11.183 -1.0127 -1.1992  0.9212
 3217TIP3   OH233845   0.935   3.317  11.568  0.3124  0.5053  0.0372
 3217TIP3    H133846   0.917   3.243  11.509 -1.7470  0.9394  0.0403
 3217TIP3    H233847   0.980   3.277  11.643 -1.1717 -0.8861  0.2562
 3218TIP3   OH233848   3.654   2.371   9.430  0.0999 -0.4594  0.0814
 3218TIP3    H133849   3.613   2.454   9.409  0.0607 -0.5903 -0.3729
 3218TIP3    H233850   3.713   2.391   9.503 -0.3876 -0.1696  0.4058
 3219TIP3   OH233851   1.802   3.571  12.211  0.4568 -0.4755 -0.6288
 3219TIP3    H133852   1.791   3.660  12.180 -0.3965 -0.3242  0.0599
 3219TIP3    H233853   1.896   3.562  12.227  0.3416  0.9295  1.0805
 3220TIP3   OH233854   5.604   4.773  10.177 -0.1517  0.1849  0.2901
 3220TIP3    H133855   5.658   4.694  10.179 -0.2684  0.0885 -0.1980
 3220TIP3    H233856   5.515   4.741  10.195 -0.4051  0.0133 -1.1370
 3221TIP3   OH233857   4.160   0.388  11.630  0.3387 -0.0089  0.4050
 3221TIP3    H133858   4.194   0.308  11.590  0.0981  0.9711 -1.8800
 3221TIP3    H233859   4.237   0.445  11.637  0.6427 -0.5936  2.6220
 3222TIP3   OH233860   1.731   3.321  10.621  0.2719  0.4234 -0.3592
 3222TIP3    H133861   1.799   3.265  10.584  0.6920 -0.5020  1.6746
 3222TIP3    H233862   1.673   3.260  10.667 -1.3643  1.3096 -1.1903
 3223TIP3   OH233863   2.439   4.192  12.239  0.2200 -0.2611 -0.1253
 3223TIP3    H133864   2.441   4.250  12.315 -1.0309 -0.2924 -0.0471
 3223TIP3    H233865   2.493   4.237  12.173 -0.7461  1.0112 -0.0819
 3224TIP3   OH233866   3.217   4.356   8.936  0.1511 -0.3352 -0.0929
 3224TIP3    H133867   3.306   4.367   8.903  0.8897 -0.0638  1.8393
 3224TIP3    H233868   3.174   4.440   8.917  1.0601  0.4140  1.0305
 3225TIP3   OH233869   4.430   1.673   9.999 -0.3051 -0.4766 -0.4918
 3225TIP3    H133870   4.368   1.746   9.991 -0.4970 -0.5272  0.4101
 3225TIP3    H233871   4.377   1.595   9.987 -0.1869 -0.4890 -0.9604
 3226TIP3   OH233872   2.192   4.248   9.770 -0.2742 -0.0567 -0.0473
 3226TIP3    H133873   2.269   4.192   9.760 -0.6543 -0.6171  0.1484
 3226TIP3    H233874   2.138   4.229   9.693 -0.1288  0.4881 -0.2915
 3227TIP3   OH233875   6.306   1.715   8.951  0.6019 -0.2246  0.0688
 3227TIP3    H133876   6.330   1.783   9.014 -0.1344 -0.2493  0.3719
 3227TIP3    H233877   6.293   1.763   8.869  0.0300  0.0069  0.2937
 3228TIP3   OH233878   4.712   4.026  10.546  0.0490 -0.2861 -0.1001
 3228TIP3    H133879   4.712   3.976  10.464 -0.0508  0.4444 -0.5517
 3228TIP3    H233880   4.805   4.038  10.567  0.0947  0.2390 -0.5599
 3229TIP3   OH233881   4.006   2.810  11.828 -0.2144  0.3088 -0.2900
 3229TIP3    H133882   4.021   2.759  11.908  0.0202 -0.4765 -0.8177
 3229TIP3    H233883   3.994   2.900  11.858 -1.9981 -0.2438  0.7870
 3230TIP3   OH233884   3.867   6.558   9.133 -0.6241 -0.6279 -0.4249
 3230TIP3    H133885   3.897   6.474   9.167  2.2012  0.6805  0.6516
 3230TIP3    H233886   3.908   6.623   9.190 -0.6349  1.5365 -2.7118
 3231TIP3   OH233887   6.149   6.189   9.602  0.0082 -0.3429  0.1557
 3231TIP3    H133888   6.176   6.117   9.659 -1.3163  0.2853  1.6570
 3231TIP3    H233889   6.195   6.266   9.636  0.9560 -0.3307 -1.0694
 3232TIP3   OH233890   3.486   3.540  11.553 -0.4188  0.3103 -0.6879
 3232TIP3    H133891   3.573   3.548  11.512 -0.1031 -1.0497 -0.3538
 3232TIP3    H233892   3.452   3.629  11.555  1.2539  0.9871 -0.2284
 3233TIP3   OH233893   5.494   2.047  10.697  0.1040  0.0844  0.2999
 3233TIP3    H133894   5.489   1.981  10.766  4.2087 -0.3230  0.4553
 3233TIP3    H233895   5.493   2.131  10.743 -1.2527  0.0330  0.4164
 3234TIP3   OH233896   4.553   2.726  10.296 -0.2188  0.4921  0.5913
 3234TIP3    H133897   4.616   2.707  10.226 -0.8150  1.3493 -0.2042
 3234TIP3    H233898   4.521   2.641  10.324  0.9432  0.0688  0.6812
 3235TIP3   OH233899   3.945   0.194   9.826 -0.8704 -0.1023 -0.1448
 3235TIP3    H133900   3.866   0.238   9.796 -0.4259  0.6828 -0.1894
 3235TIP3    H233901   3.915   0.138   9.898 -1.4709  0.1612 -0.1833
 3236TIP3   OH233902   4.196   5.632   9.713  0.0939 -0.1412 -0.2761
 3236TIP3    H133903   4.220   5.658   9.802 -0.3489  0.9384 -0.4528
 3236TIP3    H233904   4.273   5.653   9.660 -0.2074  0.7331 -0.3927
 3237TIP3   OH233905   2.340   0.188  12.260  0.9163  0.5476 -0.2086
 3237TIP3    H133906   2.396   0.249  12.213 -0.1576 -0.1886 -2.6344
 3237TIP3    H233907   2.356   0.103  12.217 -0.9624  0.0616 -0.0572
 3238TIP3   OH233908   3.552   1.016   9.511  0.4842 -0.3300  0.4290
 3238TIP3    H133909   3.627   1.052   9.559  1.1756 -0.7537 -0.3154
 3238TIP3    H233910   3.499   0.973   9.579  2.1873 -2.1890  0.6706
 3239TIP3   OH233911   4.898   5.685  10.634 -0.0994  0.1704  0.5552
 3239TIP3    H133912   4.870   5.775  10.649 -1.2009 -0.2414  1.0947
 3239TIP3    H233913   4.991   5.685  10.654  0.0106  1.2853  0.0954
 3240TIP3   OH233914   5.201   6.613   8.791 -0.1924 -0.0942  0.0132
 3240TIP3    H133915   5.251   6.537   8.761 -0.1927  0.6265 -1.9505
 3240TIP3    H233916   5.113   6.600   8.755 -0.5244  0.2495  0.6921
 3241TIP3   OH233917   2.923   5.020  11.769  0.0611  0.1529  0.1924
 3241TIP3    H133918   2.887   5.075  11.839  0.0884  1.0918 -0.5068
 3241TIP3    H233919   2.872   4.939  11.774 -0.1822  0.3424  1.0605
 3242TIP3   OH233920   4.453   1.916   8.243 -0.0851 -0.2780 -0.1080
 3242TIP3    H133921   4.469   1.957   8.158  1.2337 -0.1949  0.1547
 3242TIP3    H233922   4.400   1.839   8.223  1.9135 -1.4248 -1.3131
 3243TIP3   OH233923   5.719   5.653   9.520 -0.0742 -0.6853  0.3255
 3243TIP3    H133924   5.719   5.627   9.612 -2.8483 -0.9744  0.3116
 3243TIP3    H233925   5.719   5.749   9.523  1.3018 -0.6608  0.5378
 3244TIP3   OH233926   0.924   6.488  10.774 -0.7909 -0.0306  0.1310
 3244TIP3    H133927   0.950   6.467  10.863 -2.4242  3.1588  1.5216
 3244TIP3    H233928   0.829   6.476  10.772 -0.8346  0.3082 -1.0738
 3245TIP3   OH233929   2.596   0.842  10.371 -0.4088  0.3746 -0.4175
 3245TIP3    H133930   2.535   0.783  10.415 -0.1007  0.3958  0.0363
 3245TIP3    H233931   2.662   0.784  10.332 -0.1875  0.4109 -0.0959
 3246TIP3   OH233932   3.608   3.964   8.923 -0.5869  0.5033  0.1646
 3246TIP3    H133933   3.582   3.918   8.843 -0.5168 -0.9386  0.9279
 3246TIP3    H233934   3.702   3.948   8.930 -0.1228  2.5845 -0.6452
 3247TIP3   OH233935   6.278   0.216  10.903 -0.7058  0.0256 -0.5998
 3247TIP3    H133936   6.211   0.238  10.968 -0.4675  0.4374 -0.4938
 3247TIP3    H233937   6.276   0.120  10.899 -1.8472  0.0484 -1.1701
 3248TIP3   OH233938   0.329   0.138  10.027  0.0460  0.3287  0.3607
 3248TIP3    H133939   0.368   0.216   9.987  0.7714 -0.5037 -0.5958
 3248TIP3    H233940   0.267   0.106   9.961  0.6610 -0.6065  0.2208
 3249TIP3   OH233941   2.732   3.934   9.489 -0.4941 -0.3017 -0.5520
 3249TIP3    H133942   2.774   3.891   9.564 -0.2930  2.3918  1.0169
 3249TIP3    H233943   2.786   3.907   9.414  2.5867  0.9336  1.0164
 3250TIP3   OH233944   3.555   5.318  10.432 -0.0465  0.0285  0.2743
 3250TIP3    H133945   3.511   5.367  10.501 -2.2119 -0.6412 -0.5480
 3250TIP3    H233946   3.615   5.260  10.479 -0.1954  0.8031  1.4664
 3251TIP3   OH233947   3.088   0.978  12.101 -0.2858 -0.2236  0.1071
 3251TIP3    H133948   3.160   0.916  12.116  0.5387  0.5441 -0.5221
 3251TIP3    H233949   3.013   0.923  12.080  0.2681 -1.0381  0.2033
 3252TIP3   OH233950   0.013   5.553   9.658 -0.3474 -0.3299  0.1213
 3252TIP3    H133951  -0.013   5.592   9.575  0.1475 -0.2788 -0.0078
 3252TIP3    H233952   0.102   5.584   9.673 -0.0536 -1.1781  0.1574
 3253TIP3   OH233953   5.322   4.716  12.308  0.6059  0.3802  0.5621
 3253TIP3    H133954   5.259   4.772  12.354  3.0935  1.4364  3.0367
 3253TIP3    H233955   5.396   4.774  12.290  0.9311 -0.7667 -2.3342
 3254TIP3   OH233956   5.478   5.487  11.750 -0.1737  0.1142 -0.6333
 3254TIP3    H133957   5.498   5.430  11.825  1.0876  1.6567  0.2533
 3254TIP3    H233958   5.463   5.426  11.678 -0.2918 -1.3903  0.5901
 3255TIP3   OH233959   4.967   5.440  11.947 -0.2692 -0.2136  0.3214
 3255TIP3    H133960   4.873   5.421  11.954 -0.4800  1.1432  1.5246
 3255TIP3    H233961   4.971   5.535  11.936  0.9500 -0.3442 -0.5884
 3256TIP3   OH233962   6.608   4.811   9.085  0.1261 -0.1340  0.2008
 3256TIP3    H133963   6.546   4.747   9.118  0.7337  0.5296  2.8146
 3256TIP3    H233964   6.556   4.866   9.026 -2.0550  0.8519  2.8388
 3257TIP3   OH233965   4.840   0.694  11.903 -0.3273 -0.5238 -0.1216
 3257TIP3    H133966   4.882   0.653  11.827 -0.8797 -0.2715 -0.5696
 3257TIP3    H233967   4.761   0.643  11.917 -0.2494 -0.5427  0.2681
 3258TIP3   OH233968   5.638   3.975   9.413  0.5009 -0.2226 -0.2539
 3258TIP3    H133969   5.671   3.889   9.438 -0.5170 -0.9115 -1.1933
 3258TIP3    H233970   5.696   4.004   9.342 -1.2347 -1.7510 -2.4052
 3259TIP3   OH233971   3.267   4.233  11.634 -0.0545  0.5080 -0.0253
 3259TIP3    H133972   3.171   4.225  11.627  0.0914  0.4253 -2.8968
 3259TIP3    H233973   3.289   4.309  11.581  1.5794 -0.2781 -0.5317
 3260TIP3   OH233974   2.018   6.413   9.536  0.0236 -0.1783  0.1038
 3260TIP3    H133975   1.999   6.408   9.630 -0.7030 -0.6201 -0.0594
 3260TIP3    H233976   1.939   6.380   9.494  0.3838 -0.0762 -0.6656
 3261TIP3   OH233977   3.876   0.559   8.683 -0.0041  0.4707  0.1712
 3261TIP3    H133978   3.855   0.608   8.603  0.8965  0.9178  0.1927
 3261TIP3    H233979   3.898   0.472   8.652  0.8049  0.7721 -0.1314
 3262TIP3   OH233980   0.865   3.906  10.161  0.4361 -0.0331  0.9697
 3262TIP3    H133981   0.843   3.949  10.243  0.2736 -0.9346  1.4092
 3262TIP3    H233982   0.960   3.898  10.162  0.4364 -0.0141  1.0558
 3263TIP3   OH233983   0.706   1.559  11.519 -0.7340  0.2468 -0.3510
 3263TIP3    H133984   0.614   1.538  11.502 -0.6476 -0.1992 -0.2872
 3263TIP3    H233985   0.704   1.610  11.600 -0.6991 -2.4336  1.4671
 3264TIP3   OH233986   2.877   4.097   9.910  0.0880  0.1471  0.2008
 3264TIP3    H133987   2.807   4.161   9.897 -1.5406 -2.0362 -2.9915
 3264TIP3    H233988   2.950   4.131   9.859 -0.8756 -0.5628 -1.7458
 3265TIP3   OH233989   2.115   4.966   9.729 -0.3580  0.6404 -0.5145
 3265TIP3    H133990   2.186   4.903   9.721 -0.5362  0.2676  0.7247
 3265TIP3    H233991   2.067   4.958   9.646  0.7920  0.6239 -1.2086
 3266TIP3   OH233992   6.591   3.409   8.775 -0.7328  0.3009  0.2231
 3266TIP3    H133993   6.677   3.377   8.801 -1.3768 -0.6555  1.2564
 3266TIP3    H233994   6.565   3.353   8.701  1.3737  3.4223 -3.2533
 3267TIP3   OH233995   3.917   1.098   9.401  0.5098 -0.0112 -0.3688
 3267TIP3    H133996   3.923   1.193   9.410  0.9999 -0.1742  1.6832
 3267TIP3    H233997   3.907   1.083   9.307  0.8307  2.0334 -0.7843
 3268TIP3   OH233998   0.872   1.927  11.154  0.3937  0.4484  0.1380
 3268TIP3    H133999   0.807   1.933  11.085  1.8159 -0.1493 -1.3131
 3268TIP3    H234000   0.831   1.872  11.221 -0.0471 -1.2155 -1.4270
 3269TIP3   OH234001   1.321   3.939  10.451 -0.2649  0.3509  0.0790
 3269TIP3    H134002   1.301   3.961  10.542 -1.6009  0.6618 -0.2751
 3269TIP3    H234003   1.413   3.913  10.453  1.1661  4.7373  0.7651
 3270TIP3   OH234004   4.156   0.296  10.851  0.3353  0.6064 -0.0260
 3270TIP3    H134005   4.214   0.331  10.784  1.3439 -0.8471  0.0428
 3270TIP3    H234006   4.125   0.373  10.898  0.7430  1.5509 -1.2272
 3271TIP3   OH234007   1.932   6.333  11.885 -0.1572  0.2821 -0.8321
 3271TIP3    H134008   1.991   6.320  11.959 -1.5037 -0.7446  0.1024
 3271TIP3    H234009   1.964   6.413  11.843  2.5798 -0.8138 -1.0592
 3272TIP3   OH234010   6.319   1.531  11.977 -0.1891  0.4418 -0.0887
 3272TIP3    H134011   6.358   1.558  11.894  1.9717 -1.4575  0.2322
 3272TIP3    H234012   6.270   1.451  11.956 -0.8594  0.7564  0.2290
 3273TIP3   OH234013   3.860   1.629   9.969 -0.0620 -0.1262  0.2995
 3273TIP3    H134014   3.806   1.704   9.942  1.0321  0.0469 -1.5579
 3273TIP3    H234015   3.797   1.558   9.980 -0.8691  0.4946 -0.1656
 3274TIP3   OH234016   2.040   2.498  11.619 -0.7466  0.0559 -0.5070
 3274TIP3    H134017   2.113   2.547  11.657  0.2679  0.3385 -2.6863
 3274TIP3    H234018   2.069   2.407  11.620 -0.6512  0.0825 -0.7148
 3275TIP3   OH234019   3.672   0.278  11.386  0.0268 -0.0420 -0.4501
 3275TIP3    H134020   3.611   0.270  11.313 -0.8782 -0.1962  0.2976
 3275TIP3    H234021   3.656   0.201  11.440 -1.1417  1.2809  1.2243
 3276TIP3   OH234022   1.350   3.591  12.168  0.7379 -0.1542  0.1834
 3276TIP3    H134023   1.351   3.547  12.253  3.1547  0.5057  0.5684
 3276TIP3    H234024   1.313   3.677  12.186  1.2050 -0.0308  0.5852
 3277TIP3   OH234025   3.452   4.621  10.836 -0.4961 -0.6827  0.6587
 3277TIP3    H134026   3.435   4.705  10.795 -0.2440  0.2649  2.4029
 3277TIP3    H234027   3.496   4.569  10.768  0.7655  1.1310  0.0262
 3278TIP3   OH234028   6.164   2.015   9.747 -0.2134  0.1426 -0.6227
 3278TIP3    H134029   6.160   1.972   9.832 -1.1400  0.5289 -0.4710
 3278TIP3    H234030   6.112   1.959   9.689  2.6103 -1.6847 -1.6722
 3279TIP3   OH234031   3.617   6.424   9.124  0.3934 -0.2631  0.0514
 3279TIP3    H134032   3.652   6.358   9.064  0.6604 -0.4830  0.4479
 3279TIP3    H234033   3.695   6.470   9.156  0.2282  0.0637 -0.0090
 3280TIP3   OH234034   6.351   0.071  11.859 -0.0688  0.6499 -0.0307
 3280TIP3    H134035   6.332   0.094  11.950  0.2113  0.3044  0.1172
 3280TIP3    H234036   6.346  -0.024  11.857  1.4453  0.5507 -0.0181
 3281TIP3   OH234037   3.617   2.396   9.101  0.1774 -0.1584 -0.1574
 3281TIP3    H134038   3.606   2.473   9.044 -1.1075 -0.2010  0.0039
 3281TIP3    H234039   3.533   2.388   9.146  0.6871 -1.0041  0.6591
 3282TIP3   OH234040   3.978   3.001   9.555 -0.4102  0.0039 -0.2239
 3282TIP3    H134041   3.931   2.956   9.485 -0.7711  0.8391 -0.5289
 3282TIP3    H234042   4.026   2.932   9.600 -1.1874 -0.7261 -0.4960
 3283TIP3   OH234043   3.522   4.741  11.713  0.6066 -0.1589 -0.1096
 3283TIP3    H134044   3.456   4.780  11.656  0.5778 -1.8538 -1.2989
 3283TIP3    H234045   3.544   4.810  11.776 -3.5339 -0.0127  1.4671
 3284TIP3   OH234046   3.019   5.994  11.105  0.1122  0.5978 -0.2770
 3284TIP3    H134047   2.975   6.040  11.034 -1.1644  1.6476  1.1322
 3284TIP3    H234048   3.066   6.063  11.152  0.8558 -0.0663 -0.0146
 3285TIP3   OH234049   2.130   0.233  11.275 -0.3737 -0.0433  0.3808
 3285TIP3    H134050   2.109   0.183  11.353  0.2664 -1.3189 -0.2368
 3285TIP3    H234051   2.110   0.324  11.298 -0.0850 -0.3857  2.0507
 3286TIP3   OH234052   6.169   2.096  10.857  0.5533 -1.0190  0.0067
 3286TIP3    H134053   6.212   2.177  10.882 -1.4161  0.2445 -0.5374
 3286TIP3    H234054   6.163   2.046  10.938 -0.9012  0.6919  1.0062
 3287TIP3   OH234055   6.238   6.039   8.617 -0.4723  0.2740  0.2938
 3287TIP3    H134056   6.246   6.074   8.528  0.8909 -0.4887  0.0926
 3287TIP3    H234057   6.279   5.953   8.612 -0.1566  0.3309  1.7214
 3288TIP3   OH234058   6.474   2.598  10.693 -0.1955  0.3496  0.5075
 3288TIP3    H134059   6.452   2.580  10.602  0.0910  1.8305  0.1116
 3288TIP3    H234060   6.393   2.634  10.730 -0.8171 -1.7391  1.3299
 3289TIP3   OH234061   3.722   3.607   8.529  0.1076 -0.7359  0.2964
 3289TIP3    H134062   3.734   3.547   8.456 -4.0414 -1.8821  0.2734
 3289TIP3    H234063   3.789   3.582   8.593  1.3771 -2.2726 -1.5350
 3290TIP3   OH234064   1.258   4.995   9.851 -0.3231  0.2562  0.3819
 3290TIP3    H134065   1.262   5.086   9.881  1.6737  0.1971  0.4806
 3290TIP3    H234066   1.321   4.992   9.778 -0.3861 -1.0322  0.3720
 3291TIP3   OH234067   1.668   4.057  11.964  0.4110 -0.1047 -0.2305
 3291TIP3    H134068   1.710   4.055  11.878  2.5418  1.0829  0.7084
 3291TIP3    H234069   1.740   4.046  12.026 -0.8013  1.0494  1.4496
 3292TIP3   OH234070   3.623   1.093  10.242 -0.0816 -0.2738  0.2211
 3292TIP3    H134071   3.628   1.070  10.335 -0.3163  0.1674  0.3493
 3292TIP3    H234072   3.707   1.133  10.222  0.8103 -2.2792 -0.3128
 3293TIP3   OH234073   6.455   6.364   8.841 -0.1563  0.4813 -0.0418
 3293TIP3    H134074   6.405   6.412   8.776 -1.3417  0.6527  0.9618
 3293TIP3    H234075   6.411   6.279   8.847 -0.0310  0.4529  0.4967
 3294TIP3   OH234076   3.453   2.597  10.633 -0.5942  0.2735  0.3148
 3294TIP3    H134077   3.424   2.511  10.664 -0.0036 -0.0077  0.0920
 3294TIP3    H234078   3.487   2.641  10.712  2.6224 -1.1266 -0.1330
 3295TIP3   OH234079   6.566   1.134  11.423  0.2267 -0.0173  0.5363
 3295TIP3    H134080   6.546   1.045  11.452 -0.7949 -0.1484 -0.4801
 3295TIP3    H234081   6.537   1.136  11.331 -1.3822  1.8636  1.0178
 3296TIP3   OH234082   4.472   3.598  11.209 -0.5004 -0.0181  0.5813
 3296TIP3    H134083   4.512   3.680  11.239  0.0990 -0.3791  0.7768
 3296TIP3    H234084   4.462   3.610  11.115  1.4995 -0.4919  0.2531
 3297TIP3   OH234085   3.302   5.858  11.125  0.2813  0.0531 -0.2482
 3297TIP3    H134086   3.360   5.827  11.056  0.2233 -0.2832 -0.1480
 3297TIP3    H234087   3.361   5.899  11.189  0.3316  0.3856 -0.5056
 3298TIP3   OH234088   5.291   1.267   8.966  0.4148  0.0352  0.1380
 3298TIP3    H134089   5.324   1.318   8.892  0.8471 -2.5434 -1.5731
 3298TIP3    H234090   5.368   1.247   9.018  0.5383 -0.4125 -0.2125
 3299TIP3   OH234091   0.967   1.914  11.616 -0.0800 -0.1124 -0.3107
 3299TIP3    H134092   1.001   1.935  11.530 -0.7669  0.8698 -0.3568
 3299TIP3    H234093   0.899   1.980  11.632  1.4253  1.0406  1.8360
 3300TIP3   OH234094   0.705   5.683  11.100  0.2625 -0.4317  0.4159
 3300TIP3    H134095   0.767   5.611  11.085  0.2202 -0.5865  0.9564
 3300TIP3    H234096   0.649   5.683  11.022 -0.5137 -1.7774  0.9246
 3301TIP3   OH234097   3.782   3.999  10.389 -0.2881 -0.1825 -0.3093
 3301TIP3    H134098   3.770   4.023  10.297 -1.8095  0.6497  0.0616
 3301TIP3    H234099   3.693   3.999  10.426  0.3213 -0.0719  1.2634
 3302TIP3   OH234100   3.239   4.505  10.299  0.0625 -0.2586  0.1459
 3302TIP3    H134101   3.201   4.581  10.343  0.3967 -0.6841  1.2153
 3302TIP3    H234102   3.331   4.527  10.287  0.0593 -0.3092  0.0240
 3303TIP3   OH234103   0.656   2.444  11.385 -0.1428  0.0400  0.0578
 3303TIP3    H134104   0.746   2.474  11.401 -0.0823 -0.2451  0.2571
 3303TIP3    H234105   0.665   2.354  11.355 -0.3901 -0.1638  0.5799
 3304TIP3   OH234106   4.039   1.767  10.580 -0.1765 -0.1763 -0.2722
 3304TIP3    H134107   4.051   1.823  10.504 -1.1808  0.5932  0.1147
 3304TIP3    H234108   3.948   1.738  10.575  0.3856 -2.0198 -0.6088
 3305TIP3   OH234109   5.424   5.885  10.426 -0.9462  0.4337 -0.2591
 3305TIP3    H134110   5.379   5.946  10.486 -0.7070  0.5598 -0.2071
 3305TIP3    H234111   5.397   5.798  10.455  0.2330  0.4247  0.9061
 3306TIP3   OH234112   5.540   4.165   9.124 -0.0218 -0.1039 -0.4855
 3306TIP3    H134113   5.473   4.210   9.072 -0.8988 -1.1185 -0.2622
 3306TIP3    H234114   5.492   4.126   9.197  0.3658 -2.9906 -1.6668
 3307TIP3   OH234115   1.589   6.102  10.636 -0.1405  0.1813  0.2157
 3307TIP3    H134116   1.630   6.017  10.650  2.3037  1.4523  1.2453
 3307TIP3    H234117   1.623   6.157  10.706  0.4800  2.7246 -1.9354
 3308TIP3   OH234118   4.934   5.921  11.228  0.9020 -0.2105  0.9936
 3308TIP3    H134119   4.934   5.961  11.315  0.4417  2.4101 -0.1206
 3308TIP3    H234120   4.843   5.899  11.211  0.9664 -0.5678  1.1125
 3309TIP3   OH234121   2.513   4.996  10.040 -0.4061  0.0333  0.0121
 3309TIP3    H134122   2.531   4.923   9.981  1.9501  0.4582  0.0903
 3309TIP3    H234123   2.437   5.039  10.002 -1.5695 -2.1451 -0.2891
 3310TIP3   OH234124   4.608   0.838   9.734 -0.2642 -0.3473  0.2892
 3310TIP3    H134125   4.539   0.879   9.786  0.5305  0.7934  0.4862
 3310TIP3    H234126   4.637   0.907   9.675  2.1761 -0.0930  1.6578
 3311TIP3   OH234127   4.687   2.916   8.138 -0.1914  0.1149 -0.5230
 3311TIP3    H134128   4.714   2.880   8.222  1.2677  0.2114 -0.9327
 3311TIP3    H234129   4.765   2.911   8.083 -1.7804 -2.6698 -2.8194
 3312TIP3   OH234130   3.058   3.618  10.822  0.0954 -0.4511 -0.0668
 3312TIP3    H134131   3.067   3.528  10.853 -0.2912 -0.8405 -1.0700
 3312TIP3    H234132   3.146   3.642  10.793  0.0488 -0.7540 -0.4625
 3313TIP3   OH234133   0.681   3.004  11.935 -0.0732 -0.2517  0.7347
 3313TIP3    H134134   0.661   2.939  11.867 -1.0344 -0.0636  0.8201
 3313TIP3    H234135   0.672   3.088  11.890  0.4641 -0.1550  0.8037
 3314TIP3   OH234136   5.292   2.058  10.363  0.0339 -0.3144 -0.2258
 3314TIP3    H134137   5.222   2.022  10.310 -0.4704 -0.5056  0.5544
 3314TIP3    H234138   5.286   2.011  10.446  0.3647  0.4584  0.2459
 3315TIP3   OH234139   0.777   3.347  10.349 -0.6674  0.6924 -0.6337
 3315TIP3    H134140   0.720   3.424  10.351 -1.1028  0.3597  0.6690
 3315TIP3    H234141   0.831   3.360  10.271 -1.7450  1.5731 -1.2729
 3316TIP3   OH234142   0.055   3.112  10.458  0.2505  0.1061 -0.0889
 3316TIP3    H134143  -0.031   3.127  10.498 -0.2388 -0.7215 -0.7983
 3316TIP3    H234144   0.074   3.194  10.412 -0.9263 -0.2581 -1.2938
 3317TIP3   OH234145   4.283   0.610   9.420  0.2283 -0.4065  0.4191
 3317TIP3    H134146   4.314   0.528   9.383  1.8765  0.8404 -1.1628
 3317TIP3    H234147   4.343   0.628   9.493  1.5550  0.6011 -0.8578
 3318TIP3   OH234148   4.396   4.119   9.556 -0.2939  0.0884  0.5771
 3318TIP3    H134149   4.440   4.182   9.499  1.5680 -1.8628 -0.3228
 3318TIP3    H234150   4.361   4.171   9.628 -0.2437  2.2957 -0.9025
 3319TIP3   OH234151   2.113   6.561  12.084  0.1720 -0.1382 -0.3690
 3319TIP3    H134152   2.060   6.488  12.052 -0.9884  0.3271  0.4150
 3319TIP3    H234153   2.094   6.564  12.178 -0.8211  1.9569 -0.5688
 3320TIP3   OH234154   2.759   2.655  11.922  0.6043  0.3108 -0.0188
 3320TIP3    H134155   2.748   2.735  11.974  0.2739 -0.3989  1.0279
 3320TIP3    H234156   2.703   2.668  11.846 -0.9146  0.3248  1.0563
 3321TIP3   OH234157   3.817   4.560  11.302  0.0258 -0.2217  0.4607
 3321TIP3    H134158   3.770   4.570  11.219  0.4622 -0.7744  0.1380
 3321TIP3    H234159   3.907   4.583  11.280  0.2612 -0.9498  0.6323
 3322TIP3   OH234160   4.735   5.230   9.642 -0.2914 -0.4008 -0.3317
 3322TIP3    H134161   4.767   5.171   9.574  1.9856  0.5523 -0.1996
 3322TIP3    H234162   4.663   5.278   9.601  0.3315 -0.6151 -1.7198
 3323TIP3   OH234163   4.984   2.257   9.469  0.7613  0.2248  0.3689
 3323TIP3    H134164   4.959   2.283   9.558 -0.0016  2.5613 -0.4327
 3323TIP3    H234165   5.080   2.250   9.472  0.9128  1.9803  1.0393
 3324TIP3   OH234166   2.425   1.068  10.359  0.0973 -0.0157  0.1324
 3324TIP3    H134167   2.464   1.139  10.309  0.4661  0.1079  0.5948
 3324TIP3    H234168   2.496   1.006  10.374 -0.4541 -1.0350 -1.2081
 3325TIP3   OH234169   0.748   2.522  12.622  0.5132 -0.5376  0.7474
 3325TIP3    H134170   0.741   2.602  12.674  1.6943  0.7901 -0.9832
 3325TIP3    H234171   0.833   2.530  12.579 -0.9021 -0.8601 -2.3613
 3326TIP3   OH234172   6.355   2.980  12.061  0.1218 -0.2616 -0.3822
 3326TIP3    H134173   6.381   3.055  12.114  0.2579 -1.7632  1.8137
 3326TIP3    H234174   6.436   2.933  12.043 -0.0042 -0.1035 -1.4253
 3327TIP3   OH234175   5.693   1.896   9.466 -0.0150 -0.0986 -0.6694
 3327TIP3    H134176   5.676   1.937   9.382 -0.8174 -1.3392 -1.1428
 3327TIP3    H234177   5.637   1.818   9.467 -0.5490  0.2553  1.3054
 3328TIP3   OH234178   1.424   2.800   9.922  0.4200  0.0231 -0.3761
 3328TIP3    H134179   1.374   2.855   9.862  0.8220  0.2492 -0.5090
 3328TIP3    H234180   1.398   2.710   9.901  0.6630  0.0935 -0.9837
 3329TIP3   OH234181   0.662   1.998  11.499  0.5448  0.2464  0.3900
 3329TIP3    H134182   0.676   2.014  11.593 -0.2707  0.6448  0.4526
 3329TIP3    H234183   0.571   2.022  11.484  0.6150  0.0064 -0.4755
 3330TIP3   OH234184   1.243   2.489  12.062 -0.0995  0.5330  0.5603
 3330TIP3    H134185   1.216   2.581  12.058 -1.3254  0.2739  2.0649
 3330TIP3    H234186   1.316   2.488  12.123  1.2068  0.7350 -0.9197
 3331TIP3   OH234187   5.560   1.217  11.627 -0.6266  0.4530  0.5233
 3331TIP3    H134188   5.467   1.193  11.623 -0.4268 -0.2960  0.4150
 3331TIP3    H234189   5.559   1.310  11.650 -1.4623  0.9822 -1.4365
 3332TIP3   OH234190   2.194   2.823  10.617  0.3641 -0.3042 -0.2360
 3332TIP3    H134191   2.207   2.755  10.683 -0.9092  0.4638  0.8589
 3332TIP3    H234192   2.247   2.897  10.646 -0.2578  0.0636 -0.0256
 3333TIP3   OH234193   6.357   4.950  10.980 -0.1980 -0.2566  0.4000
 3333TIP3    H134194   6.301   4.933  10.905 -1.5271 -0.8652  1.4942
 3333TIP3    H234195   6.300   4.941  11.056  0.6596  2.1078  1.4542
 3334TIP3   OH234196   4.408   5.001  12.166  0.2457  0.0406  0.2198
 3334TIP3    H134197   4.380   4.928  12.111  1.5022  0.8155 -1.5472
 3334TIP3    H234198   4.477   4.963  12.221 -0.3344 -0.5116  0.5790
 3335TIP3   OH234199   2.852   2.218  11.095  0.2312 -0.2050 -0.1106
 3335TIP3    H134200   2.889   2.224  11.183 -0.7161  0.0393  0.2882
 3335TIP3    H234201   2.829   2.126  11.084 -0.4300 -0.0890  0.2406
 3336TIP3   OH234202   6.181   5.091   9.404  0.1729  0.2426 -0.2900
 3336TIP3    H134203   6.185   5.137   9.321 -0.9232  0.4527 -0.2443
 3336TIP3    H234204   6.235   5.013   9.391  0.5443  0.6082 -0.9723
 3337TIP3   OH234205   4.721   1.628  11.262  0.0167 -0.1848 -0.2217
 3337TIP3    H134206   4.733   1.685  11.187 -0.0419 -1.3473 -1.1435
 3337TIP3    H234207   4.632   1.594  11.253  0.3932 -1.2031 -0.2699
 3338TIP3   OH234208   1.386   3.057  11.538 -0.7910  0.2752 -0.1411
 3338TIP3    H134209   1.416   3.027  11.452 -0.2800 -0.2213  0.1963
 3338TIP3    H234210   1.419   3.146  11.546 -0.4670  0.1714 -0.2925
 3339TIP3   OH234211   5.909   2.385  11.259  0.5273 -0.0764 -0.1186
 3339TIP3    H134212   5.817   2.358  11.261  0.5298 -0.0620  0.9483
 3339TIP3    H234213   5.908   2.474  11.293  0.9969 -0.2972  0.4860
 3340TIP3   OH234214   1.636   3.524   9.956 -0.3276  0.2060  0.1338
 3340TIP3    H134215   1.581   3.452   9.987  0.1057 -0.9852 -1.7519
 3340TIP3    H234216   1.589   3.603   9.984 -1.3514 -0.7752  1.3366
 3341TIP3   OH234217   6.469   3.763  11.032  0.1442 -0.3580  0.0012
 3341TIP3    H134218   6.415   3.725  11.101  0.4580  1.1740  1.1521
 3341TIP3    H234219   6.414   3.829  10.991 -0.0932 -1.3746 -1.3584
 3342TIP3   OH234220   2.988   4.535   8.901  0.1098  0.1266 -0.0091
 3342TIP3    H134221   3.004   4.611   8.845 -0.1487 -0.1220 -0.4291
 3342TIP3    H234222   2.902   4.503   8.873  0.1935 -0.2881  0.2043
 3343TIP3   OH234223   3.049   3.960  12.046  0.2073 -0.7423 -0.3060
 3343TIP3    H134224   2.976   4.005  12.003  0.4497 -0.7961 -0.7777
 3343TIP3    H234225   3.083   4.025  12.108 -0.4512 -0.8349  0.1629
 3344TIP3   OH234226   3.680   6.161   9.894  0.0873 -0.2804 -0.4896
 3344TIP3    H134227   3.647   6.243   9.858 -0.0463  0.6280  1.5905
 3344TIP3    H234228   3.773   6.161   9.872  0.3168  0.9674  0.3659
 3345TIP3   OH234229   1.613   1.321  10.405 -0.4921 -0.3089 -0.5971
 3345TIP3    H134230   1.654   1.268  10.336  1.2139 -0.2643  0.3182
 3345TIP3    H234231   1.627   1.411  10.376 -0.3043 -0.3030 -0.4922
 3346TIP3   OH234232   4.398   3.360   8.586 -0.0634  0.5837  0.0950
 3346TIP3    H134233   4.311   3.395   8.606  0.0908  1.4613 -0.6977
 3346TIP3    H234234   4.393   3.336   8.494  0.5528  0.6977  0.0317
 3347TIP3   OH234235   1.332   3.359   9.515  0.3254  0.1036  0.5694
 3347TIP3    H134236   1.308   3.396   9.430  1.8423 -0.7298 -0.2551
 3347TIP3    H234237   1.403   3.415   9.547  0.1680  0.0579  1.0146
 3348TIP3   OH234238   2.924   1.428   9.805  0.3815  0.1044 -0.4415
 3348TIP3    H134239   2.909   1.423   9.899 -0.0105  1.4145 -0.4166
 3348TIP3    H234240   3.002   1.374   9.790  0.3262 -0.2793  0.5940
 3349TIP3   OH234241   4.078   6.658  10.958  0.2406  0.4942 -0.2663
 3349TIP3    H134242   4.078   6.754  10.958 -0.8872  0.5154 -1.1320
 3349TIP3    H234243   3.991   6.634  10.990  0.2773 -0.2196 -0.6810
 3350TIP3   OH234244   5.603   5.194  12.194  0.4346 -0.0377  0.3384
 3350TIP3    H134245   5.664   5.251  12.241  0.3249 -0.8531  1.5190
 3350TIP3    H234246   5.524   5.247  12.184  1.0454  0.7474 -0.4843
 3351TIP3   OH234247   1.885   5.141  12.216  0.6234  0.0195 -0.2443
 3351TIP3    H134248   1.933   5.176  12.141  1.7257  0.4000  0.6291
 3351TIP3    H234249   1.837   5.216  12.251  1.1699  0.1433  0.2403
 3352TIP3   OH234250   6.230   2.404  10.357 -0.3441 -0.7843 -0.5024
 3352TIP3    H134251   6.247   2.433  10.268 -0.2918 -0.5180 -0.4066
 3352TIP3    H234252   6.143   2.364  10.353  0.3312 -2.3113 -1.0338
 3353TIP3   OH234253   1.364   5.418   9.978 -0.4912 -0.1120 -0.2414
 3353TIP3    H134254   1.295   5.373   9.930 -2.3435  1.5953  0.6389
 3353TIP3    H234255   1.423   5.450   9.911 -2.1117  0.7811 -1.3118
 3354TIP3   OH234256   5.802   3.499  10.518  0.5661  0.0834 -0.0131
 3354TIP3    H134257   5.709   3.507  10.538  0.7583  0.6408  0.7392
 3354TIP3    H234258   5.809   3.513  10.424  0.0338  1.4607  0.1306
 3355TIP3   OH234259   4.233   3.835   9.652 -0.4102  0.1201 -0.4640
 3355TIP3    H134260   4.217   3.892   9.727  0.1096  0.4843 -0.6266
 3355TIP3    H234261   4.158   3.775   9.651  0.1171 -0.6236  1.0190
 3356TIP3   OH234262   4.103   4.497   9.413 -0.1116  0.3153 -0.2409
 3356TIP3    H134263   4.024   4.455   9.380 -1.0048  2.3109 -0.8326
 3356TIP3    H234264   4.152   4.427   9.456 -1.1467 -1.4187 -1.7465
 3357TIP3   OH234265   2.608   1.279  11.048  0.4556 -0.6599 -0.4124
 3357TIP3    H134266   2.569   1.244  10.968  0.8294 -0.2766 -0.7689
 3357TIP3    H234267   2.571   1.225  11.118  0.0408 -0.9296 -0.8295
 3358TIP3   OH234268   2.729   6.010   9.929 -0.3385  0.2869  0.4067
 3358TIP3    H134269   2.692   6.046   9.849 -2.5506 -0.9095  0.8004
 3358TIP3    H234270   2.756   5.921   9.905  0.5401  0.4915  0.6053
 3359TIP3   OH234271   2.074   4.321  12.033  0.6003  0.2389  0.1929
 3359TIP3    H134272   2.100   4.302  11.943 -0.1001 -4.2676  0.7105
 3359TIP3    H234273   2.134   4.269  12.087 -1.3104 -0.1144  2.1006
 3360TIP3   OH234274   1.943   5.899  12.131 -0.0861  0.4462 -0.6914
 3360TIP3    H134275   1.935   5.989  12.162 -2.7184 -0.0488  0.2918
 3360TIP3    H234276   1.862   5.883  12.082 -1.0514 -2.1975  1.5264
 3361TIP3   OH234277   6.469   5.396   9.142  0.1988  0.3556 -0.2138
 3361TIP3    H134278   6.488   5.478   9.096 -2.4226  1.0421 -0.2298
 3361TIP3    H234279   6.453   5.423   9.233 -0.7221 -0.0847 -0.2292
 3362TIP3   OH234280   3.779   2.090  10.200 -0.4754  0.7024  0.0096
 3362TIP3    H134281   3.779   2.150  10.125  1.8496  0.8043  0.0197
 3362TIP3    H234282   3.749   2.144  10.273  2.1965  2.1529  0.1541
 3363TIP3   OH234283   4.111   3.079  10.189  0.0705 -0.5995 -0.2376
 3363TIP3    H134284   4.155   3.077  10.103  2.2731 -0.1424  0.7936
 3363TIP3    H234285   4.145   3.002  10.234  2.1338  1.2297  1.5899
 3364TIP3   OH234286   4.026   4.392  10.996 -0.6242 -0.0144  0.0849
 3364TIP3    H134287   4.060   4.306  11.020 -1.7416 -0.0849  1.5832
 3364TIP3    H234288   4.086   4.454  11.036 -1.2163 -0.1289  1.1867
 3365TIP3   OH234289   0.727   2.759   9.055 -0.0079 -0.0969 -0.1230
 3365TIP3    H134290   0.822   2.767   9.064 -0.0532  0.9341 -0.5280
 3365TIP3    H234291   0.713   2.744   8.962 -0.3846  2.3117 -0.5068
 3366TIP3   OH234292   2.861   5.429  11.824  0.4329 -0.2749  0.0697
 3366TIP3    H134293   2.943   5.477  11.810  1.5374 -0.6809  3.9205
 3366TIP3    H234294   2.793   5.496  11.823  0.6937  0.1060 -2.9044
 3367TIP3   OH234295   6.054   1.502   9.570 -0.5977  0.0936  0.2420
 3367TIP3    H134296   6.084   1.590   9.547 -0.2743 -0.0881 -0.0471
 3367TIP3    H234297   5.962   1.513   9.594 -0.0931  0.8218  2.0013
 3368TIP3   OH234298   2.378   0.195  11.852  0.6234 -0.0375 -0.3473
 3368TIP3    H134299   2.378   0.239  11.767 -0.4284  2.6089  0.8903
 3368TIP3    H234300   2.287   0.170  11.867  1.0529 -1.9100 -0.6086
 3369TIP3   OH234301   2.073   1.726  12.110 -0.0356 -0.2981 -0.0196
 3369TIP3    H134302   2.128   1.709  12.187  0.4192  0.6436 -0.1136
 3369TIP3    H234303   2.000   1.666  12.119  0.5809 -0.9855  0.5640
 3370TIP3   OH234304   2.399   5.970  11.440 -0.0802  0.0192 -0.0476
 3370TIP3    H134305   2.475   6.026  11.456  0.0611 -0.4308  0.8923
 3370TIP3    H234306   2.389   5.970  11.345  2.1613 -1.3220 -0.3480
 3371TIP3   OH234307   4.937   1.188  11.775 -0.0287  0.2722  0.2190
 3371TIP3    H134308   5.013   1.233  11.811  0.2062 -0.1199  0.2166
 3371TIP3    H234309   4.897   1.252  11.716 -0.2350  0.8050  0.9326
 3372TIP3   OH234310   0.724   2.830  10.256  0.1041  0.0080 -0.3102
 3372TIP3    H134311   0.733   2.887  10.180  1.3301  0.1411 -0.0895
 3372TIP3    H234312   0.724   2.890  10.331 -0.9247 -0.1334 -0.1817
 3373TIP3   OH234313   0.705   2.106   9.515  0.2833 -0.5389 -0.2813
 3373TIP3    H134314   0.728   2.159   9.591 -0.7253  0.6026 -0.7372
 3373TIP3    H234315   0.712   2.167   9.441 -0.4563 -1.1698 -0.8852
 3374TIP3   OH234316   6.140   1.697  10.507 -0.1570  0.1527  0.0763
 3374TIP3    H134317   6.125   1.724  10.597  0.9207 -0.8005  0.5713
 3374TIP3    H234318   6.052   1.688  10.469 -0.5809  2.3115  0.4666
 3375TIP3   OH234319   3.850   0.131  11.960 -0.1651 -0.2123 -0.2324
 3375TIP3    H134320   3.922   0.068  11.964 -0.4535 -0.5056  0.6913
 3375TIP3    H234321   3.894   0.217  11.962  0.3094 -0.3120 -2.9979
 3376TIP3   OH234322   4.515   5.685  11.598  0.4653 -0.0825  0.1838
 3376TIP3    H134323   4.450   5.722  11.539 -0.5340 -2.1850 -0.1258
 3376TIP3    H234324   4.598   5.692  11.551  0.3793  1.8720  0.2379
 3377TIP3   OH234325   5.815   2.623   9.997  0.2060  0.4831 -0.3116
 3377TIP3    H134326   5.792   2.704  10.043  1.0105  0.7694 -0.4112
 3377TIP3    H234327   5.885   2.585  10.049  0.0406 -0.0010 -0.4360
 3378TIP3   OH234328   0.182   6.224  10.971 -0.1401 -0.3244 -0.3518
 3378TIP3    H134329   0.094   6.254  10.949 -0.7684 -1.5724  0.3284
 3378TIP3    H234330   0.180   6.130  10.954  1.1409 -0.3341 -0.5400
 3379TIP3   OH234331   5.303   5.643  10.449  0.5713 -0.2434  0.1611
 3379TIP3    H134332   5.331   5.551  10.444 -0.1327 -0.5058  0.9283
 3379TIP3    H234333   5.240   5.653  10.378 -0.3771 -0.7295  0.9187
 3380TIP3   OH234334   1.255   0.111   9.449  0.7596 -0.0918  0.0378
 3380TIP3    H134335   1.271   0.167   9.374  1.3617  1.1405  1.0490
 3380TIP3    H234336   1.285   0.024   9.421  2.0189  0.5747 -0.7712
 3381TIP3   OH234337   2.037   0.005  11.462  0.8237 -0.3001  0.1255
 3381TIP3    H134338   2.010  -0.087  11.461  0.6129 -0.2507  0.7494
 3381TIP3    H234339   2.132   0.002  11.452  0.6739 -0.5025 -1.4585
 3382TIP3   OH234340   6.198   3.174   8.696 -0.3356 -0.3814  0.7070
 3382TIP3    H134341   6.121   3.185   8.641 -0.1331  3.2962  0.9235
 3382TIP3    H234342   6.270   3.162   8.634 -0.4789  1.0240  0.2376
 3383TIP3   OH234343   5.135   0.786  10.059  0.0825 -0.1510 -0.3844
 3383TIP3    H134344   5.051   0.742  10.048 -0.9941  1.4546  0.7296
 3383TIP3    H234345   5.144   0.796  10.154  0.8624  0.8767 -0.5413
 3384TIP3   OH234346   2.978   4.775  10.180  0.5803  0.0228  0.8498
 3384TIP3    H134347   3.073   4.769  10.191  0.5826 -2.2003  0.0833
 3384TIP3    H234348   2.947   4.685  10.186 -1.3999  0.6077  0.2630
 3385TIP3   OH234349   0.970   3.274   9.825  0.5480  0.1409  0.2776
 3385TIP3    H134350   0.908   3.332   9.779  1.5564  0.6931 -0.4092
 3385TIP3    H234351   1.056   3.298   9.791  1.1826 -0.4613  1.3856
 3386TIP3   OH234352   0.389   4.633  10.556  0.1072 -0.5304  0.2558
 3386TIP3    H134353   0.482   4.640  10.535  0.1286  1.1780  0.7418
 3386TIP3    H234354   0.384   4.657  10.649 -0.9163  0.5477 -0.0518
 3387TIP3   OH234355   0.795   3.285  10.976  0.3492  0.0175 -0.2478
 3387TIP3    H134356   0.714   3.326  11.005 -0.6185 -1.7026 -0.3786
 3387TIP3    H234357   0.776   3.253  10.888  0.5258 -1.9624  0.3781
 3388TIP3   OH234358   1.705   0.236  11.078  0.0143  0.7167  0.0774
 3388TIP3    H134359   1.797   0.259  11.071  0.1380  0.4540  0.7516
 3388TIP3    H234360   1.703   0.141  11.073 -0.1518  0.6815  0.7077
 3389TIP3   OH234361   2.096   0.277  12.587 -0.5097  0.8788 -0.4077
 3389TIP3    H134362   2.187   0.253  12.572 -0.8530 -0.5263 -0.3847
 3389TIP3    H234363   2.099   0.372  12.603  0.9475  0.8452 -0.2970
 3390TIP3   OH234364   1.807   3.346  11.610 -0.4883 -0.0884  0.2298
 3390TIP3    H134365   1.755   3.288  11.665  0.1291 -0.1545  0.7537
 3390TIP3    H234366   1.897   3.314  11.620  0.0542  1.6577  1.4794
 3391TIP3   OH234367   4.404   3.232   8.851 -0.1531  0.0555 -0.2437
 3391TIP3    H134368   4.406   3.287   8.772  2.8831  0.7109  0.1607
 3391TIP3    H234369   4.383   3.145   8.819  0.1034  0.4852 -1.6437
 3392TIP3   OH234370   1.450   2.774  11.787 -0.1403 -0.0997 -0.5876
 3392TIP3    H134371   1.422   2.863  11.807 -1.3072 -0.4989 -0.3613
 3392TIP3    H234372   1.519   2.755  11.851  0.4447  0.7870 -0.9344
 3393TIP3   OH234373   1.310   3.783  10.229  0.5109  0.3648  0.1618
 3393TIP3    H134374   1.254   3.806  10.155  1.3371  0.6919 -0.3819
 3393TIP3    H234375   1.311   3.862  10.283  0.6102  0.4359  0.0588
 3394TIP3   OH234376   2.465   5.728  10.800  0.2886 -0.7740  0.1790
 3394TIP3    H134377   2.372   5.743  10.782  0.7215  1.6914 -0.3467
 3394TIP3    H234378   2.468   5.640  10.838 -2.3396 -0.6257  0.9298
 3395TIP3   OH234379   6.067   3.148  10.731 -0.3435 -0.2836 -0.1938
 3395TIP3    H134380   6.125   3.222  10.754  0.3347 -0.3721 -1.5279
 3395TIP3    H234381   6.025   3.124  10.814  1.1915  0.0829  0.7284
 3396TIP3   OH234382   1.067   0.129   9.990  0.0427 -0.1338 -0.3622
 3396TIP3    H134383   1.059   0.141  10.084 -1.8264 -0.8367 -0.3902
 3396TIP3    H234384   1.158   0.152   9.970  0.3354  0.4915  1.5216
 3397TIP3   OH234385   6.221   4.318  10.052  0.3848 -0.2318 -0.0745
 3397TIP3    H134386   6.224   4.335   9.958 -1.6373  0.2632 -0.1086
 3397TIP3    H234387   6.305   4.349  10.086  0.2745  1.6810 -1.3977
 3398TIP3   OH234388   3.620   2.937  11.253  0.0418  0.0254 -0.3381
 3398TIP3    H134389   3.593   2.864  11.310 -0.5479 -1.1909 -2.1068
 3398TIP3    H234390   3.584   3.015  11.296 -0.3071 -0.8254  0.9861
 3399TIP3   OH234391   4.065   6.100  11.611  0.1936  0.6735  0.3185
 3399TIP3    H134392   4.006   6.025  11.623  0.1164  0.6610 -0.1356
 3399TIP3    H234393   4.152   6.060  11.605  0.0233  0.4735 -1.3723
 3400TIP3   OH234394   0.127   0.279   8.980  0.7023  0.2800 -0.1584
 3400TIP3    H134395   0.039   0.273   8.942 -0.1972  2.2802  1.4241
 3400TIP3    H234396   0.158   0.188   8.981 -2.0958 -0.7992  0.8599
 3401TIP3   OH234397   3.204   4.926  11.000  0.2149 -0.0308  0.9180
 3401TIP3    H134398   3.127   4.975  11.028 -0.2039 -0.4347  0.4926
 3401TIP3    H234399   3.245   4.980  10.933  0.2801  0.1647  1.1138
 3402TIP3   OH234400   3.075   1.544  12.004  0.2420  0.0676 -0.7870
 3402TIP3    H134401   3.013   1.617  11.998  0.0107  0.1434  1.6529
 3402TIP3    H234402   3.024   1.467  11.983  0.0244  0.4055 -1.5358
 3403TIP3   OH234403   4.493   6.025   9.689  0.4613 -0.8187  0.7827
 3403TIP3    H134404   4.549   5.971   9.633  0.1306 -1.5731  1.1592
 3403TIP3    H234405   4.404   6.003   9.661  0.2541 -1.8492  2.1463
 3404TIP3   OH234406   1.690   4.458  10.022  0.5904 -0.2825 -0.0591
 3404TIP3    H134407   1.752   4.523  10.054  1.3204 -1.0135  0.0356
 3404TIP3    H234408   1.737   4.375  10.027 -0.4298 -0.8633  0.0946
 3405TIP3   OH234409   1.087   2.849  11.595 -0.6292  0.0330 -0.4525
 3405TIP3    H134410   1.101   2.755  11.606  0.0944  0.2594  0.7511
 3405TIP3    H234411   1.068   2.859  11.501 -2.3841 -1.4813 -0.3266
 3406TIP3   OH234412   0.840   2.631  11.512  0.1146 -0.1901 -0.0060
 3406TIP3    H134413   0.813   2.696  11.577  0.4906 -1.0345  1.0128
 3406TIP3    H234414   0.934   2.619  11.527  0.3653  0.1237 -1.1964
 3407TIP3   OH234415   0.512   4.868   9.849  0.3568  0.4756 -0.0530
 3407TIP3    H134416   0.470   4.838   9.769  0.9719 -0.0059 -0.2093
 3407TIP3    H234417   0.584   4.924   9.819  0.6868  0.1681  0.1520
 3408TIP3   OH234418   4.070   0.040  10.199 -0.1266 -0.0397  0.1762
 3408TIP3    H134419   4.116   0.049  10.283  1.2432 -0.8396 -0.4573
 3408TIP3    H234420   4.102  -0.042  10.163 -1.2724 -0.0816 -0.8046
 3409TIP3   OH234421   0.238   6.448  11.269  0.1849  0.0411 -0.1834
 3409TIP3    H134422   0.302   6.503  11.315  1.5438 -1.1953 -0.5396
 3409TIP3    H234423   0.290   6.379  11.229 -1.5177 -1.7102  0.5039
 3410TIP3   OH234424   0.653   2.371  10.366 -0.1587 -0.0031 -0.7184
 3410TIP3    H134425   0.708   2.315  10.422  1.6626  0.4086 -2.0079
 3410TIP3    H234426   0.589   2.408  10.427  1.4140  0.0346  1.0246
 3411TIP3   OH234427   1.125   1.949  11.363 -0.7234 -0.1324 -0.5993
 3411TIP3    H134428   1.046   1.982  11.319 -0.1443  0.2054 -1.3923
 3411TIP3    H234429   1.193   2.013  11.343 -0.5595  0.3459  1.2710
 3412TIP3   OH234430   3.283   1.173  10.012  0.4054  0.3185 -0.5480
 3412TIP3    H134431   3.280   1.246  10.074 -1.1884 -0.0423 -0.1596
 3412TIP3    H234432   3.292   1.095  10.066  0.6154  0.1188 -0.8684
 3413TIP3   OH234433   4.338   6.666  11.971 -0.2490 -0.4790 -0.4704
 3413TIP3    H134434   4.326   6.760  11.954 -0.1687 -0.4660 -0.4523
 3413TIP3    H234435   4.400   6.637  11.905  0.4437 -0.3284  0.0986
 3414TIP3   OH234436   0.075   1.663   9.379  0.6409  0.5473  0.4278
 3414TIP3    H134437   0.062   1.603   9.306  0.3980  0.1808  0.7625
 3414TIP3    H234438   0.104   1.607   9.451  1.1421  0.9416  0.5394
 3415TIP3   OH234439   2.835   3.792  10.837 -0.4645 -0.0376 -0.2638
 3415TIP3    H134440   2.879   3.877  10.847  0.3474 -0.3047 -1.3391
 3415TIP3    H234441   2.906   3.731  10.813 -0.7344 -1.4135  2.1641
 3416TIP3   OH234442   2.119   6.149   9.543 -0.6708 -0.0970 -0.7146
 3416TIP3    H134443   2.071   6.098   9.478 -2.6163 -0.0871  0.6509
 3416TIP3    H234444   2.092   6.239   9.526 -0.3347  0.0285 -0.5781
 3417TIP3   OH234445   0.034   5.426   8.936 -0.3887  0.0130 -0.0219
 3417TIP3    H134446   0.080   5.465   8.862 -0.0298  1.8770  1.1287
 3417TIP3    H234447   0.090   5.442   9.011 -0.9955 -1.3784  0.7656
 3418TIP3   OH234448   0.031   4.429  10.902 -0.0492 -0.1661 -0.2520
 3418TIP3    H134449   0.018   4.421  10.808  0.7366 -0.0429 -0.3785
 3418TIP3    H234450   0.008   4.520  10.921 -0.5167 -0.2785 -0.2680
 3419TIP3   OH234451   0.045   3.233  12.292 -0.1080  0.0166  0.2117
 3419TIP3    H134452   0.068   3.206  12.381  1.7105  0.4822 -0.0676
 3419TIP3    H234453   0.089   3.170  12.235  0.2430  0.7718 -0.3732
 3420TIP3   OH234454   4.942   4.833   9.742  0.2615 -0.4442 -0.1393
 3420TIP3    H134455   4.901   4.804   9.824 -1.9085 -0.8599 -1.2994
 3420TIP3    H234456   4.957   4.926   9.755  2.1104 -0.9134  1.5555
 3421TIP3   OH234457   5.373   3.649   9.813 -0.1879  0.4313 -0.7564
 3421TIP3    H134458   5.458   3.655   9.857 -0.4834  0.9736 -0.2239
 3421TIP3    H234459   5.358   3.555   9.801 -0.0166  0.2768  0.1649
 3422TIP3   OH234460   1.973   4.699  11.527 -0.1763  0.5480 -0.5854
 3422TIP3    H134461   1.905   4.761  11.557 -0.0635  0.8425 -0.9306
 3422TIP3    H234462   2.055   4.744  11.546 -0.0774  0.2228 -0.2400
 3423TIP3   OH234463   2.583   4.727   8.826 -0.2371  0.2073  0.0323
 3423TIP3    H134464   2.496   4.690   8.830 -0.8960  1.7171  3.9111
 3423TIP3    H234465   2.642   4.655   8.850 -0.5018 -0.4309 -1.1503
 3424TIP3   OH234466   0.611   4.815  10.260 -0.5831  0.0183  0.5862
 3424TIP3    H134467   0.590   4.894  10.310 -1.2599  0.7464 -0.7850
 3424TIP3    H234468   0.537   4.756  10.275 -0.6434  0.1179  0.6820
 3425TIP3   OH234469   3.367   6.286   9.638 -0.3766  0.3456 -0.0224
 3425TIP3    H134470   3.413   6.220   9.587  0.3729  2.5511 -2.4105
 3425TIP3    H234471   3.436   6.338   9.679 -0.9552 -0.5379  2.2348
 3426TIP3   OH234472   1.707   5.857  11.991  0.5459  0.2502 -0.3628
 3426TIP3    H134473   1.626   5.907  12.003  0.1897 -0.4752  0.3725
 3426TIP3    H234474   1.680   5.766  11.999  1.4731  0.0043  0.1066
 3427TIP3   OH234475   0.019   5.819   8.935  0.3631  0.6098 -0.0278
 3427TIP3    H134476   0.061   5.878   8.873  2.4254 -1.8102 -1.1354
 3427TIP3    H234477  -0.072   5.849   8.939  1.1721  3.5113 -0.8152
 3428TIP3   OH234478   4.108   2.037  11.251  0.1127  0.6321 -0.1359
 3428TIP3    H134479   4.133   1.945  11.256  1.3977  0.9764  0.1389
 3428TIP3    H234480   4.023   2.042  11.295  0.1518 -0.3644  0.0699
 3429TIP3   OH234481   5.448   1.390  10.489  0.1023 -0.2807  0.1036
 3429TIP3    H134482   5.393   1.312  10.497  1.1732 -0.9083  2.0842
 3429TIP3    H234483   5.422   1.445  10.563  1.2453 -0.0120  0.3191
 3430TIP3   OH234484   1.099   3.434  12.089  0.3403 -0.5047 -0.1516
 3430TIP3    H134485   1.076   3.468  12.003  0.4235  0.8488  0.3413
 3430TIP3    H234486   1.180   3.478  12.111 -0.5040  0.4076  1.2917
 3431TIP3   OH234487   1.926   2.992  11.667  0.5891 -0.9339  0.0396
 3431TIP3    H134488   1.898   2.901  11.657  1.0262 -1.3603  2.1119
 3431TIP3    H234489   1.852   3.035  11.709  0.5542 -0.4396 -0.5236
 3432TIP3   OH234490   6.482   1.462  11.037 -0.1786  0.2665  0.8644
 3432TIP3    H134491   6.534   1.482  10.959 -1.5340  0.2639 -0.0857
 3432TIP3    H234492   6.546   1.449  11.106  1.0337  1.6279  0.0703
 3433TIP3   OH234493   0.882   6.011  10.013  0.3205 -0.1326  0.2054
 3433TIP3    H134494   0.924   5.929  10.040 -0.5904 -0.8303 -0.4614
 3433TIP3    H234495   0.862   5.999   9.920 -1.6710  0.0411  0.5764
 3434TIP3   OH234496   1.669   6.312  10.481  0.0154 -0.5990  0.4031
 3434TIP3    H134497   1.748   6.274  10.443 -0.9418 -1.6692 -0.5895
 3434TIP3    H234498   1.635   6.244  10.539 -0.5445 -0.4333  0.2800
 3435TIP3   OH234499   3.781   1.886  11.235  0.3254  0.5558 -0.2164
 3435TIP3    H134500   3.766   1.937  11.315  0.3814 -0.2355  0.3110
 3435TIP3    H234501   3.874   1.896  11.216  0.1571  1.3787 -0.6295
 3436TIP3   OH234502   3.047   1.796   9.428  0.2553 -0.3508  0.2092
 3436TIP3    H134503   3.115   1.812   9.493 -0.4103 -0.0995  0.8507
 3436TIP3    H234504   3.025   1.704   9.439  0.3314 -0.3750  0.1586
 3437TIP3   OH234505   6.364   6.028   9.761 -0.8799  0.2393 -0.5139
 3437TIP3    H134506   6.408   5.953   9.722 -1.0989 -0.1251 -0.0597
 3437TIP3    H234507   6.435   6.079   9.801 -1.0984 -2.1244  3.3250
 3438TIP3   OH234508   6.348   5.808  10.867 -0.3546  0.0956 -0.3578
 3438TIP3    H134509   6.442   5.790  10.860 -0.6905 -2.1313 -0.1528
 3438TIP3    H234510   6.322   5.833  10.779  0.7379  2.8289 -0.0018
 3439TIP3   OH234511   6.540   6.002  10.299  0.0628 -0.0652 -0.6415
 3439TIP3    H134512   6.462   6.005  10.243 -0.0515 -0.1880 -0.4869
 3439TIP3    H234513   6.610   5.972  10.241 -0.0448 -0.1420 -0.7320
 3440TIP3   OH234514   3.034   4.718  10.925 -0.3306 -0.2844  0.4464
 3440TIP3    H134515   2.994   4.713  10.838 -2.2306  0.5013  1.2258
 3440TIP3    H234516   3.084   4.799  10.924  2.9868 -2.1521 -1.1546
 3441TIP3   OH234517   6.598   0.155  11.184 -0.2514  0.1627 -0.0471
 3441TIP3    H134518   6.631   0.191  11.101 -0.0368  0.1568  0.0358
 3441TIP3    H234519   6.602   0.060  11.173 -0.9021  0.1611 -0.2987
 3442TIP3   OH234520   6.330   1.231  10.612 -0.0142 -0.0955 -0.2427
 3442TIP3    H134521   6.321   1.215  10.706  0.6970 -1.4246 -0.3679
 3442TIP3    H234522   6.317   1.325  10.602 -1.7961 -0.1628  0.9637
 3443TIP3   OH234523   6.500   3.734   9.603  0.3049  0.0318  0.2336
 3443TIP3    H134524   6.573   3.691   9.647 -0.7270 -0.0862  1.8961
 3443TIP3    H234525   6.518   3.723   9.509  1.6129 -1.3283  0.6214
 3444TIP3   OH234526   5.445   1.441  11.819 -0.0055 -0.0758  0.3498
 3444TIP3    H134527   5.397   1.517  11.851 -0.3246  0.3439 -1.0919
 3444TIP3    H234528   5.445   1.380  11.894 -1.5425  0.4890  0.8513
 3445TIP3   OH234529   4.720   1.136  10.281 -0.1560  0.5523  0.4342
 3445TIP3    H134530   4.711   1.048  10.318 -2.0459  0.8506  0.8087
 3445TIP3    H234531   4.766   1.124  10.198 -0.1482 -0.7433  0.6143
 3446TIP3   OH234532   6.585   0.332  10.070 -0.1746  0.4383  0.1606
 3446TIP3    H134533   6.653   0.396  10.047 -0.1714  0.4487  0.1985
 3446TIP3    H234534   6.537   0.317   9.989  1.7056 -1.7949 -0.6254
 3447TIP3   OH234535   2.232   1.612   9.980  0.1086 -0.4975 -0.2274
 3447TIP3    H134536   2.176   1.675   9.935  1.5570 -0.2942 -1.8076
 3447TIP3    H234537   2.244   1.541   9.917  1.9407 -0.3460 -0.0888
 3448TIP3   OH234538   3.509   2.347   9.980 -0.5213 -0.1917 -0.2259
 3448TIP3    H134539   3.486   2.406  10.052  0.2945 -1.0504  0.7727
 3448TIP3    H234540   3.553   2.404   9.916  0.7186  0.2133  0.9504
 3449TIP3   OH234541   5.798   6.238  11.423 -0.6292  0.0094  0.2367
 3449TIP3    H134542   5.748   6.248  11.342 -2.7197  1.0338  1.5581
 3449TIP3    H234543   5.806   6.327  11.458 -0.9008 -0.5348  1.7643
 3450TIP3   OH234544   0.022   3.223   8.006  0.0159 -0.1007 -0.6901
 3450TIP3    H134545  -0.001   3.309   7.969 -1.9525 -0.6716 -0.9462
 3450TIP3    H234546  -0.016   3.160   7.944 -0.7235 -1.1076  0.7249
 3451TIP3   OH234547   6.486   3.095   8.785  0.4032 -0.6871  0.3801
 3451TIP3    H134548   6.450   3.082   8.873  0.0408  2.5686  0.8357
 3451TIP3    H234549   6.410   3.102   8.728  0.4781  0.4749  0.3970
 3452TIP3   OH234550   5.322   1.420  11.336 -0.1954 -0.0471 -0.4951
 3452TIP3    H134551   5.412   1.393  11.354 -0.0383  0.4613 -0.5096
 3452TIP3    H234552   5.303   1.384  11.250 -0.1503 -0.5050 -0.3182
 3453TIP3   OH234553   4.505   2.146  10.506  0.5116 -0.1879  0.4503
 3453TIP3    H134554   4.420   2.128  10.465  1.1990  0.3547 -1.2926
 3453TIP3    H234555   4.489   2.133  10.599 -1.2927 -0.8498  0.0986
 3454TIP3   OH234556   4.679   5.894   9.480 -0.1884  0.6919  0.2665
 3454TIP3    H134557   4.699   5.860   9.392 -0.4816 -0.0286  0.4670
 3454TIP3    H234558   4.744   5.962   9.495  0.5099  0.1275 -0.1134
 3455TIP3   OH234559   5.737   0.396  11.706  0.1849  0.1061 -0.0865
 3455TIP3    H134560   5.791   0.355  11.773  0.1907 -0.1564 -0.2495
 3455TIP3    H234561   5.785   0.382  11.624 -0.1655 -0.1967 -0.2431
 3456TIP3   OH234562   5.915   0.794   9.847 -0.2270 -0.1359  0.0595
 3456TIP3    H134563   5.923   0.877   9.799  0.1000  0.1213  0.5444
 3456TIP3    H234564   5.833   0.803   9.895 -0.1567 -0.0528  0.1682
 3457TIP3   OH234565   5.731   3.913  11.493  0.0653 -0.5998 -0.1558
 3457TIP3    H134566   5.682   3.995  11.489  0.0113 -0.3126  3.3605
 3457TIP3    H234567   5.678   3.851  11.443 -1.2320  0.9072 -0.7268
 3458TIP3   OH234568   2.084   6.336  11.152  0.2114  0.3292  0.4974
 3458TIP3    H134569   2.056   6.353  11.242  1.7352 -0.6508  1.2016
 3458TIP3    H234570   2.156   6.398  11.138 -0.6749  1.1957 -0.4520
 3459TIP3   OH234571   6.180   0.941  10.303 -0.5539 -0.0699 -0.0171
 3459TIP3    H134572   6.152   0.850  10.301 -0.2516 -0.2029  1.3283
 3459TIP3    H234573   6.126   0.984  10.236 -0.5581 -1.2589 -0.7901
 3460TIP3   OH234574   0.946   3.586  11.630  0.2620 -0.5729 -0.1601
 3460TIP3    H134575   0.871   3.644  11.646 -0.0252 -0.7144 -0.9491
 3460TIP3    H234576   0.907   3.499  11.628  0.3893 -0.6102 -0.9693
 3461TIP3   OH234577   2.406   6.352  12.058 -0.4181  0.5795 -0.2452
 3461TIP3    H134578   2.501   6.364  12.069 -0.7013  1.9572  1.0364
 3461TIP3    H234579   2.383   6.406  11.983 -0.1251 -0.1880 -0.9015
 3462TIP3   OH234580   6.699   6.497  11.388  0.2564  0.3208 -0.1284
 3462TIP3    H134581   6.724   6.454  11.470  1.7083  0.9823 -0.2003
 3462TIP3    H234582   6.776   6.489  11.332 -0.5105  0.3935 -1.2425
 3463TIP3   OH234583   5.509   4.037  10.755 -0.1936 -0.2570 -0.8197
 3463TIP3    H134584   5.598   4.060  10.730 -0.0690  1.3007  0.9035
 3463TIP3    H234585   5.456   4.059  10.678  0.5481  1.5427 -0.8558
 3464TIP3   OH234586   3.285   2.346   8.698 -0.1862 -0.3136  0.1563
 3464TIP3    H134587   3.369   2.348   8.653 -0.3688  1.6894 -0.2198
 3464TIP3    H234588   3.236   2.276   8.655  0.9824 -0.9510 -0.1690
 3465TIP3   OH234589   0.867   6.319  12.066  0.2912  0.0817 -0.6930
 3465TIP3    H134590   0.879   6.414  12.067  2.0595 -0.1105 -1.0397
 3465TIP3    H234591   0.945   6.285  12.022  0.3374 -1.6236  0.6110
 3466TIP3   OH234592   3.439   4.036  10.751 -0.4526  0.2065 -0.5102
 3466TIP3    H134593   3.425   3.986  10.831 -0.9136  1.9943  0.5801
 3466TIP3    H234594   3.354   4.072  10.729 -0.2648  0.0040 -1.6479
 3467TIP3   OH234595   6.108   1.613   8.413 -0.4530  0.1048  0.2528
 3467TIP3    H134596   6.182   1.648   8.362  0.0830  0.1201  1.0233
 3467TIP3    H234597   6.143   1.534   8.455 -0.8068  0.2343  0.8018
 3468TIP3   OH234598   4.016   3.272   8.941  0.3030 -0.3492  0.2516
 3468TIP3    H134599   3.982   3.272   8.851 -0.2502 -1.3070  0.4420
 3468TIP3    H234600   4.055   3.185   8.951 -1.1607 -0.9109  1.4690
 3469TIP3   OH234601   0.467   3.228  11.151 -0.1931 -0.1250 -0.8602
 3469TIP3    H134602   0.480   3.136  11.175 -1.5255 -0.2584 -0.5971
 3469TIP3    H234603   0.471   3.274  11.235  0.0644  0.0149 -0.9487
 3470TIP3   OH234604   4.832   5.097   9.428  0.2690  0.6574 -0.3014
 3470TIP3    H134605   4.823   5.065   9.338 -0.0355 -0.1972  0.0274
 3470TIP3    H234606   4.920   5.070   9.454 -0.0662 -0.1108  0.0488
 3471TIP3   OH234607   6.293   6.240  11.986  0.1545 -0.2094  0.0412
 3471TIP3    H134608   6.305   6.252  11.892 -3.8982  2.0157 -0.4066
 3471TIP3    H234609   6.254   6.153  11.994 -1.4440  0.4128 -0.6470
 3472TIP3   OH234610   5.457   4.948  11.618 -0.4139 -0.1074 -0.3843
 3472TIP3    H134611   5.368   4.916  11.626 -0.2812 -0.0380  1.7627
 3472TIP3    H234612   5.511   4.878  11.656  0.6156 -0.6887 -2.7036
 3473TIP3   OH234613   0.365   6.148  11.467  0.5441  0.0792 -0.0025
 3473TIP3    H134614   0.402   6.222  11.419  2.0113 -0.5040  0.1854
 3473TIP3    H234615   0.361   6.178  11.558 -1.6530  0.9561 -0.3117
 3474TIP3   OH234616   2.541   4.591  12.041 -0.5834  0.2380 -0.0934
 3474TIP3    H134617   2.625   4.607  12.085 -1.0236  0.8625  0.5364
 3474TIP3    H234618   2.527   4.497  12.050  0.9473 -0.2183 -1.8558
 3475TIP3   OH234619   5.240   2.323  10.591 -0.1854 -0.5128 -0.1026
 3475TIP3    H134620   5.239   2.315  10.686  2.3043 -0.9214 -0.0299
 3475TIP3    H234621   5.332   2.309  10.567 -0.9124 -1.5344 -2.6661
 3476TIP3   OH234622   2.833   0.488  10.688 -0.5747  0.2451  0.0415
 3476TIP3    H134623   2.920   0.450  10.682 -0.9081 -0.9883  1.9382
 3476TIP3    H234624   2.829   0.524  10.777 -1.3044  2.1937 -0.7159
 3477TIP3   OH234625   5.323   2.482   9.494 -0.3242  0.1698  0.2671
 3477TIP3    H134626   5.374   2.425   9.551  0.6011  0.3321 -0.3611
 3477TIP3    H234627   5.302   2.428   9.418 -0.0765  0.4391  0.0025
 3478TIP3   OH234628   4.599   6.614  11.293 -0.5243 -0.9727  0.2162
 3478TIP3    H134629   4.619   6.564  11.214  1.3663  0.3747 -0.2203
 3478TIP3    H234630   4.513   6.653  11.277 -0.4259 -1.2021 -0.9119
 3479TIP3   OH234631   1.403   5.021   8.420  0.2991 -0.5862  0.0852
 3479TIP3    H134632   1.455   4.967   8.361  0.1386 -1.7081  0.9385
 3479TIP3    H234633   1.400   4.972   8.502  0.7228  1.0474  1.1239
 3480TIP3   OH234634   4.690   3.831  10.227 -0.2361 -0.3003 -0.1079
 3480TIP3    H134635   4.638   3.854  10.151  0.7858  1.2463 -0.3957
 3480TIP3    H234636   4.781   3.843  10.199  0.1667  0.3976  1.3616
 3481TIP3   OH234637   5.009   0.826  12.078  0.0724  0.2441  0.1523
 3481TIP3    H134638   4.948   0.771  12.029 -0.2933  2.7795 -2.5388
 3481TIP3    H234639   4.953   0.883  12.132  0.1810  0.7202 -0.2265
 3482TIP3   OH234640   1.651   2.566   9.802  0.3977  0.0895  0.2041
 3482TIP3    H134641   1.733   2.590   9.759  0.3698 -0.9740 -0.4771
 3482TIP3    H234642   1.654   2.611   9.887  1.6772  0.0828  0.1808
 3483TIP3   OH234643   0.383   4.193  10.417 -0.4556  0.0981 -0.5494
 3483TIP3    H134644   0.446   4.206  10.488 -1.0029  0.6154 -0.1506
 3483TIP3    H234645   0.299   4.181  10.461 -0.5478 -1.2699 -1.0469
 3484TIP3   OH234646   5.917   4.854  10.400 -0.0106  0.0467 -0.3148
 3484TIP3    H134647   5.990   4.809  10.442 -0.9311  0.5661  1.9802
 3484TIP3    H234648   5.958   4.913  10.336  1.4346 -1.0183 -0.3985
 3485TIP3   OH234649   0.576   1.904  10.053 -0.4228  0.3446 -0.0451
 3485TIP3    H134650   0.558   1.996  10.072  0.4401  0.1527  1.9036
 3485TIP3    H234651   0.496   1.858  10.080  0.4521  0.1811  2.5512
 3486TIP3   OH234652   5.680   3.049   9.130 -0.2042  0.2798 -0.5281
 3486TIP3    H134653   5.654   3.111   9.198 -0.1317 -0.1555 -0.1046
 3486TIP3    H234654   5.669   2.963   9.169 -0.2419  0.0210 -1.0951
 3487TIP3   OH234655   5.720   3.611  12.112 -0.1323  0.4810 -0.3318
 3487TIP3    H134656   5.814   3.594  12.111  0.1698  1.9340  0.4887
 3487TIP3    H234657   5.681   3.531  12.146  0.7395 -0.3456 -1.2191
 3488TIP3   OH234658   4.814   4.671   9.531 -0.0674  0.0456 -0.2675
 3488TIP3    H134659   4.859   4.724   9.597 -1.6993 -0.0708  1.0296
 3488TIP3    H234660   4.721   4.687   9.548 -0.5824 -1.9344 -0.9120
 3489TIP3   OH234661   6.549   4.015  10.263 -0.3462  0.3212 -0.5229
 3489TIP3    H134662   6.577   3.944  10.206  0.4616  0.9432 -0.9077
 3489TIP3    H234663   6.465   4.043  10.226 -0.6661 -0.4136 -0.3751
 3490TIP3   OH234664   1.712   6.446  11.519  0.1783  0.2403 -0.2523
 3490TIP3    H134665   1.736   6.405  11.602  0.8054 -0.3748 -0.7276
 3490TIP3    H234666   1.691   6.537  11.542 -1.4221 -0.3772  0.8472
 3491TIP3   OH234667   0.759   4.858  11.665 -0.0579  0.1000  0.1714
 3491TIP3    H134668   0.752   4.776  11.713 -0.6137 -1.3879 -2.2461
 3491TIP3    H234669   0.746   4.833  11.573 -2.0996  3.1103 -0.5297
 3492TIP3   OH234670   3.575   1.429  11.171  0.2611 -0.4497 -0.1851
 3492TIP3    H134671   3.605   1.481  11.245 -2.7480  0.9930  0.1884
 3492TIP3    H234672   3.540   1.493  11.110 -1.0446 -1.8522 -0.9663
 3493TIP3   OH234673   2.024   4.226   9.313 -0.2672  0.9464  0.3341
 3493TIP3    H134674   1.978   4.294   9.362  0.3313  0.6582  1.3453
 3493TIP3    H234675   2.041   4.264   9.227 -1.2394  1.5197  0.3832
 3494TIP3   OH234676   6.094   4.193   9.789 -0.1813  0.0297  0.5845
 3494TIP3    H134677   6.032   4.197   9.862  0.0642 -1.0653  0.8682
 3494TIP3    H234678   6.072   4.269   9.735 -1.6775 -0.2547  0.7454
 3495TIP3   OH234679   5.861   1.031  11.881  0.4186  0.1924 -0.0182
 3495TIP3    H134680   5.775   0.989  11.889 -0.5307  2.0068 -0.1867
 3495TIP3    H234681   5.923   0.964  11.909 -1.2311 -0.2635  2.9115
 3496TIP3   OH234682   2.349   4.502  11.757  0.0403  0.7740 -0.3270
 3496TIP3    H134683   2.258   4.531  11.755 -0.6884 -1.1695  1.2358
 3496TIP3    H234684   2.388   4.552  11.829  0.4654  2.1053 -1.4229
 3497TIP3   OH234685   1.601   0.034   9.918 -0.5282 -0.2854 -0.4529
 3497TIP3    H134686   1.608  -0.029   9.989  0.4348 -1.2195 -1.3380
 3497TIP3    H234687   1.611  -0.019   9.838  1.3696  1.0900 -1.1977
 3498TIP3   OH234688   1.850   6.102   9.100 -0.0213  0.0844 -0.1169
 3498TIP3    H134689   1.938   6.097   9.061  0.8445  0.8744  1.6059
 3498TIP3    H234690   1.833   6.196   9.109  0.6672  0.0382  2.9901
 3499TIP3   OH234691   1.881   3.979   8.621 -0.0874  0.2085 -0.0622
 3499TIP3    H134692   1.879   3.945   8.532 -0.5952 -1.1117  0.4356
 3499TIP3    H234693   1.906   4.071   8.611  0.6044 -0.1070 -1.5035
 3500TIP3   OH234694   2.878   1.346  10.052  0.1719  0.4067 -0.1290
 3500TIP3    H134695   2.875   1.255  10.022 -0.8414  0.4023 -0.0479
 3500TIP3    H234696   2.932   1.342  10.132  1.0355  0.0682 -0.7084
 3501TIP3   OH234697   0.824   0.188  10.803 -0.4995 -0.1467 -0.2853
 3501TIP3    H134698   0.831   0.124  10.732 -4.1065  0.3462 -1.3210
 3501TIP3    H234699   0.855   0.270  10.765 -1.0797 -0.1809 -0.8500
 3502TIP3   OH234700   1.509   1.047   9.244  0.2543 -0.1826 -0.4270
 3502TIP3    H134701   1.581   1.038   9.182  0.2410 -1.2395 -0.3076
 3502TIP3    H234702   1.439   0.992   9.207 -0.1754  0.1379 -0.0933
 3503TIP3   OH234703   4.346   6.280  10.994  0.5781 -0.1534  0.0414
 3503TIP3    H134704   4.256   6.268  11.024  0.4671  0.3675 -0.0804
 3503TIP3    H234705   4.371   6.194  10.960  0.2013 -0.3555  0.2664
 3504TIP3   OH234706   3.509   6.198  11.631 -0.3256  0.0561 -0.3334
 3504TIP3    H134707   3.507   6.264  11.700 -1.4263 -1.0338  0.7366
 3504TIP3    H234708   3.600   6.198  11.600  0.2199  0.5220  1.1766
 3505TIP3   OH234709   5.559   0.097  11.367 -0.3229  0.5551  0.1244
 3505TIP3    H134710   5.632   0.040  11.390 -0.0460  0.8333 -0.0550
 3505TIP3    H234711   5.492   0.077  11.432  0.7726  1.9393  1.7761
 3506TIP3   OH234712   5.931   5.327  10.242  0.2501 -0.2652  0.2869
 3506TIP3    H134713   5.886   5.276  10.174 -0.2251  1.3300 -0.6312
 3506TIP3    H234714   5.861   5.361  10.297  0.4898  0.1325  0.3493
 3507TIP3   OH234715   1.091   6.342  11.880  0.1588  0.0100  0.5952
 3507TIP3    H134716   1.037   6.418  11.855  1.0401  0.3311 -0.4249
 3507TIP3    H234717   1.082   6.282  11.806  0.2003 -0.4874  0.9924
 3508TIP3   OH234718   5.403   3.768  11.860 -1.1411 -0.2483  0.4674
 3508TIP3    H134719   5.442   3.828  11.925 -1.7808  1.6032 -0.7715
 3508TIP3    H234720   5.325   3.734  11.903 -0.8846 -0.0287  1.1241
 3509TIP3   OH234721   0.008   0.628  10.219  0.5597 -0.3614  0.1138
 3509TIP3    H134722   0.081   0.610  10.279 -0.8988 -0.3096  2.0084
 3509TIP3    H234723  -0.016   0.719  10.237 -0.1995 -0.4906 -0.2033
 3510TIP3   OH234724   5.361   5.370  10.155 -0.3089  0.0946  0.0185
 3510TIP3    H134725   5.385   5.463  10.162 -1.8712  0.4968  0.5096
 3510TIP3    H234726   5.434   5.330  10.109 -0.5280  1.9728 -2.1627
 3511TIP3   OH234727   5.301   2.215   9.935 -0.0627 -0.3671  0.0888
 3511TIP3    H134728   5.216   2.179   9.909 -0.2463 -0.2660  0.5424
 3511TIP3    H234729   5.346   2.143   9.979 -0.3638 -0.1057  0.8476
 3512TIP3   OH234730   0.421   2.797  10.036  0.5259 -0.1634  0.0898
 3512TIP3    H134731   0.368   2.811  10.114 -2.6519 -0.0440 -1.9061
 3512TIP3    H234732   0.465   2.713  10.051 -1.6257 -1.1745  1.2166
 3513TIP3   OH234733   2.303   5.435  11.254 -0.0426  0.3389 -0.0559
 3513TIP3    H134734   2.377   5.495  11.246  1.6916 -1.4386  1.3865
 3513TIP3    H234735   2.279   5.439  11.346  0.0418 -1.0388  0.0496
 3514TIP3   OH234736   5.383   1.607   9.245  0.1939 -0.1287 -0.1535
 3514TIP3    H134737   5.303   1.576   9.202  0.3750 -0.1415 -0.4875
 3514TIP3    H234738   5.441   1.531   9.246 -0.1149 -0.3695  0.8873
 3515TIP3   OH234739   4.062   0.080   9.227  0.6811  0.1073  0.4233
 3515TIP3    H134740   4.114   0.015   9.273 -1.1114 -1.8704 -0.1969
 3515TIP3    H234741   4.034   0.142   9.295  1.2361 -0.5709  1.2839
 3516TIP3   OH234742   5.083   3.199  10.485  0.0310 -0.8380  0.2794
 3516TIP3    H134743   5.015   3.134  10.498  0.0757 -0.7164  1.2038
 3516TIP3    H234744   5.124   3.208  10.571  1.1175 -0.8060 -0.2255
 3517TIP3   OH234745   1.200   1.760  10.221 -0.0472  0.2345 -0.4375
 3517TIP3    H134746   1.279   1.722  10.262 -0.6483 -0.4734  0.0933
 3517TIP3    H234747   1.181   1.837  10.274 -0.0331  0.0922 -0.2230
 3518TIP3   OH234748   5.447   0.473  12.133 -0.0030 -0.5611 -0.3286
 3518TIP3    H134749   5.356   0.490  12.109 -0.0509 -0.4189 -0.0465
 3518TIP3    H234750   5.492   0.461  12.049 -0.2814 -0.6380 -0.4686
 3519TIP3   OH234751   0.935   0.408  10.057 -0.2395  0.1995 -0.1336
 3519TIP3    H134752   0.905   0.323  10.090  0.8894  0.3647  1.3852
 3519TIP3    H234753   0.858   0.464  10.063 -1.2934 -0.9037 -2.0888
 3520TIP3   OH234754   1.689   1.174  10.191  0.0513  0.1091  0.3491
 3520TIP3    H134755   1.641   1.098  10.157 -2.2946  2.4057 -1.9901
 3520TIP3    H234756   1.741   1.204  10.116 -0.6157  1.9052  0.5597
 3521TIP3   OH234757   2.685   2.398  10.963  0.2787 -0.0708 -0.3073
 3521TIP3    H134758   2.601   2.360  10.988  0.4322  1.4856  3.1451
 3521TIP3    H234759   2.749   2.354  11.019  1.4669  0.3075 -1.3241
 3522TIP3   OH234760   3.950   5.197  11.628 -0.2585  0.1356  0.1461
 3522TIP3    H134761   3.975   5.120  11.679  1.3633 -0.3918 -1.3760
 3522TIP3    H234762   4.024   5.257  11.637 -0.6842  0.7227 -0.2282
 3523TIP3   OH234763   4.140   5.443  11.216  0.0733 -0.1189 -0.4617
 3523TIP3    H134764   4.106   5.361  11.252  0.2334  0.5494  1.3000
 3523TIP3    H234765   4.087   5.511  11.257  0.9507  0.7461 -0.7244
 3524TIP3   OH234766   4.857   2.422  10.337  0.2126  0.6749  1.0888
 3524TIP3    H134767   4.812   2.481  10.398 -1.0361 -0.2815  1.1396
 3524TIP3    H234768   4.929   2.385  10.388 -0.9080 -0.2335  2.0695
 3525TIP3   OH234769   3.930   3.588  11.331  0.0466  0.4947  0.5192
 3525TIP3    H134770   4.010   3.575  11.281 -0.0592  3.7775 -0.7813
 3525TIP3    H234771   3.959   3.626  11.414 -0.0495 -0.8716  1.2023
 3526TIP3   OH234772   0.703   6.408  10.307 -0.2243  0.3042  0.3739
 3526TIP3    H134773   0.720   6.319  10.276  1.3204  0.3664  0.9673
 3526TIP3    H234774   0.666   6.396  10.394  2.9815  0.2092  1.8595
 3527TIP3   OH234775   2.852   3.024  11.771  0.3411 -0.2184 -0.0874
 3527TIP3    H134776   2.876   2.960  11.704 -1.4833 -0.4443 -0.5688
 3527TIP3    H234777   2.772   3.064  11.739 -0.6298 -0.3669  1.9663
 3528TIP3   OH234778   4.450   2.056   7.969  0.4958 -0.0881  0.9714
 3528TIP3    H134779   4.447   2.151   7.973 -0.7852  0.0619 -1.5641
 3528TIP3    H234780   4.362   2.028   7.997  0.1715 -0.3799 -0.3026
 3529TIP3   OH234781   0.441   5.558  10.116 -0.0706 -0.4579  0.0676
 3529TIP3    H134782   0.488   5.529  10.194 -0.7691 -1.4103  0.1653
 3529TIP3    H234783   0.383   5.627  10.147  0.9767  0.4557  0.0172
 3530TIP3   OH234784   2.392   1.202   9.675  0.3050 -0.2686  0.4568
 3530TIP3    H134785   2.327   1.266   9.704  0.6363 -0.1569  0.9556
 3530TIP3    H234786   2.444   1.183   9.753  0.2955 -1.0451  0.2763
 3531TIP3   OH234787   6.321   3.967  11.492  0.3351 -0.5143  0.0415
 3531TIP3    H134788   6.391   3.906  11.469 -0.3537 -1.0287 -0.8093
 3531TIP3    H234789   6.241   3.913  11.487 -0.5963  0.9415 -3.1842
 3532TIP3   OH234790   4.927   2.420  10.607  0.0630  0.1729  0.7826
 3532TIP3    H134791   4.971   2.405  10.691  0.5468 -0.5564  0.4125
 3532TIP3    H234792   4.945   2.341  10.556  1.3953  1.3842 -0.7098
 3533TIP3   OH234793   1.657   0.953  11.626 -0.2737  0.4252 -0.6210
 3533TIP3    H134794   1.746   0.970  11.595  0.1745  1.1035  0.8988
 3533TIP3    H234795   1.622   1.041  11.643 -0.6401  0.1165  0.2831
 3534TIP3   OH234796   4.501   3.872  11.387  0.0280  0.1988  0.6063
 3534TIP3    H134797   4.552   3.857  11.308 -0.3134 -1.9224  0.7301
 3534TIP3    H234798   4.565   3.899  11.452  0.2147  2.7389 -0.5105
 3535TIP3   OH234799   1.495   5.551  11.352 -0.4438 -0.0472 -0.2120
 3535TIP3    H134800   1.420   5.533  11.409  0.0594 -2.1218 -0.1352
 3535TIP3    H234801   1.553   5.476  11.364  0.8388  0.6816 -1.5841
 3536TIP3   OH234802   1.921   0.750   9.579  0.1820 -0.5570 -0.3793
 3536TIP3    H134803   2.015   0.750   9.564  0.2667  1.0525 -0.0027
 3536TIP3    H234804   1.886   0.691   9.512  1.5076 -1.7673 -0.0394
 3537TIP3   OH234805   1.941   6.161  12.227 -1.2171  0.1639  0.8614
 3537TIP3    H134806   1.951   6.208  12.310 -0.0798  0.0557  0.7895
 3537TIP3    H234807   2.015   6.190  12.173 -0.8084 -1.2802  0.6176
 3538TIP3   OH234808   2.317   5.625  10.490 -0.0112  0.1542  0.8085
 3538TIP3    H134809   2.302   5.531  10.479 -2.2938  0.6165 -0.9315
 3538TIP3    H234810   2.255   5.652  10.558 -1.5081  0.7994 -0.7353
 3539TIP3   OH234811   5.594   3.915  11.157 -0.1922  0.4163  0.2055
 3539TIP3    H134812   5.614   3.822  11.149 -2.9572 -0.2007 -0.4419
 3539TIP3    H234813   5.526   3.920  11.223 -0.6077  1.8922 -0.2863
 3540TIP3   OH234814   4.901   2.580  11.039 -0.6945 -0.0311  0.1429
 3540TIP3    H134815   4.924   2.663  11.082 -3.0666  0.0870  1.2996
 3540TIP3    H234816   4.871   2.524  11.110 -2.3612 -0.6973 -1.0427
 3541TIP3   OH234817   3.819   6.227  10.134  0.5230  0.8474 -0.3089
 3541TIP3    H134818   3.908   6.193  10.130  0.3461  0.3170  0.0759
 3541TIP3    H234819   3.770   6.174  10.071  0.2472  0.3792  0.2892
 3542TIP3   OH234820   0.218   2.747  11.216 -0.1662 -0.5098 -0.0673
 3542TIP3    H134821   0.289   2.690  11.186 -0.8303 -1.2744 -0.2078
 3542TIP3    H234822   0.177   2.699  11.288  0.6349  0.7632  1.2957
 3543TIP3   OH234823   4.732   1.146  11.190 -0.5809  0.1841  0.1079
 3543TIP3    H134824   4.798   1.132  11.123  0.3787 -0.1813  1.0914
 3543TIP3    H234825   4.691   1.229  11.167 -1.4469 -0.7404 -1.8542
 3544TIP3   OH234826   0.500   5.548   9.482 -0.3549 -0.3378  0.4483
 3544TIP3    H134827   0.587   5.521   9.452 -0.3441  0.6026 -0.4095
 3544TIP3    H234828   0.457   5.580   9.404 -1.1059  0.1822  1.0632
 3545TIP3   OH234829   1.365   5.326  10.697  0.4112 -0.9249 -0.1772
 3545TIP3    H134830   1.459   5.325  10.680  0.1114 -0.7895 -2.0286
 3545TIP3    H234831   1.324   5.326  10.610 -1.2845  1.3052  0.5250
 3546TIP3   OH234832   1.703   0.542  11.903 -0.4223 -0.3697 -0.2641
 3546TIP3    H134833   1.638   0.537  11.973 -0.9064 -1.6340 -0.7853
 3546TIP3    H234834   1.655   0.572  11.827 -0.2283 -0.5573 -0.4619
 3547TIP3   OH234835   3.190   4.196  10.758  0.3452  0.1475 -0.1079
 3547TIP3    H134836   3.231   4.280  10.781 -1.6686  0.9538  0.7531
 3547TIP3    H234837   3.142   4.214  10.678  2.3709 -1.0550 -1.6825
 3548TIP3   OH234838   4.889   3.979  11.297 -0.2697  0.0209  0.4808
 3548TIP3    H134839   4.871   4.064  11.257 -0.4394 -0.1042  0.2895
 3548TIP3    H234840   4.909   4.000  11.388  1.7539  0.4723 -0.0295
 3549TIP3   OH234841   0.613   3.578   8.812 -0.0428 -0.4489 -0.1960
 3549TIP3    H134842   0.536   3.631   8.791  0.6200  0.3974 -0.5178
 3549TIP3    H234843   0.683   3.613   8.757  2.1722  2.7547  4.1092
 3550TIP3   OH234844   4.941   2.027  10.470  0.2284 -0.2177  0.2533
 3550TIP3    H134845   4.864   1.975  10.444  0.0101 -0.5692  1.5309
 3550TIP3    H234846   4.926   2.046  10.563  1.5101  0.0319  0.4180
 3551TIP3   OH234847   6.024   5.461  11.539  0.0892  0.1700  0.1943
 3551TIP3    H134848   6.054   5.377  11.575  3.7177  1.0019 -0.5115
 3551TIP3    H234849   5.934   5.469  11.570  0.6028 -2.5073  2.8938
 3552TIP3   OH234850   0.021   0.157   8.490 -0.1022  0.1512  0.5907
 3552TIP3    H134851   0.045   0.248   8.507  0.0120  0.7943 -2.5079
 3552TIP3    H234852  -0.051   0.162   8.428  0.2440 -1.8852 -0.0443
 3553TIP3   OH234853   4.320   4.844  11.331  0.0633  0.3883 -0.2437
 3553TIP3    H134854   4.379   4.786  11.379 -2.1574 -1.2696  0.7016
 3553TIP3    H234855   4.350   4.932  11.352  1.4562 -0.3661  1.1459
 3554TIP3   OH234856   3.076   4.543   9.872 -0.0574  0.0206 -0.6303
 3554TIP3    H134857   3.079   4.472   9.807 -3.4998  0.6150 -1.6136
 3554TIP3    H234858   3.082   4.623   9.821 -0.4155  0.4772  0.0209
 3555TIP3   OH234859   1.202   2.317   9.222 -0.0064  0.1362  0.1568
 3555TIP3    H134860   1.273   2.259   9.249  0.2940  0.3900 -0.0844
 3555TIP3    H234861   1.178   2.287   9.134 -1.7006 -1.3739  1.0703
 3556TIP3   OH234862   4.723   2.088  10.995 -0.2659 -0.3508 -0.1405
 3556TIP3    H134863   4.652   2.125  11.048  1.5140  1.0821  1.4193
 3556TIP3    H234864   4.794   2.152  11.003  0.7365 -1.0099 -2.8190
 3557TIP3   OH234865   3.621   4.921  10.842  0.2524 -0.0561  0.1563
 3557TIP3    H134866   3.695   4.973  10.811  1.3645 -2.1905 -1.0133
 3557TIP3    H234867   3.578   4.890  10.762 -2.8590  2.2626  0.7657
 3558TIP3   OH234868   0.734   1.911   8.677  0.4253  0.4652 -0.1944
 3558TIP3    H134869   0.647   1.893   8.641  0.0556 -1.0223  1.2905
 3558TIP3    H234870   0.795   1.883   8.609 -0.0816  4.7027 -2.7612
 3559TIP3   OH234871   1.642   1.837  12.239 -0.3824  0.2852  0.0155
 3559TIP3    H134872   1.710   1.855  12.305  0.7260 -1.2473 -0.6322
 3559TIP3    H234873   1.571   1.897  12.260  0.6151  0.9748  1.5903
 3560TIP3   OH234874   4.038   2.478   9.095  0.3362  0.1846  0.7034
 3560TIP3    H134875   3.996   2.480   9.181  0.4405 -2.7251  0.9183
 3560TIP3    H234876   3.988   2.413   9.045  0.9432  1.0196 -1.0942
 3561TIP3   OH234877   5.369   5.784   9.611 -0.5591 -0.2539  0.0823
 3561TIP3    H134878   5.278   5.813   9.611 -0.2667  0.7032  0.3478
 3561TIP3    H234879   5.418   5.859   9.644  0.5442 -0.0586 -1.8354
 3562TIP3   OH234880   1.173   5.648  11.281 -0.7521 -0.2308  0.1774
 3562TIP3    H134881   1.128   5.566  11.261 -0.2756 -0.4919  0.1737
 3562TIP3    H234882   1.125   5.714  11.232 -1.1418 -0.5048  0.1842
 3563TIP3   OH234883   1.791   2.679  11.362 -0.6824  0.3156 -0.6916
 3563TIP3    H134884   1.789   2.676  11.458  2.0965 -2.4848 -0.5604
 3563TIP3    H234885   1.866   2.735  11.342 -1.3293  0.9872 -1.2781
 3564TIP3   OH234886   5.264   6.219   9.720 -0.3510 -0.7844 -0.0507
 3564TIP3    H134887   5.178   6.257   9.734 -0.1451 -0.2177 -0.2822
 3564TIP3    H234888   5.253   6.160   9.645 -0.6826 -1.2201  0.3412
 3565TIP3   OH234889   6.426   1.023   8.528 -0.0093 -0.2146  0.1265
 3565TIP3    H134890   6.354   0.983   8.480 -0.1802  0.5993 -0.2907
 3565TIP3    H234891   6.423   1.115   8.505 -0.2306  0.2420  1.8547
 3566TIP3   OH234892   2.461   0.332  12.074 -0.4470 -0.9741 -0.2795
 3566TIP3    H134893   2.446   0.282  11.994 -0.7651  0.6612 -1.2822
 3566TIP3    H234894   2.495   0.417  12.044  0.2157 -0.6197  1.3667
 3567TIP3   OH234895   0.496   4.712  12.347  0.1317 -0.1743  0.6660
 3567TIP3    H134896   0.444   4.755  12.415 -1.4015 -0.5434 -0.2428
 3567TIP3    H234897   0.434   4.690  12.278  1.8602  1.7097 -1.6903
 3568TIP3   OH234898   2.195   0.557   9.584 -0.0574  0.2366  0.1254
 3568TIP3    H134899   2.144   0.476   9.589  0.5106 -0.0757  1.1077
 3568TIP3    H234900   2.236   0.555   9.497 -0.6053 -0.1822 -0.1260
 3569TIP3   OH234901   5.275   5.140  11.216 -0.1056  0.2653  0.3191
 3569TIP3    H134902   5.197   5.086  11.230  0.1116 -0.1730 -0.1459
 3569TIP3    H234903   5.329   5.089  11.157 -1.2091  2.2805 -2.6409
 3570TIP3   OH234904   4.699   2.699   9.176 -0.6483  0.6511 -0.1796
 3570TIP3    H134905   4.750   2.650   9.239 -1.1517 -3.3005 -2.5134
 3570TIP3    H234906   4.763   2.751   9.128  1.2370 -2.8568 -1.8832
 3571TIP3   OH234907   6.546   6.139   8.240 -0.0131 -0.2379 -0.6283
 3571TIP3    H134908   6.523   6.229   8.261  0.4581 -0.2162 -0.1700
 3571TIP3    H234909   6.642   6.139   8.238  0.1020 -1.1720  1.5179
 3572TIP3   OH234910   4.481   4.047   8.702 -0.1162 -0.0361  0.4813
 3572TIP3    H134911   4.570   4.080   8.684  0.1393 -0.4499  0.9804
 3572TIP3    H234912   4.439   4.117   8.751 -0.6641  0.9147 -1.2288
 3573TIP3   OH234913   3.946   5.192   9.962  0.6739 -0.1361  0.6300
 3573TIP3    H134914   4.034   5.206   9.926  0.5226 -0.1331  0.2554
 3573TIP3    H234915   3.955   5.212  10.055  1.3989 -1.5164  0.8843
 3574TIP3   OH234916   0.490   1.349   9.301 -0.4883 -0.2261 -0.2915
 3574TIP3    H134917   0.412   1.342   9.247  0.4494  1.1662 -1.9179
 3574TIP3    H234918   0.562   1.357   9.239  0.7474  0.5195  1.1523
 3575TIP3   OH234919   0.311   6.548   9.851 -0.1516 -0.1833 -0.2610
 3575TIP3    H134920   0.230   6.500   9.868  0.6712 -1.0576  1.3568
 3575TIP3    H234921   0.340   6.578   9.937  1.4116 -0.1474 -0.7763
 3576TIP3   OH234922   0.236   1.794   9.694 -0.4341  0.0240  0.0667
 3576TIP3    H134923   0.195   1.824   9.613  0.3006  2.0893  0.4080
 3576TIP3    H234924   0.316   1.749   9.666 -0.6072 -0.0066 -0.3874
 3577TIP3   OH234925   0.796   5.023  11.882  0.0233  0.2821  0.4184
 3577TIP3    H134926   0.823   5.115  11.879 -0.4029  0.4610  1.5978
 3577TIP3    H234927   0.777   5.001  11.791 -0.1961  1.4679  0.1585
 3578TIP3   OH234928   6.561   4.601  10.712 -0.1697 -0.0275 -0.0726
 3578TIP3    H134929   6.557   4.638  10.800 -2.5781  1.0925 -0.5618
 3578TIP3    H234930   6.597   4.672  10.658  0.2060 -0.2879 -0.1606
 3579TIP3   OH234931   3.300   5.198  10.084  0.3920  0.1812  0.0175
 3579TIP3    H134932   3.233   5.262  10.063  0.6214 -0.0696 -1.5671
 3579TIP3    H234933   3.262   5.114  10.058  0.3439 -0.2848  1.4811
 3580TIP3   OH234934   6.111   2.503  11.095 -0.3420  0.1333 -0.1495
 3580TIP3    H134935   6.071   2.548  11.020 -1.6429 -0.5400  0.1095
 3580TIP3    H234936   6.037   2.467  11.144  0.5233  0.0575  1.1480
 3581TIP3   OH234937   0.921   2.307  10.774  0.1592  0.4800 -0.1529
 3581TIP3    H134938   1.009   2.272  10.784 -0.2819 -0.7796 -0.4468
 3581TIP3    H234939   0.901   2.348  10.858  0.4011 -0.7305  0.5242
 3582TIP3   OH234940   1.012   3.973  11.820 -0.2764  0.0931  0.2673
 3582TIP3    H134941   0.952   4.038  11.856 -0.7318  0.0036 -0.3094
 3582TIP3    H234942   0.960   3.926  11.755 -0.4165 -1.8616  1.7007
 3583TIP3   OH234943   4.722   1.406   9.623 -0.1427  0.6367  0.5820
 3583TIP3    H134944   4.669   1.387   9.545 -0.5543 -1.8628  1.3731
 3583TIP3    H234945   4.662   1.455   9.680 -0.1123  1.7363 -0.2928
 3584TIP3   OH234946   3.191   5.914   9.685 -0.0678  0.2666 -0.5625
 3584TIP3    H134947   3.164   6.006   9.692  1.3875  0.7678 -1.2808
 3584TIP3    H234948   3.112   5.869   9.654 -0.3722  1.5290 -1.7145
 3585TIP3   OH234949   6.601   6.149   9.063  0.0097 -0.0903  0.1872
 3585TIP3    H134950   6.536   6.168   8.995  0.0694  3.3666  0.9515
 3585TIP3    H234951   6.561   6.182   9.144  1.1077 -1.5647  1.3842
 3586TIP3   OH234952   6.436   0.546  11.119  0.0395  0.0702  0.1270
 3586TIP3    H134953   6.530   0.534  11.136  0.0082  0.1161  0.3435
 3586TIP3    H234954   6.422   0.508  11.033  0.1360 -0.5251  0.3651
 3587TIP3   OH234955   6.439   4.207  11.108  0.2714 -0.3785  0.0561
 3587TIP3    H134956   6.483   4.287  11.137 -0.7155  0.4269 -0.5696
 3587TIP3    H234957   6.447   4.209  11.012  0.1389 -0.9563  0.0333
 3588TIP3   OH234958   1.040   4.227   9.109  0.3826  0.1188 -0.8718
 3588TIP3    H134959   1.096   4.196   9.180 -0.6044  1.1250  0.3862
 3588TIP3    H234960   1.027   4.320   9.128  0.1918  0.4431 -2.4576
 3589TIP3   OH234961   0.479   5.663  10.566  0.3896 -0.5665 -0.1577
 3589TIP3    H134962   0.419   5.738  10.573 -1.7004 -1.9314 -2.0521
 3589TIP3    H234963   0.560   5.701  10.532 -0.6584  0.8371 -1.2012
 3590TIP3   OH234964   3.985   0.968  10.331 -0.1034  0.2370  0.2779
 3590TIP3    H134965   4.059   0.960  10.391  0.7449  0.7043 -0.6738
 3590TIP3    H234966   3.908   0.968  10.388  0.6505  0.2443  1.3279
 3591TIP3   OH234967   1.497   6.512  10.901  0.2817 -0.4610  0.0171
 3591TIP3    H134968   1.557   6.565  10.953 -0.6207 -0.4774  1.0994
 3591TIP3    H234969   1.537   6.509  10.814  0.7878  1.2680  0.1596
 3592TIP3   OH234970   0.132   5.010  12.330 -0.5065 -0.0965  0.1758
 3592TIP3    H134971   0.108   5.083  12.387 -1.3412 -0.1215 -0.1234
 3592TIP3    H234972   0.175   5.051  12.255 -1.7692  0.1971 -0.4204
 3593TIP3   OH234973   5.166   6.017  10.386  0.5570  0.2652 -0.3323
 3593TIP3    H134974   5.178   6.061  10.301 -0.3898 -0.7783 -1.0349
 3593TIP3    H234975   5.176   5.924  10.367 -2.3367 -0.2271  0.1224
 3594TIP3   OH234976   3.823   4.000  10.060 -0.4306  1.0088 -0.0214
 3594TIP3    H134977   3.826   3.905  10.055  1.6534  1.0797 -0.8221
 3594TIP3    H234978   3.738   4.023  10.021 -1.7452 -0.5534  1.7395
 3595TIP3   OH234979   0.128   6.134  10.291  0.0016 -0.5415 -0.3134
 3595TIP3    H134980   0.058   6.193  10.263 -0.7318 -1.1268  0.2396
 3595TIP3    H234981   0.167   6.102  10.210 -0.0013  0.2083 -0.6227
 3596TIP3   OH234982   0.033   2.381  12.317 -0.5827  0.1997 -0.1519
 3596TIP3    H134983   0.078   2.462  12.342  2.1738 -1.3447  0.4293
 3596TIP3    H234984  -0.054   2.389  12.356 -0.5007  2.9375 -0.3161
 3597TIP3   OH234985   5.104   0.269   9.995 -0.2132 -0.1704 -0.2609
 3597TIP3    H134986   5.012   0.241   9.988 -0.6782  1.0540  0.6398
 3597TIP3    H234987   5.108   0.317  10.078  0.8843  1.1053 -1.0159
 3598TIP3   OH234988   2.212   5.039   9.121 -0.3996  0.1222 -0.2442
 3598TIP3    H134989   2.299   5.022   9.159 -0.0980  2.2803  0.1943
 3598TIP3    H234990   2.229   5.105   9.053 -1.6435  0.2919 -0.4033
 3599TIP3   OH234991   1.139   0.266  11.751  0.2399  0.4065  0.2078
 3599TIP3    H134992   1.226   0.231  11.772 -0.0308 -1.0632 -0.9393
 3599TIP3    H234993   1.154   0.359  11.734  1.4404  0.3533  0.8786
 3600TIP3   OH234994   6.592   1.686  11.740  0.0219 -0.4297 -0.3401
 3600TIP3    H134995   6.527   1.628  11.700 -1.6781 -1.4490  3.5042
 3600TIP3    H234996   6.540   1.754  11.783  1.7777  1.0552 -0.4337
 3601TIP3   OH234997   0.973   1.563  11.460 -0.2132 -0.6221  0.1106
 3601TIP3    H134998   0.879   1.575  11.478 -0.4524 -0.5350 -1.0657
 3601TIP3    H234999   0.974   1.514  11.377  0.7470  1.7493 -1.3836
 3602TIP3   OH235000   5.954   5.559   9.830 -0.2254  0.2738 -0.0557
 3602TIP3    H135001   5.861   5.583   9.831 -0.3954 -0.3363  1.3481
 3602TIP3    H235002   5.988   5.598   9.750 -2.1767 -1.3361 -1.7899
 3603TIP3   OH235003   1.935   5.919   8.789  0.2314 -0.7779 -0.1886
 3603TIP3    H135004   1.844   5.920   8.757 -0.1629 -1.2247  0.8752
 3603TIP3    H235005   1.933   5.862   8.865  2.1591 -3.9969 -2.2932
 3604TIP3   OH235006   6.471   4.381  10.592 -0.2611 -0.2581  0.0961
 3604TIP3    H135007   6.509   4.457  10.637  1.8700 -1.5186  0.5487
 3604TIP3    H235008   6.515   4.379  10.507 -1.7720  0.1257 -0.7253
 3605TIP3   OH235009   5.788   1.322  10.040 -0.0430  0.3168  0.0236
 3605TIP3    H135010   5.823   1.285   9.960  2.0059 -1.7396  1.7249
 3605TIP3    H235011   5.864   1.361  10.084 -1.4020  2.8949  0.2700
 3606TIP3   OH235012   5.213   0.603   8.319  0.4608  0.2585  0.1591
 3606TIP3    H135013   5.285   0.591   8.258 -1.5706 -1.1233 -2.1853
 3606TIP3    H235014   5.214   0.696   8.339  2.8252  0.2845  0.1882
 3607TIP3   OH235015   4.160   5.406  11.778 -0.3194 -0.0747 -0.1034
 3607TIP3    H135016   4.158   5.324  11.826 -0.5660 -0.0521 -0.0775
 3607TIP3    H235017   4.236   5.398  11.719  0.0180 -0.0813  0.3266
 3608TIP3   OH235018   6.392   1.062  12.439  0.3043 -1.0897 -0.0113
 3608TIP3    H135019   6.431   1.124  12.377 -1.7223  2.1225  1.6215
 3608TIP3    H235020   6.308   1.039  12.400 -0.2583 -0.3629  0.7353
 3609TIP3   OH235021   4.795   0.557   9.393 -0.0401 -0.2009  0.0089
 3609TIP3    H135022   4.884   0.532   9.420  0.1067 -0.4210 -0.6694
 3609TIP3    H235023   4.806   0.641   9.349 -0.3382  0.3634  0.9799
 3610TIP3   OH235024   5.506   2.696  10.051 -0.0698  0.0209  0.3320
 3610TIP3    H135025   5.565   2.746   9.994  1.5587  0.9441  2.6394
 3610TIP3    H235026   5.498   2.610  10.009 -0.7984  1.3421 -2.3803
 3611TIP3   OH235027   5.123   3.746  10.708 -0.2292  0.3671 -0.1026
 3611TIP3    H135028   5.147   3.655  10.689 -0.4695  0.1727  0.5035
 3611TIP3    H235029   5.200   3.797  10.682  0.2847 -0.1048  0.4766
 3612TIP3   OH235030   4.698   1.105   9.372  0.2250 -0.2191  0.0346
 3612TIP3    H135031   4.747   1.133   9.295  0.9877 -0.0142  0.5898
 3612TIP3    H235032   4.731   1.017   9.390  0.2936 -0.1334  0.3305
 3613TIP3   OH235033   1.715   5.884   9.049 -0.2112  0.3046  0.4920
 3613TIP3    H135034   1.760   5.968   9.052  0.9629 -0.2309 -0.8397
 3613TIP3    H235035   1.766   5.827   9.108  1.3805 -0.4954 -1.5453
 3614TIP3   OH235036   1.085   4.698  11.560 -0.2667 -0.5011 -0.3032
 3614TIP3    H135037   1.095   4.793  11.557 -1.1884 -0.3855 -0.0011
 3614TIP3    H235038   1.174   4.664  11.550 -0.0489  0.3655 -1.5305
 3615TIP3   OH235039   3.520   3.725   9.850 -0.0433 -0.2569  0.1401
 3615TIP3    H135040   3.515   3.746   9.943  3.0777  1.1899  0.1012
 3615TIP3    H235041   3.578   3.650   9.845 -2.0683 -1.8882 -0.5837
 3616TIP3   OH235042   4.398   3.292   8.320 -0.1772  0.3639 -0.2501
 3616TIP3    H135043   4.465   3.263   8.257  2.8277 -1.1262  3.2796
 3616TIP3    H235044   4.342   3.216   8.332 -0.3428  0.4265 -0.6173
 3617TIP3   OH235045   2.568   3.750  10.074  0.1384  0.2090 -0.4567
 3617TIP3    H135046   2.563   3.783   9.984  0.2846 -0.5878 -0.7607
 3617TIP3    H235047   2.503   3.802  10.122 -0.5465  0.0502 -1.1978
 3618TIP3   OH235048   4.160   1.224   9.219 -0.1692 -0.0469  0.1072
 3618TIP3    H135049   4.102   1.191   9.150 -0.9789  0.6920  0.4122
 3618TIP3    H235050   4.121   1.192   9.301 -0.4651  0.9046  0.3471
 3619TIP3   OH235051   0.504   3.588  10.870 -0.3568 -0.0234 -0.6552
 3619TIP3    H135052   0.547   3.550  10.947 -0.8959 -0.3032 -0.4882
 3619TIP3    H235053   0.564   3.657  10.840  0.3808 -0.6495 -0.6476
 3620TIP3   OH235054   0.753   3.826   9.922  0.4060  0.3319 -0.2258
 3620TIP3    H135055   0.781   3.889   9.989  0.8709 -0.1336  0.0343
 3620TIP3    H235056   0.835   3.790   9.888  0.1640  0.4366 -0.9208
 3621TIP3   OH235057   2.600   1.397  10.021 -0.3611 -0.0408 -0.1811
 3621TIP3    H135058   2.695   1.409  10.030 -0.2430 -0.2957 -0.9978
 3621TIP3    H235059   2.575   1.344  10.096  0.0098  0.6783  0.4660
 3622TIP3   OH235060   0.846   5.139   9.024 -0.1638  0.3462  0.1420
 3622TIP3    H135061   0.809   5.215   9.069  1.3138  1.3833 -0.3005
 3622TIP3    H235062   0.857   5.168   8.933  0.3442 -0.4176 -0.0545
 3623TIP3   OH235063   5.693   0.860   9.282  0.1344 -0.3593 -0.2524
 3623TIP3    H135064   5.698   0.770   9.314 -1.1600 -0.8103 -1.2676
 3623TIP3    H235065   5.687   0.913   9.362  1.5908 -1.0788  0.3848
 3624TIP3   OH235066   5.038   2.569   9.061  0.3316 -0.0476  0.1448
 3624TIP3    H135067   5.018   2.662   9.052  0.8508 -0.0820 -1.8360
 3624TIP3    H235068   5.003   2.545   9.147 -0.7519  1.7188  0.2458
 3625TIP3   OH235069   6.000   2.249  10.328 -0.3472  0.0925 -0.0384
 3625TIP3    H135070   6.018   2.162  10.366  1.3407  0.3042 -0.2811
 3625TIP3    H235071   5.967   2.300  10.402  1.1340 -0.0360  0.7504
 3626TIP3   OH235072   1.186   2.162  11.087  0.1321 -0.0841  0.4357
 3626TIP3    H135073   1.254   2.099  11.110 -0.8200 -0.8735  1.1366
 3626TIP3    H235074   1.208   2.240  11.138  1.5722  0.3479 -0.7785
 3627TIP3   OH235075   2.824   6.136  11.711 -0.3140 -0.1686  0.0769
 3627TIP3    H135076   2.826   6.064  11.774  0.2686 -0.0757  0.1724
 3627TIP3    H235077   2.907   6.129  11.665  0.1471  0.9698  0.6957
 3628TIP3   OH235078   4.573   2.547   9.792 -0.1784 -0.2305  0.3650
 3628TIP3    H135079   4.580   2.493   9.713 -1.3119 -1.9411  1.3599
 3628TIP3    H235080   4.560   2.484   9.863  0.6500  1.2661  1.9103
 3629TIP3   OH235081   5.805   4.119  11.241 -0.3430 -0.1974 -0.2262
 3629TIP3    H135082   5.775   4.037  11.281 -0.2619 -0.3341 -0.4474
 3629TIP3    H235083   5.787   4.108  11.148 -2.2773  0.8493 -0.0373
 3630TIP3   OH235084   2.149   4.527   9.831  0.1730 -0.1689  0.4908
 3630TIP3    H135085   2.171   4.544   9.922 -2.7713 -1.4566  1.5939
 3630TIP3    H235086   2.143   4.431   9.825 -0.8292 -0.0646 -0.6974
 3631TIP3   OH235087   2.928   1.504   8.891 -0.2494 -0.9319 -0.1592
 3631TIP3    H135088   2.973   1.426   8.858  2.4556 -0.7825  2.7327
 3631TIP3    H235089   2.988   1.542   8.955 -2.3771  2.3656  0.1483
 3632TIP3   OH235090   1.575   6.500  10.308 -0.0027 -0.7706 -0.2098
 3632TIP3    H135091   1.603   6.428  10.365 -3.2141 -1.0603  1.1819
 3632TIP3    H235092   1.622   6.484  10.226  0.7055 -3.4635  0.6058
 3633TIP3   OH235093   5.272   0.615   9.660 -0.4812 -0.6127 -0.7217
 3633TIP3    H135094   5.257   0.526   9.694  0.7087 -1.0542 -1.3066
 3633TIP3    H235095   5.318   0.660   9.732 -2.2414 -0.0348  0.0911
 3634TIP3   OH235096   1.867   1.266  12.015 -0.0672 -0.0197 -0.2567
 3634TIP3    H135097   1.815   1.228  12.087 -0.0356 -0.9540 -0.7142
 3634TIP3    H235098   1.945   1.211  12.010 -0.0140  0.1129 -0.9315
 3635TIP3   OH235099   1.752   0.545  11.087 -0.6536 -0.0662 -0.4267
 3635TIP3    H135100   1.729   0.510  11.173 -0.0610  1.8748  0.5943
 3635TIP3    H235101   1.674   0.532  11.034 -1.3753 -0.4726  0.6951
 3636TIP3   OH235102   6.374   6.254  10.096  0.1528  0.8080  0.5083
 3636TIP3    H135103   6.363   6.325  10.033  0.6850 -0.6627 -1.3419
 3636TIP3    H235104   6.467   6.233  10.093 -0.1996 -0.8978 -0.1359
 3637TIP3   OH235105   0.298   3.425   9.561  0.4240  0.2456 -0.0755
 3637TIP3    H135106   0.277   3.508   9.519  0.2973 -0.3104 -1.1309
 3637TIP3    H235107   0.357   3.449   9.633  1.4401  1.1276 -1.1644
 3638TIP3   OH235108   4.834   3.592  11.371 -0.0292  0.1734  0.2862
 3638TIP3    H135109   4.921   3.610  11.338  0.2435 -1.9700 -0.2922
 3638TIP3    H235110   4.793   3.539  11.303 -1.5558  0.5630  0.8578
 3639TIP3   OH235111   2.931   6.614  10.850 -0.3780 -0.6524 -0.0615
 3639TIP3    H135112   2.903   6.621  10.759 -0.4039 -0.5665 -0.0474
 3639TIP3    H235113   2.912   6.700  10.888 -2.6121 -1.4001  0.6573
 3640TIP3   OH235114   3.958   3.343  11.024 -0.0246 -0.4139 -0.3311
 3640TIP3    H135115   3.906   3.405  10.973 -0.3421 -0.0970  0.3584
 3640TIP3    H235116   3.919   3.345  11.111  1.6063  0.3997  0.4283
 3641TIP3   OH235117   2.348   4.984  12.215  0.5251 -0.0823  0.3875
 3641TIP3    H135118   2.347   4.904  12.162  0.6754  0.6838 -0.8245
 3641TIP3    H235119   2.257   4.994  12.245  0.6625 -1.1048  1.2124
 3642TIP3   OH235120   4.428   5.966   9.950 -0.2849 -0.1344 -0.3486
 3642TIP3    H135121   4.458   5.987   9.862  0.5684 -0.4513 -0.1487
 3642TIP3    H235122   4.476   6.027  10.006  1.6961 -2.0446  0.1833
 3643TIP3   OH235123   0.644   4.546  11.204  0.0890  0.0852  0.3221
 3643TIP3    H135124   0.550   4.536  11.186  0.2002 -1.9583  0.6687
 3643TIP3    H235125   0.653   4.529  11.297  0.6548  1.7924  0.6173
 3644TIP3   OH235126   3.691   0.095   8.859  0.2752 -0.0664  0.9466
 3644TIP3    H135127   3.664   0.073   8.947  1.9416  1.0379  1.7941
 3644TIP3    H235128   3.619   0.147   8.823 -0.4978 -0.6955  1.5630
 3645TIP3   OH235129   3.108   2.831  11.546  0.6535  0.2995  0.1644
 3645TIP3    H135130   3.021   2.845  11.583  1.1709  0.1991  1.4712
 3645TIP3    H235131   3.110   2.886  11.468 -0.4772  0.5194  0.2758
 3646TIP3   OH235132   3.061   3.746   9.889 -0.4135  0.0036 -0.4476
 3646TIP3    H135133   3.128   3.715   9.950 -0.8508  0.3062  0.1995
 3646TIP3    H235134   3.089   3.834   9.865 -1.4960  0.8503  1.2456
 3647TIP3   OH235135   5.086   2.016  10.147  0.0743  0.4963  0.2106
 3647TIP3    H135136   5.002   2.063  10.146 -0.2958 -0.0612 -2.0707
 3647TIP3    H235137   5.061   1.924  10.138  0.9029  0.3618 -0.9251
 3648TIP3   OH235138   0.837   1.820  11.933  0.1623  0.5256  0.3537
 3648TIP3    H135139   0.827   1.751  11.999  0.5818 -0.0334 -0.1604
 3648TIP3    H235140   0.931   1.825  11.917  0.0026 -0.0835 -0.9537
 3649TIP3   OH235141   1.097   6.213  11.640  0.4490  0.6045 -0.2023
 3649TIP3    H135142   1.004   6.232  11.626  0.4947  0.5170 -0.6261
 3649TIP3    H235143   1.140   6.246  11.562  0.4572 -1.8851 -1.3412
 3650TIP3   OH235144   6.609   3.185   9.207 -0.2362 -0.5108  0.3394
 3650TIP3    H135145   6.565   3.248   9.264 -0.0537 -0.0070 -0.0658
 3650TIP3    H235146   6.678   3.236   9.164  0.6599 -1.2481  0.8624
 3651TIP3   OH235147   0.422   5.341  11.079 -0.4324 -0.1270 -0.0308
 3651TIP3    H135148   0.460   5.327  11.166  1.6380 -2.0734 -1.1268
 3651TIP3    H235149   0.406   5.435  11.074  0.5239  0.2007  2.0186
 3652TIP3   OH235150   0.809   1.431  11.886 -0.3554  0.3410  0.2607
 3652TIP3    H135151   0.840   1.509  11.839  1.6081  0.5843  1.7817
 3652TIP3    H235152   0.736   1.462  11.939 -2.0869  0.2291 -1.9225
 3653TIP3   OH235153   5.606   4.888  11.157 -0.5026  0.5342  0.1933
 3653TIP3    H135154   5.690   4.907  11.198 -0.5328 -0.4196  0.7021
 3653TIP3    H235155   5.618   4.803  11.115 -1.0111  0.6990 -0.2934
 3654TIP3   OH235156   2.132   1.753   9.399  0.3979 -0.3481  0.4690
 3654TIP3    H135157   2.183   1.767   9.319 -1.0561  1.1620 -0.2385
 3654TIP3    H235158   2.052   1.710   9.370 -0.6920  1.3118  0.8814
 3655TIP3   OH235159   2.387   5.826  11.066 -0.0863 -0.1626  0.3408
 3655TIP3    H135160   2.355   5.737  11.053 -0.1236 -0.1215  0.1413
 3655TIP3    H235161   2.451   5.839  10.996 -1.4024  0.5957 -0.7845
 3656TIP3   OH235162   2.545   3.236  11.030  0.3946  0.0820 -0.6980
 3656TIP3    H135163   2.547   3.141  11.019  0.6377 -0.0584  0.4344
 3656TIP3    H235164   2.458   3.262  10.999 -1.1221 -0.9898  2.2513
 3657TIP3   OH235165   2.760   0.302  10.281  0.2216 -0.5698  0.2801
 3657TIP3    H135166   2.846   0.262  10.292  0.3394 -0.3019  0.3537
 3657TIP3    H235167   2.744   0.348  10.364  0.4707  0.2537 -0.1241
 3658TIP3   OH235168   1.735   6.006  10.376 -0.2444  0.2485  0.5158
 3658TIP3    H135169   1.804   6.072  10.388  0.4971 -0.4030 -0.0399
 3658TIP3    H235170   1.783   5.924  10.364 -0.9607  0.2154 -3.0220
 3659TIP3   OH235171   6.454   0.334   9.277  0.4277  0.1628 -0.1210
 3659TIP3    H135172   6.502   0.382   9.345 -2.2104  1.5922  0.8662
 3659TIP3    H235173   6.375   0.385   9.263 -1.1497 -2.3842 -1.1749
 3660TIP3   OH235174   5.914   5.951  11.800 -0.3596  0.4885 -0.0997
 3660TIP3    H135175   5.841   6.013  11.803 -0.9429 -0.1739 -0.3174
 3660TIP3    H235176   5.964   5.978  11.723  0.1251  1.4881  0.5555
 3661TIP3   OH235177   2.823   6.282  10.087 -0.6655 -0.0066  0.1809
 3661TIP3    H135178   2.748   6.223  10.088 -1.8656  1.4643 -0.6950
 3661TIP3    H235179   2.866   6.266  10.171 -1.5421 -1.3708  0.4045
 3662TIP3   OH235180   0.138   3.322  10.288  0.6243 -0.2969 -0.6086
 3662TIP3    H135181   0.195   3.372  10.230  1.3375  0.6594  0.8461
 3662TIP3    H235182   0.054   3.318  10.242  0.5802  2.1440 -0.8916
 3663TIP3   OH235183   5.198   0.038   9.083  0.5737  0.6920  0.0064
 3663TIP3    H135184   5.243  -0.020   9.144  0.1109  0.2500 -0.0632
 3663TIP3    H235185   5.210  -0.002   8.997 -0.7375  0.0344  0.0965
 3664TIP3   OH235186   2.388   4.594  10.751 -0.0454  0.4352  0.4052
 3664TIP3    H135187   2.481   4.613  10.761  0.4923 -1.3906 -0.7128
 3664TIP3    H235188   2.349   4.678  10.726  1.7276  0.7132 -1.6449
 3665TIP3   OH235189   4.583   2.932  11.274  0.0400 -0.3279  0.3575
 3665TIP3    H135190   4.578   2.986  11.195  2.7027 -1.5265 -0.7634
 3665TIP3    H235191   4.579   2.842  11.241  0.5173 -0.8505  1.6615
 3666TIP3   OH235192   3.087   2.323   9.453  0.3108  0.2217 -0.1241
 3666TIP3    H135193   3.017   2.274   9.496  1.7582 -0.8079  1.1932
 3666TIP3    H235194   3.042   2.392   9.405 -1.5794 -0.2593  0.8479
 3667TIP3   OH235195   3.032   3.655  10.300 -0.0914 -0.0515  0.0669
 3667TIP3    H135196   2.937   3.649  10.286 -0.0497  0.9897 -0.6877
 3667TIP3    H235197   3.041   3.658  10.396 -0.6927 -1.8300  0.2259
 3668TIP3   OH235198   5.924   3.502  10.253 -0.3634  0.2811 -0.1735
 3668TIP3    H135199   5.879   3.437  10.198  1.0008 -0.4870 -0.4406
 3668TIP3    H235200   5.990   3.451  10.300  1.2283  1.5632 -0.9193
 3669TIP3   OH235201   4.322   2.603  11.793 -0.3042 -0.4623  0.7957
 3669TIP3    H135202   4.405   2.602  11.744 -1.4393  0.8618 -1.2839
 3669TIP3    H235203   4.260   2.557  11.737 -1.2711 -0.4024  1.7794
 3670TIP3   OH235204   1.636   4.923   9.464  0.1902 -0.6155 -0.2363
 3670TIP3    H135205   1.664   4.904   9.375  0.4880 -0.4713 -0.1735
 3670TIP3    H235206   1.663   5.014   9.479  0.4512 -0.7469  0.1159
 3671TIP3   OH235207   1.168   2.211  10.828  0.2131 -0.0042  0.5526
 3671TIP3    H135208   1.170   2.129  10.779 -1.3833  0.9008 -1.1890
 3671TIP3    H235209   1.169   2.185  10.920 -0.9116 -2.0130  0.0397
 3672TIP3   OH235210   5.026   5.557  11.457  0.3922  0.1654 -0.4030
 3672TIP3    H135211   5.020   5.485  11.394 -1.2835 -0.8160  0.8023
 3672TIP3    H235212   5.110   5.543  11.501  0.0036 -1.2009 -0.0525
 3673TIP3   OH235213   4.555   2.345   9.972 -0.6865 -0.0694  0.0669
 3673TIP3    H135214   4.471   2.359  10.015  0.0234  0.2856  1.3839
 3673TIP3    H235215   4.566   2.250   9.971 -0.6015 -0.0684  0.8966
 3674TIP3   OH235216   5.859   1.579  11.935 -0.6025 -0.0241 -0.5798
 3674TIP3    H135217   5.854   1.582  11.840  2.2573  2.3039 -0.7653
 3674TIP3    H235218   5.880   1.488  11.955 -1.7606 -0.6632 -2.0828
 3675TIP3   OH235219   0.159   6.430  11.843  0.1597  0.3108  0.6567
 3675TIP3    H135220   0.169   6.371  11.917  2.7472  0.4839  0.5447
 3675TIP3    H235221   0.165   6.518  11.881  2.6432  0.4038  0.2338
 3676TIP3   OH235222   5.249   3.627  11.467 -0.0219  0.0834  0.2533
 3676TIP3    H135223   5.256   3.548  11.414  2.5535  0.5861 -0.2622
 3676TIP3    H235224   5.227   3.696  11.405 -2.4481 -0.1454  0.7266
 3677TIP3   OH235225   6.171   5.467  11.276  0.2817  0.5735  0.1513
 3677TIP3    H135226   6.159   5.526  11.202 -1.2840  0.4206  0.2624
 3677TIP3    H235227   6.134   5.515  11.350  0.8848  0.2838  0.6503
 3678TIP3   OH235228   1.562   5.515  11.646 -0.2092  0.0851 -0.1822
 3678TIP3    H135229   1.619   5.591  11.662  0.7330 -0.4365 -0.9408
 3678TIP3    H235230   1.611   5.462  11.584 -1.1940 -0.7851 -0.2315
 3679TIP3   OH235231   3.332   3.573  12.010 -0.3166  0.5471  0.2593
 3679TIP3    H135232   3.362   3.510  12.075 -0.1364  1.1690  0.7978
 3679TIP3    H235233   3.392   3.562  11.936 -2.0860 -1.9776 -0.9319
 3680TIP3   OH235234   3.665   0.070  10.757 -0.2573 -0.3350  0.1600
 3680TIP3    H135235   3.708   0.059  10.842 -1.7813 -0.7589  0.9048
 3680TIP3    H235236   3.623  -0.014  10.741  1.1204 -0.7138 -1.6803
 3681TIP3   OH235237   5.476   3.806  10.398  0.1441  0.0464  0.4072
 3681TIP3    H135238   5.456   3.874  10.462  1.8532  0.1887  0.8347
 3681TIP3    H235239   5.564   3.827  10.367  0.0384 -1.0270 -0.6977
 3682TIP3   OH235240   4.895   2.817   9.031 -0.4501  0.1106  0.3424
 3682TIP3    H135241   4.980   2.858   9.040 -1.2629  1.6383  1.4834
 3682TIP3    H235242   4.851   2.866   8.961 -0.3108 -0.8745 -0.4693
 3683TIP3   OH235243   1.779   5.169   9.688  0.1615  0.0115  0.2662
 3683TIP3    H135244   1.848   5.136   9.631 -1.1279  0.2729 -1.5461
 3683TIP3    H235245   1.702   5.174   9.632 -1.1419  0.5177  1.9950
 3684TIP3   OH235246   4.199   3.470  10.780 -0.1520 -0.3024  0.2798
 3684TIP3    H135247   4.272   3.423  10.820  0.2824 -1.1501 -1.4311
 3684TIP3    H235248   4.178   3.539  10.843 -0.0277 -2.0274  2.3170
 3685TIP3   OH235249   3.586   2.613   8.937  0.6235  0.3111  0.0259
 3685TIP3    H135250   3.640   2.602   8.858 -0.3422  0.6655 -0.6990
 3685TIP3    H235251   3.528   2.686   8.917  0.1297  0.1879  0.9420
 3686TIP3   OH235252   3.136   2.720   9.300 -0.4590  0.4035  0.5824
 3686TIP3    H135253   3.166   2.700   9.212 -0.5052  0.1755  0.6185
 3686TIP3    H235254   3.132   2.816   9.303 -1.8796  0.3884 -0.1436
 3687TIP3   OH235255   0.326   3.463  11.952 -0.1342 -0.1309  0.0155
 3687TIP3    H135256   0.239   3.450  11.914 -0.2435 -0.8773  0.5074
 3687TIP3    H235257   0.310   3.485  12.044  0.1585  1.0049 -0.1802
 3688TIP3   OH235258   1.121   5.091   8.895 -0.1005  0.1533 -0.2057
 3688TIP3    H135259   1.152   5.002   8.914  0.3771  0.6035  1.2467
 3688TIP3    H235260   1.027   5.080   8.878 -0.2635 -0.5054  1.0096
 3689TIP3   OH235261   4.322   5.992   9.290  0.1522  0.2457 -0.0160
 3689TIP3    H135262   4.385   5.923   9.268  1.3187  1.4596 -0.6120
 3689TIP3    H235263   4.272   6.005   9.210 -0.7240 -0.5345  0.3791
 3690TIP3   OH235264   2.459   1.159   9.422 -0.1316  0.2097 -0.9074
 3690TIP3    H135265   2.447   1.148   9.516 -0.2905  1.0857 -0.8232
 3690TIP3    H235266   2.379   1.125   9.383 -0.9094  1.6496 -0.6092
 3691TIP3   OH235267   5.584   6.352   9.050  0.3217 -0.2390  0.4621
 3691TIP3    H135268   5.556   6.284   9.110  1.8600 -2.5942 -1.3126
 3691TIP3    H235269   5.515   6.357   8.984 -0.5929  1.2113  1.4574
 3692TIP3   OH235270   2.371   4.484   9.616 -0.3174  1.1142  0.0176
 3692TIP3    H135271   2.306   4.495   9.546 -0.6996 -0.5035  0.0680
 3692TIP3    H235272   2.320   4.489   9.697 -0.5139 -0.6898  0.0426
 3693TIP3   OH235273   2.653   4.622  10.857 -0.3801  0.8211  0.2333
 3693TIP3    H135274   2.647   4.685  10.929  3.2615  1.8287 -0.1663
 3693TIP3    H235275   2.652   4.537  10.900  1.5132  1.3930  1.5689
 3694TIP3   OH235276   4.169   0.031  10.703 -0.3918  0.5589  0.4273
 3694TIP3    H135277   4.193   0.095  10.771 -1.0024  1.1307  0.1165
 3694TIP3    H235278   4.129  -0.041  10.751  0.7648  0.1709  0.8313
 3695TIP3   OH235279   4.275   1.335  10.395 -0.2179  0.6344  0.6408
 3695TIP3    H135280   4.225   1.413  10.372 -0.8021 -0.0951 -0.6347
 3695TIP3    H235281   4.351   1.337  10.336 -0.2647  0.2134  0.5638
 3696TIP3   OH235282   6.293   5.928  11.644 -0.0233 -0.0147 -0.2373
 3696TIP3    H135283   6.199   5.945  11.650  0.3605  2.2113  0.1564
 3696TIP3    H235284   6.313   5.877  11.723 -1.0380 -1.3949 -0.8344
 3697TIP3   OH235285   1.961   0.330  11.518  0.2536 -0.0849 -0.1810
 3697TIP3    H135286   1.954   0.246  11.564 -0.5190 -1.1862 -2.2144
 3697TIP3    H235287   1.873   0.348  11.486  0.2937  1.7953  0.6026
 3698TIP3   OH235288   4.462   6.631  10.010 -0.4256 -0.4467  0.3768
 3698TIP3    H135289   4.557   6.618  10.005 -0.3497  0.4542 -1.3564
 3698TIP3    H235290   4.425   6.561   9.956 -0.4610  1.4682 -2.2653
 3699TIP3   OH235291   3.422   4.869  10.659  0.1418  0.1455  0.0432
 3699TIP3    H135292   3.395   4.940  10.717 -0.1130 -0.1690  0.3119
 3699TIP3    H235293   3.449   4.912  10.578 -1.1549  0.4607 -0.2311
 3700TIP3   OH235294   0.896   1.669   9.912  0.0147 -0.2242  0.1693
 3700TIP3    H135295   0.808   1.641   9.937 -0.7261  1.3520 -0.5240
 3700TIP3    H235296   0.886   1.706   9.824  0.9061  1.9055  0.8778
 3701TIP3   OH235297   1.898   4.883  12.520 -0.4086  0.1682 -0.4142
 3701TIP3    H135298   1.843   4.960  12.514 -0.8850 -0.1325 -0.0348
 3701TIP3    H235299   1.913   4.871  12.614  0.1866  0.1621 -0.5015
 3702TIP3   OH235300   6.220   4.646   9.056 -0.1873 -0.1560 -0.2386
 3702TIP3    H135301   6.195   4.575   8.997 -0.7664  0.3845 -0.6507
 3702TIP3    H235302   6.137   4.689   9.079  0.2786  1.2078 -1.0388
 3703TIP3   OH235303   3.770   3.300   9.788  0.1364 -0.5920  0.1304
 3703TIP3    H135304   3.865   3.308   9.789  0.0700  0.2918  0.2360
 3703TIP3    H235305   3.754   3.207   9.775  1.0248 -0.5402 -1.6588
 3704TIP3   OH235306   5.126   1.201  11.407 -0.2326  0.1364 -0.1254
 3704TIP3    H135307   5.084   1.133  11.460  1.5499 -0.9415  0.0075
 3704TIP3    H235308   5.187   1.243  11.468  1.0285 -0.3634 -1.0025
 3705TIP3   OH235309   5.919   5.344   8.520  0.2839  0.0123 -0.3691
 3705TIP3    H135310   5.906   5.344   8.425  0.4370 -0.7287 -0.3969
 3705TIP3    H235311   6.008   5.312   8.533  0.9732  1.9272 -0.0387
 3706TIP3   OH235312   4.963   1.543  10.086  0.3023  0.0490 -0.3381
 3706TIP3    H135313   4.979   1.507   9.999  1.9904 -1.3655  0.5017
 3706TIP3    H235314   5.034   1.507  10.140  0.2646  2.2060  1.2622
 3707TIP3   OH235315   3.763   6.240  10.453  0.3733 -0.2768  0.1267
 3707TIP3    H135316   3.689   6.300  10.460  0.7159  0.2164 -0.4585
 3707TIP3    H235317   3.730   6.166  10.402  0.5214  0.3395 -0.8869
 3708TIP3   OH235318   3.088   2.925   9.517 -0.0372 -0.3859  0.3287
 3708TIP3    H135319   3.032   2.940   9.594 -0.3310  0.3726 -0.0226
 3708TIP3    H235320   3.124   2.837   9.531  0.0118 -0.2117  1.3919
 3709TIP3   OH235321   1.634   3.490  10.430  0.1378 -0.0052 -0.1342
 3709TIP3    H135322   1.710   3.497  10.372  0.3682 -0.0372  0.1668
 3709TIP3    H235323   1.656   3.421  10.492 -1.8371 -3.2197 -2.6581
 3710TIP3   OH235324   6.398   3.915  10.600 -0.1523 -0.4160  0.0685
 3710TIP3    H135325   6.415   3.940  10.509 -0.4910 -0.0386  0.1042
 3710TIP3    H235326   6.480   3.931  10.646 -0.2637  0.3295  0.0213
 3711TIP3   OH235327   5.594   2.146   8.989  0.5023  0.4105  0.5697
 3711TIP3    H135328   5.547   2.080   8.938  0.3367  0.7523  0.2709
 3711TIP3    H235329   5.542   2.226   8.978  1.4668  0.9430 -0.2550
 3712TIP3   OH235330   5.607   4.021   9.841 -0.1185  0.2075 -0.4018
 3712TIP3    H135331   5.526   4.071   9.853 -0.6662 -0.8648  0.5672
 3712TIP3    H235332   5.650   4.063   9.766 -0.9307  1.6114 -0.1201
 3713TIP3   OH235333   0.869   4.440  11.809 -0.0049 -0.1506  0.1994
 3713TIP3    H135334   0.936   4.476  11.866  0.5132  0.7025 -0.9024
 3713TIP3    H235335   0.885   4.481  11.724 -3.0309  1.5848  0.3012
 3714TIP3   OH235336   5.335   0.959  10.253  0.0869  0.1328 -0.2830
 3714TIP3    H135337   5.421   0.921  10.270  0.3756  0.7124 -0.4241
 3714TIP3    H235338   5.352   1.029  10.190 -0.5109  0.1425 -0.4382
 3715TIP3   OH235339   2.720   2.795  10.409 -0.3188 -0.2889  0.4797
 3715TIP3    H135340   2.654   2.835  10.353 -0.8080 -0.2858  1.0430
 3715TIP3    H235341   2.767   2.735  10.352  0.4062  1.0525 -0.3742
 3716TIP3   OH235342   2.379   5.149  10.299  0.5817 -0.0195  0.0068
 3716TIP3    H135343   2.432   5.097  10.359  1.1870 -0.6563 -1.0419
 3716TIP3    H235344   2.414   5.129  10.212  2.2348  3.6460 -0.3825
 3717TIP3   OH235345   6.309   3.481  10.091 -0.1769  0.1733 -0.2208
 3717TIP3    H135346   6.388   3.493  10.143  0.5287  0.1621 -1.2539
 3717TIP3    H235347   6.259   3.415  10.138  1.8009 -2.0414 -1.0494
 3718TIP3   OH235348   1.732   2.246   9.869  0.4027 -0.0909  0.1619
 3718TIP3    H135349   1.754   2.209   9.955 -3.1357 -1.9916  0.4460
 3718TIP3    H235350   1.699   2.333   9.888  1.5268  0.3071  0.4112
 3719TIP3   OH235351   3.687   0.940  11.357  0.0120 -0.0675  0.1457
 3719TIP3    H135352   3.603   0.897  11.338 -0.1796 -0.3488  1.5441
 3719TIP3    H235353   3.672   1.031  11.333 -0.7465 -0.0900  0.4863
 3720TIP3   OH235354   3.559   1.389  10.358  0.7441  0.3460 -0.6334
 3720TIP3    H135355   3.533   1.481  10.361  2.2687  0.8289 -1.1914
 3720TIP3    H235356   3.477   1.340  10.358 -0.0876  1.7086 -0.5358
 3721TIP3   OH235357   4.504   1.324  10.259  0.1721  0.0547 -0.1392
 3721TIP3    H135358   4.541   1.236  10.266  0.7453  0.3149  0.1627
 3721TIP3    H235359   4.567   1.372  10.204 -0.5302  0.0634 -0.9537
 3722TIP3   OH235360   2.046   0.302   9.821 -0.6046  0.1206 -0.1024
 3722TIP3    H135361   1.954   0.285   9.800 -0.4556 -1.0039  0.1145
 3722TIP3    H235362   2.093   0.225   9.790  0.3669  0.9371 -0.7572
 3723TIP3   OH235363   6.615   0.944  10.273  0.2085  0.2653  0.1677
 3723TIP3    H135364   6.575   0.944  10.186  1.1706  2.5144 -0.3496
 3723TIP3    H235365   6.542   0.956  10.333 -0.3944 -0.6248 -0.3778
 3724TIP3   OH235366   5.857   2.248  12.166 -0.3165 -0.2804  0.2771
 3724TIP3    H135367   5.775   2.295  12.178  0.2035  0.3690  1.5196
 3724TIP3    H235368   5.921   2.299  12.217  0.8376 -0.7980 -0.6181
 3725TIP3   OH235369   5.685   6.215  11.184 -0.3747 -0.6420  0.7239
 3725TIP3    H135370   5.752   6.192  11.120  0.2242  0.4537  0.9256
 3725TIP3    H235371   5.608   6.165  11.158  0.2905 -1.3354  0.0279
 3726TIP3   OH235372   2.430   1.289  11.346 -0.2865 -0.3200 -0.2087
 3726TIP3    H135373   2.404   1.228  11.277 -1.9426  1.3440 -1.1654
 3726TIP3    H235374   2.361   1.355  11.347  0.4395  0.5109  2.0961
 3727TIP3   OH235375   2.131   3.448  11.443 -0.2716 -0.4382 -0.2140
 3727TIP3    H135376   2.195   3.506  11.484  1.4343 -1.9484 -0.6070
 3727TIP3    H235377   2.116   3.379  11.508 -2.6008  0.5911  0.4261
 3728TIP3   OH235378   2.501   4.933  10.845 -0.1080  0.5519 -0.2468
 3728TIP3    H135379   2.460   5.002  10.897 -1.0742 -0.5827  0.5451
 3728TIP3    H235380   2.437   4.913  10.777 -0.7021 -0.8811  0.6927
 3729TIP3   OH235381   2.718   5.957  10.401 -0.4903  0.0813  0.2098
 3729TIP3    H135382   2.673   5.883  10.361 -0.0108  0.1563 -0.4943
 3729TIP3    H235383   2.675   5.970  10.485 -0.6550 -0.9209  0.2845
 3730TIP3   OH235384   2.326   2.368  10.987 -0.2299  0.2610 -0.2521
 3730TIP3    H135385   2.371   2.289  10.956 -2.0637 -0.9564  0.0057
 3730TIP3    H235386   2.236   2.358  10.956 -0.4457  2.4488 -0.4995
 3731TIP3   OH235387   6.254   2.935  11.589 -0.1004  0.3942 -0.1083
 3731TIP3    H135388   6.234   2.843  11.607  0.6953  0.1947 -0.1998
 3731TIP3    H235389   6.182   2.983  11.628 -0.5791 -0.2785 -0.1463
 3732TIP3   OH235390   6.355   0.420   8.302 -0.6404 -0.7094 -0.0480
 3732TIP3    H135391   6.363   0.501   8.250 -0.4688 -0.5535  0.2172
 3732TIP3    H235392   6.283   0.437   8.361 -0.8971 -0.9235 -0.2973
 3733TIP3   OH235393   6.595   4.569  12.343  0.0876  0.1079  0.0403
 3733TIP3    H135394   6.674   4.519  12.322 -0.0419 -0.0044 -0.1776
 3733TIP3    H235395   6.609   4.655  12.303 -0.5270 -0.3731 -1.2675
 3734TIP3   OH235396   6.143   1.150  12.189 -0.0033  0.6896  0.2646
 3734TIP3    H135397   6.057   1.124  12.222 -0.6432  0.5690 -1.3775
 3734TIP3    H235398   6.171   1.222  12.246 -0.3554 -0.4394  1.9276
 3735TIP3   OH235399   6.660   0.332   9.731  0.5012  0.3155  0.3588
 3735TIP3    H135400   6.690   0.398   9.794  0.3854  0.9950 -0.2913
 3735TIP3    H235401   6.667   0.375   9.646  0.3799 -0.4991 -0.0697
 3736TIP3   OH235402   5.431   1.137   8.416  0.1791  0.4164 -0.1876
 3736TIP3    H135403   5.359   1.138   8.479 -0.0429  0.7755 -0.4366
 3736TIP3    H235404   5.491   1.070   8.448 -1.9520 -2.5190 -1.8253
 3737TIP3   OH235405   0.551   1.397   9.811 -0.2003 -0.6192  0.0169
 3737TIP3    H135406   0.625   1.455   9.828  0.5359 -1.6936  0.5571
 3737TIP3    H235407   0.579   1.342   9.739 -0.6036 -0.8303  0.0165
 3738TIP3   OH235408   6.008   5.470   9.052 -0.1113  0.2227  0.0585
 3738TIP3    H135409   6.013   5.430   8.965  0.3933 -0.9575  0.6014
 3738TIP3    H235410   5.924   5.516   9.052  0.2979  1.0326 -1.3676
 3739TIP3   OH235411   4.331   3.892  10.789  0.3060 -0.2103  0.4346
 3739TIP3    H135412   4.247   3.882  10.745  0.7984 -1.7570 -0.1890
 3739TIP3    H235413   4.382   3.947  10.731 -0.3955  1.1399  1.0392
 3740TIP3   OH235414   2.446   5.549  11.600 -0.1377 -0.4993 -0.0313
 3740TIP3    H135415   2.469   5.484  11.667  1.3932  1.4173  1.4000
 3740TIP3    H235416   2.440   5.632  11.647 -2.2889  0.4447 -1.7651
 3741TIP3   OH235417   3.467   2.278  12.016  0.5250  0.3779 -0.0203
 3741TIP3    H135418   3.407   2.352  12.017  0.7533  0.5761 -0.6138
 3741TIP3    H235419   3.420   2.209  11.968  1.0956  0.8236 -1.2534
 3742TIP3   OH235420   5.090   3.317  11.025 -0.5513 -0.0888  0.2703
 3742TIP3    H135421   5.186   3.312  11.021 -0.6017 -0.2142 -1.4592
 3742TIP3    H235422   5.065   3.243  11.081  0.3747  0.4426  1.4422
 3743TIP3   OH235423   2.940   0.416   9.209 -0.1193 -0.3540 -0.5053
 3743TIP3    H135424   2.985   0.386   9.289 -1.5234 -0.6639  0.2051
 3743TIP3    H235425   2.862   0.360   9.203  0.6056 -1.2310 -2.8486
 3744TIP3   OH235426   3.004   5.129  11.528  0.2275 -0.0887 -0.6169
 3744TIP3    H135427   2.995   5.082  11.611 -0.9286 -2.3590 -1.9055
 3744TIP3    H235428   3.064   5.201  11.547  0.0401 -0.5456  2.1461
 3745TIP3   OH235429   3.980   3.898  11.460 -0.4130  0.1043  0.2792
 3745TIP3    H135430   4.068   3.888  11.423 -0.7491 -1.3378 -0.1864
 3745TIP3    H235431   3.921   3.886  11.386 -1.0232  0.0312  0.7674
 3746TIP3   OH235432   1.467   3.890   9.319 -0.0226 -0.6619 -0.2013
 3746TIP3    H135433   1.516   3.841   9.252  0.6135  0.5139 -0.6323
 3746TIP3    H235434   1.521   3.883   9.397  1.8125  1.9901 -1.0763
 3747TIP3   OH235435   2.479   1.527   8.658 -0.1612  0.3784 -0.3588
 3747TIP3    H135436   2.434   1.487   8.583 -0.5718 -1.1841  0.6689
 3747TIP3    H235437   2.557   1.472   8.670 -1.3569 -0.9637  1.8392
 3748TIP3   OH235438   3.995   1.376   9.738  0.3987  0.1373 -0.1164
 3748TIP3    H135439   3.985   1.384   9.833  1.3045  0.6824 -0.0638
 3748TIP3    H235440   4.041   1.293   9.725  0.5862  0.2338 -0.0630
 3749TIP3   OH235441   0.309   4.050  12.379 -0.1870 -0.9874  0.0081
 3749TIP3    H135442   0.331   4.143  12.379 -0.7786 -0.8177  1.2544
 3749TIP3    H235443   0.356   4.014  12.455  0.5320 -1.8548 -0.8099
 3750TIP3   OH235444   3.829   5.378   9.038  0.3046 -0.2973 -0.1330
 3750TIP3    H135445   3.776   5.458   9.029  0.8456 -0.1526 -2.5817
 3750TIP3    H235446   3.802   5.341   9.123 -0.3092  2.2017  0.8530
 3751TIP3   OH235447   6.657   1.338  11.578 -0.1001  0.0606  0.2579
 3751TIP3    H135448   6.602   1.394  11.523  0.8028 -0.5222 -1.2929
 3751TIP3    H235449   6.674   1.261  11.524  1.8067  0.0012  0.8932
 3752TIP3   OH235450   4.523   3.043  10.558  0.1244  0.2148  0.0945
 3752TIP3    H135451   4.556   3.049  10.469  0.0848  0.1410  0.0753
 3752TIP3    H235452   4.429   3.054  10.550 -0.5107 -3.8940 -0.3614
 3753TIP3   OH235453   0.836   6.327  11.626 -0.0864 -0.3655 -0.0711
 3753TIP3    H135454   0.783   6.271  11.568 -0.1821  0.5097 -0.8566
 3753TIP3    H235455   0.796   6.414  11.618  1.1740  0.2166 -0.3086
 3754TIP3   OH235456   2.089   2.669  11.347  0.4943 -0.2071  0.1319
 3754TIP3    H135457   2.086   2.655  11.252 -0.5516  0.5773  0.0284
 3754TIP3    H235458   2.026   2.606  11.382  1.6611 -1.2530  0.4362
 3755TIP3   OH235459   4.472   4.719   9.482 -0.5664 -0.1443 -0.6063
 3755TIP3    H135460   4.499   4.811   9.484  0.3896 -0.3513 -2.3038
 3755TIP3    H235461   4.493   4.686   9.570 -1.1528  1.2932  0.1125
 3756TIP3   OH235462   2.437   4.675  11.545 -0.1585  0.1549  0.0035
 3756TIP3    H135463   2.439   4.619  11.467  0.6939  1.0417 -0.6256
 3756TIP3    H235464   2.352   4.656  11.585 -0.0276 -1.3666 -0.3510
 3757TIP3   OH235465   5.268   2.322   8.681  0.6732 -0.1946 -0.5496
 3757TIP3    H135466   5.179   2.298   8.704  0.8317 -0.4047 -0.1505
 3757TIP3    H235467   5.288   2.270   8.603 -0.0133  0.8268 -1.4434
 3758TIP3   OH235468   5.950   2.590  11.862  0.1203  0.2441 -0.6747
 3758TIP3    H135469   5.953   2.496  11.876 -2.9208  0.2040  0.4019
 3758TIP3    H235470   5.993   2.627  11.940 -0.1405 -0.2508 -0.2905
 3759TIP3   OH235471   3.119   3.607   9.245  0.0088  0.6231 -0.3152
 3759TIP3    H135472   3.175   3.663   9.300  0.4964 -0.2189  0.0534
 3759TIP3    H235473   3.180   3.551   9.197 -0.5139 -1.5529  1.4166
 3760TIP3   OH235474   1.068   5.049  10.217  0.0534 -0.3294  0.4787
 3760TIP3    H135475   1.092   5.076  10.129  1.9774 -2.2467  0.3343
 3760TIP3    H235476   1.150   5.052  10.267 -0.6785 -0.8012  1.7648
 3761TIP3   OH235477   6.435   5.750   9.678  0.3404  0.3653 -0.0976
 3761TIP3    H135478   6.434   5.717   9.588 -0.9862  1.2200 -0.4142
 3761TIP3    H235479   6.458   5.673   9.731 -0.1582 -0.4538 -1.0432
 3762TIP3   OH235480   6.498   0.174   8.315  0.1962  0.0685  0.1557
 3762TIP3    H135481   6.491   0.257   8.268 -2.0093 -0.8608 -1.3282
 3762TIP3    H235482   6.418   0.169   8.367 -0.4184 -1.7383 -0.8962
 3763TIP3   OH235483   5.927   1.484  10.293 -0.2719 -0.1630 -0.1803
 3763TIP3    H135484   5.862   1.438  10.346  0.1202 -0.4414  0.0629
 3763TIP3    H235485   5.878   1.554  10.250 -0.4265  0.7205  1.3415
 3764TIP3   OH235486   2.050   5.140  10.249 -0.0181 -0.1527  0.7058
 3764TIP3    H135487   2.022   5.201  10.181 -1.0680 -1.5500 -0.1933
 3764TIP3    H235488   2.145   5.151  10.256 -0.2087  1.6510  0.6921
 3765TIP3   OH235489   3.792   6.281   9.562  0.1021  0.2874 -0.5710
 3765TIP3    H135490   3.837   6.250   9.483 -1.2490  0.3171 -1.3973
 3765TIP3    H235491   3.740   6.206   9.591 -1.4022  1.0166 -1.2435
 3766TIP3   OH235492   3.579   2.990  10.831  0.0819 -0.1465  0.4272
 3766TIP3    H135493   3.582   3.071  10.780  0.1938  0.7155  1.7407
 3766TIP3    H235494   3.618   2.924  10.774  1.0857  0.9794 -0.2412
 3767TIP3   OH235495   5.552   3.188   9.325  0.3392 -0.3190  0.5051
 3767TIP3    H135496   5.568   3.125   9.395  1.5347  0.1081  0.6392
 3767TIP3    H235497   5.553   3.273   9.368 -0.4429 -0.1465  0.1970
 3768TIP3   OH235498   1.082   3.349  11.302  0.0056 -0.4324  0.1552
 3768TIP3    H135499   1.006   3.297  11.327 -0.5551 -0.2545 -1.0887
 3768TIP3    H235500   1.065   3.373  11.211  0.2586  1.8646  0.6492
 3769TIP3   OH235501   5.129   4.496   8.947  0.2827 -0.6184 -0.2121
 3769TIP3    H135502   5.177   4.571   8.912  0.4690 -0.1671  0.9520
 3769TIP3    H235503   5.037   4.523   8.943  0.2825 -0.6702 -0.5789
 3770TIP3   OH235504   0.368   4.142  10.923  0.5916  0.4613  0.0838
 3770TIP3    H135505   0.347   4.054  10.891  0.9258  0.3661  0.1142
 3770TIP3    H235506   0.463   4.149  10.912  0.5644  0.8229  0.0727
 3771TIP3   OH235507   6.043   4.076  10.940  0.4778  0.1307  0.4816
 3771TIP3    H135508   5.959   4.032  10.955  0.7512 -0.5100  0.1582
 3771TIP3    H235509   6.095   4.057  11.018  1.0010 -1.0906 -0.1440
 3772TIP3   OH235510   5.333   0.304  11.708 -0.6393  0.4018 -0.4722
 3772TIP3    H135511   5.316   0.397  11.718 -0.4431  0.5997 -1.8188
 3772TIP3    H235512   5.247   0.263  11.719 -0.9677  0.8702 -1.2047
 3773TIP3   OH235513   2.648   4.372  11.758  0.0590  0.1107 -0.3973
 3773TIP3    H135514   2.710   4.404  11.692 -0.2980  0.5800 -0.5111
 3773TIP3    H235515   2.562   4.398  11.724 -0.0695  1.3364  0.7786
 3774TIP3   OH235516   5.714   4.758  12.131 -0.3422 -0.3061  0.3752
 3774TIP3    H135517   5.676   4.686  12.080  1.4448 -1.8866  1.1068
 3774TIP3    H235518   5.734   4.719  12.216  0.5601  1.1132  0.8506
 3775TIP3   OH235519   2.686   2.097   8.312 -0.0713  0.0139  0.7617
 3775TIP3    H135520   2.735   2.134   8.385  1.7981 -0.2513 -0.2963
 3775TIP3    H235521   2.737   2.121   8.234 -0.7919 -1.6114 -0.2601
 3776TIP3   OH235522   4.274   4.523  10.449  0.0871 -0.7101 -0.5849
 3776TIP3    H135523   4.277   4.616  10.470 -1.1420 -0.3562 -1.7849
 3776TIP3    H235524   4.361   4.490  10.471  0.5391  0.7167 -0.1337
 3777TIP3   OH235525   2.063   0.324   9.144 -0.2464 -0.2772 -0.0811
 3777TIP3    H135526   1.978   0.339   9.184 -0.7316 -1.1363 -0.7380
 3777TIP3    H235527   2.118   0.397   9.173 -1.1528  0.1822  0.4964
 3778TIP3   OH235528   0.102   2.504  11.730  0.1627  0.0912 -0.0492
 3778TIP3    H135529   0.099   2.410  11.712  1.3993 -0.1304  0.7718
 3778TIP3    H235530   0.035   2.516  11.798  0.0653 -0.2175 -0.0855
 3779TIP3   OH235531   2.619   4.324  12.038  0.1554 -0.3399 -0.0671
 3779TIP3    H135532   2.635   4.357  11.949  0.1543 -0.5938 -0.1648
 3779TIP3    H235533   2.697   4.272  12.058  0.5047  0.3518  0.3912
 3780TIP3   OH235534   5.974   3.763  10.241 -0.2716  0.0702 -0.1919
 3780TIP3    H135535   5.946   3.678  10.274  0.7303 -1.0935 -2.1531
 3780TIP3    H235536   6.069   3.764  10.255 -0.2064  0.6264 -0.6449
 3781TIP3   OH235537   2.251   3.113   9.859  0.2694 -0.2449  0.2221
 3781TIP3    H135538   2.178   3.108   9.921 -0.1992  1.4393 -0.1502
 3781TIP3    H235539   2.261   3.024   9.827  0.1885 -1.0651  2.3220
 3782TIP3   OH235540   1.028   5.202  10.561 -0.3006 -0.1832  0.6443
 3782TIP3    H135541   1.046   5.219  10.654 -1.8216 -1.5540  1.2334
 3782TIP3    H235542   1.054   5.110  10.548 -0.0744  0.0063 -0.3053
 3783TIP3   OH235543   2.729   1.543   8.358 -0.1220  0.6566  0.4245
 3783TIP3    H135544   2.712   1.633   8.329 -0.0207  0.7550  0.6721
 3783TIP3    H235545   2.796   1.551   8.426 -1.4063  0.5792  1.7503
 3784TIP3   OH235546   2.531   4.683   9.243  0.3567  0.3415 -0.6614
 3784TIP3    H135547   2.535   4.612   9.179  0.5331 -1.2950  1.0827
 3784TIP3    H235548   2.621   4.693   9.274  0.5820  2.2249 -1.7373
 3785TIP3   OH235549   6.632   2.891  11.989  0.0448  0.3942 -0.0853
 3785TIP3    H135550   6.656   2.978  12.021 -2.0911  1.2671 -0.6946
 3785TIP3    H235551   6.667   2.887  11.900  2.1317 -0.3173  0.7081
 3786TIP3   OH235552   6.569   6.327  11.781  0.4075  0.2123  0.2082
 3786TIP3    H135553   6.498   6.269  11.752 -0.3215  0.0632  2.1639
 3786TIP3    H235554   6.609   6.281  11.855  1.4229  1.1145  0.2461
 3787TIP3   OH235555   2.441   2.690  10.834  0.0924 -0.2362 -0.1134
 3787TIP3    H135556   2.406   2.633  10.766 -0.4846  0.2778 -0.2527
 3787TIP3    H235557   2.527   2.715  10.802  0.9833 -2.1309  0.5868
 3788TIP3   OH235558   6.597   2.981   9.743 -0.6516  0.0578  0.3385
 3788TIP3    H135559   6.611   3.023   9.658  2.6741  1.1023  1.2527
 3788TIP3    H235560   6.588   2.888   9.723  1.9547  0.0359 -1.1098
 3789TIP3   OH235561   4.704   6.338  10.292 -0.7668  0.2642 -0.4214
 3789TIP3    H135562   4.743   6.422  10.314 -2.3462  0.7143  0.8879
 3789TIP3    H235563   4.677   6.302  10.377  0.1261 -1.7169 -0.9128
 3790TIP3   OH235564   4.272   3.705   9.311 -0.1068  0.0963 -0.2158
 3790TIP3    H135565   4.226   3.779   9.270 -1.3594 -0.9554 -0.8138
 3790TIP3    H235566   4.312   3.742   9.389 -1.4760  1.2359 -0.0019
 3791TIP3   OH235567   0.328   3.620   9.902  0.1420 -0.3139  0.5782
 3791TIP3    H135568   0.317   3.617   9.997 -1.1666  3.8035  0.7304
 3791TIP3    H235569   0.276   3.695   9.873  4.5265  1.9296 -2.7211
 3792TIP3   OH235570   5.174   4.503   9.818  0.8298 -0.5592 -0.0676
 3792TIP3    H135571   5.170   4.425   9.873  1.3259 -0.0427  0.7199
 3792TIP3    H235572   5.092   4.501   9.767  0.7550 -1.4841  0.0730
 3793TIP3   OH235573   6.523   0.881  10.645 -0.6646  0.0660 -0.1321
 3793TIP3    H135574   6.506   0.864  10.738 -1.1613  0.3848 -0.1593
 3793TIP3    H235575   6.573   0.962  10.644  0.4015 -0.5685 -0.0847
 3794TIP3   OH235576   4.599   2.160   9.212 -0.0312  0.2458  0.2627
 3794TIP3    H135577   4.523   2.196   9.257 -0.0197  0.8768 -0.1972
 3794TIP3    H235578   4.667   2.153   9.279 -0.4544 -0.2152  0.6501
 3795TIP3   OH235579   1.805   5.686   9.236  0.0560  0.2869 -0.3928
 3795TIP3    H135580   1.838   5.604   9.272 -1.3633 -0.6516 -1.1396
 3795TIP3    H235581   1.710   5.674   9.233 -0.2721  2.3106  0.3206
 3796TIP3   OH235582   0.091   5.155  12.010 -0.3280 -0.1535  0.3505
 3796TIP3    H135583   0.114   5.074  11.965 -2.1448 -0.8066  0.5053
 3796TIP3    H235584   0.009   5.183  11.968 -1.6145 -0.3158  2.5897
 3797TIP3   OH235585   6.403   0.673  10.174 -0.2526  0.3502  0.2554
 3797TIP3    H135586   6.407   0.579  10.188  0.8262 -0.0119 -2.0822
 3797TIP3    H235587   6.424   0.711  10.260  3.1485 -1.5632  0.4209
 3798TIP3   OH235588   6.368   2.113   9.177  0.3783 -0.1184  0.3449
 3798TIP3    H135589   6.391   2.090   9.267 -0.4367  2.4092  1.3052
 3798TIP3    H235590   6.281   2.075   9.164  0.9310 -1.3738  0.2237
 3799TIP3   OH235591   1.949   6.081  11.414  0.3479  0.0589 -0.2379
 3799TIP3    H135592   2.006   6.139  11.466  0.5110 -0.3987  0.1005
 3799TIP3    H235593   1.989   6.078  11.328  0.2173  0.6265 -0.3218
 3800TIP3   OH235594   3.941   4.237  11.808  0.4699 -0.1033  0.7668
 3800TIP3    H135595   3.891   4.158  11.792  0.9958 -0.2424 -0.2772
 3800TIP3    H235596   3.886   4.308  11.774  1.1295 -0.2982 -0.8076
 3801TIP3   OH235597   4.340   0.197  10.127 -0.2919  0.4451 -0.2927
 3801TIP3    H135598   4.302   0.192  10.040  0.6243  0.1333 -0.6929
 3801TIP3    H235599   4.411   0.132  10.126 -0.4196  0.2759  0.7598
 3802TIP3   OH235600   5.707   4.652  11.075 -0.0399 -0.2598  0.5117
 3802TIP3    H135601   5.663   4.614  10.999  1.6177  0.6513 -0.9929
 3802TIP3    H235602   5.777   4.589  11.095 -0.1722 -0.2572  0.9950
 3803TIP3   OH235603   4.215   6.420   9.584 -0.1798  0.0623 -0.3105
 3803TIP3    H135604   4.130   6.460   9.601 -0.4409 -1.1467  1.6067
 3803TIP3    H235605   4.233   6.367   9.662  2.0946 -0.1472 -0.8829
 3804TIP3   OH235606   6.421   2.434  12.333 -0.4603 -0.1228 -0.3729
 3804TIP3    H135607   6.398   2.345  12.306 -2.1281  0.3111 -0.4573
 3804TIP3    H235608   6.364   2.491  12.282  0.2581  0.9864  0.0199
 3805TIP3   OH235609   4.338   4.222  11.052  0.1953  0.0255  0.0767
 3805TIP3    H135610   4.347   4.293  10.989 -0.2212 -0.5398 -0.6446
 3805TIP3    H235611   4.412   4.164  11.034 -0.6159 -0.7871 -0.7821
 3806TIP3   OH235612   5.032   0.123  11.598 -0.3068 -0.2327  0.1859
 3806TIP3    H135613   4.957   0.153  11.548  0.8838  0.3358 -1.3251
 3806TIP3    H235614   5.108   0.153  11.548  0.9356 -0.6330  1.7533
 3807TIP3   OH235615   2.004   2.149  10.662 -0.1467 -0.1252  0.1001
 3807TIP3    H135616   2.064   2.134  10.589 -3.5099 -0.8429 -2.7610
 3807TIP3    H235617   1.984   2.061  10.695  0.0141  0.0843  0.7770
 3808TIP3   OH235618   3.492   2.003  10.502 -0.4084 -0.6210 -0.2383
 3808TIP3    H135619   3.550   1.958  10.564 -0.5420 -0.0643  0.2942
 3808TIP3    H235620   3.406   1.999  10.542 -0.1837  1.4161  0.5586
 3809TIP3   OH235621   0.123   4.664  11.584  0.1522 -0.7167 -0.0610
 3809TIP3    H135622   0.126   4.760  11.578  1.2832 -0.8258 -2.1357
 3809TIP3    H235623   0.036   4.645  11.619 -0.0487  1.0707  0.4897
 3810TIP3   OH235624   3.644   1.415   9.147 -0.1728  0.4978 -0.1679
 3810TIP3    H135625   3.671   1.432   9.237 -0.6302 -0.3301  0.1415
 3810TIP3    H235626   3.671   1.325   9.130 -4.2423 -1.1587  0.8402
 3811TIP3   OH235627   6.056   4.207  11.365  0.5962  0.5483  0.5277
 3811TIP3    H135628   6.032   4.239  11.452 -0.8791  0.6172  0.1227
 3811TIP3    H235629   5.973   4.178  11.327  0.4478  4.0555 -2.3479
 3812TIP3   OH235630   6.161   2.731  11.248 -0.3607  0.2961  0.0257
 3812TIP3    H135631   6.246   2.767  11.222 -0.8231  1.2267 -0.2374
 3812TIP3    H235632   6.151   2.653  11.193  0.1924  0.3288 -0.1337
 3813TIP3   OH235633   4.579   4.533  11.386  0.0467 -0.0118  0.6339
 3813TIP3    H135634   4.535   4.449  11.377 -1.7367  0.8830  0.5882
 3813TIP3    H235635   4.587   4.565  11.296  0.1987  0.1244  0.6958
 3814TIP3   OH235636   5.850   2.137   9.786 -0.6170 -0.1164 -0.7571
 3814TIP3    H135637   5.916   2.157   9.852  0.0986  0.6768 -1.6900
 3814TIP3    H235638   5.768   2.128   9.836 -0.4793  2.4481  0.0396
 3815TIP3   OH235639   4.798   2.578   8.281  0.1459  0.5874  0.4241
 3815TIP3    H135640   4.797   2.673   8.288  1.7774  0.7395 -0.7489
 3815TIP3    H235641   4.833   2.561   8.193 -0.1919 -1.1008  0.5773
 3816TIP3   OH235642   1.267   4.494  12.381  0.2984 -0.2102  0.1480
 3816TIP3    H135643   1.319   4.417  12.360  0.1668 -0.4096  0.5550
 3816TIP3    H235644   1.179   4.474  12.349  0.2776 -0.2038  0.2012
 3817TIP3   OH235645   6.382   5.817  11.408  0.0627  0.1000  0.0545
 3817TIP3    H135646   6.455   5.866  11.369 -1.3175  1.3429 -1.0940
 3817TIP3    H235647   6.353   5.872  11.481  0.6343 -0.6887  0.8930
 3818TIP3   OH235648   2.707   0.118  11.468 -0.9626  0.4882 -0.2519
 3818TIP3    H135649   2.649   0.058  11.514  0.1420 -0.2338  0.2081
 3818TIP3    H235650   2.769   0.062  11.422  0.2074  1.2709  0.3383
 3819TIP3   OH235651   1.281   3.632   9.409 -0.1459  0.1145 -0.1180
 3819TIP3    H135652   1.304   3.698   9.343 -0.2270  1.1140  0.8361
 3819TIP3    H235653   1.360   3.619   9.460 -0.7276  1.1106  1.0761
 3820TIP3   OH235654   5.108   5.419  12.218 -0.7378 -0.2834 -0.4536
 3820TIP3    H135655   5.057   5.397  12.140 -0.2182  0.6215 -1.0728
 3820TIP3    H235656   5.050   5.474  12.270 -0.5467  0.4390 -0.9812
 3821TIP3   OH235657   0.741   3.245  11.824 -0.0251  0.0295  0.4735
 3821TIP3    H135658   0.797   3.323  11.832  1.7986 -1.1145 -0.6092
 3821TIP3    H235659   0.662   3.277  11.781  0.8214  1.2403 -0.2447
 3822TIP3   OH235660   0.147   6.096  11.661 -0.1962  0.1683 -0.0886
 3822TIP3    H135661   0.201   6.091  11.740 -2.6086  0.8915  1.7045
 3822TIP3    H235662   0.130   6.189  11.649  0.2871  0.0843 -1.6162
 3823TIP3   OH235663   0.402   2.779  12.427 -0.4567 -0.7076 -0.2262
 3823TIP3    H135664   0.395   2.874  12.420  0.0830 -0.5287  1.3058
 3823TIP3    H235665   0.483   2.758  12.379 -0.8039 -0.4546 -0.9327
 3824TIP3   OH235666   0.889   0.819  10.717 -0.4543  0.6502  0.2332
 3824TIP3    H135667   0.922   0.827  10.627  0.6873  1.8160  0.7233
 3824TIP3    H235668   0.954   0.864  10.770 -0.9737 -0.2590  1.6943
 3825TIP3   OH235669   5.745   0.771  11.124  0.1872 -0.4764 -0.7428
 3825TIP3    H135670   5.675   0.739  11.181 -2.2183  2.2477 -1.9587
 3825TIP3    H235671   5.788   0.839  11.175 -1.6215  1.5896 -1.8527
 3826TIP3   OH235672   2.640   2.965   9.706  0.0420  0.1915  0.4256
 3826TIP3    H135673   2.605   2.928   9.787  0.4819 -1.2237  0.0099
 3826TIP3    H235674   2.731   2.936   9.704  0.6460  2.0144  0.4534
 3827TIP3   OH235675   5.897   0.673  11.494 -0.8692  0.5292  0.2708
 3827TIP3    H135676   5.830   0.607  11.477 -0.3289  0.1355 -0.4052
 3827TIP3    H235677   5.946   0.679  11.412  1.8506 -1.4510  1.5535
 3828TIP3   OH235678   0.600   6.695  10.259 -0.2674 -0.1611  0.9159
 3828TIP3    H135679   0.630   6.604  10.261  0.1254 -0.0886 -0.5453
 3828TIP3    H235680   0.528   6.698  10.322 -0.4558 -1.5451  0.7976
 3829TIP3   OH235681   1.081   4.391  10.222  0.0736 -0.3341 -0.1055
 3829TIP3    H135682   1.102   4.333  10.295  1.6829 -0.1390 -0.3797
 3829TIP3    H235683   1.118   4.347  10.145 -2.5515 -1.0824 -1.0329
 3830TIP3   OH235684   1.909   6.334   9.993  0.1812 -0.1586 -0.2286
 3830TIP3    H135685   1.966   6.311  10.066 -0.3009 -0.0703  0.1830
 3830TIP3    H235686   1.912   6.258   9.935 -0.1305 -0.5996  0.3222
 3831TIP3   OH235687   2.417   4.890   9.418  0.3600  0.1928  0.1249
 3831TIP3    H135688   2.467   4.822   9.372  0.5674  0.9029 -0.7418
 3831TIP3    H235689   2.325   4.866   9.404  0.4286 -0.5992  0.9205
 3832TIP3   OH235690   2.150   5.947  11.249 -0.5088 -0.2873 -0.3245
 3832TIP3    H135691   2.150   5.851  11.252  1.9861 -0.3454  0.1545
 3832TIP3    H235692   2.206   5.969  11.175  0.6292  0.7611  0.8006
 3833TIP3   OH235693   4.959   1.917   9.792 -0.2098 -0.0497  0.1773
 3833TIP3    H135694   5.038   1.862   9.794  0.1611  0.4945  1.5577
 3833TIP3    H235695   4.991   2.005   9.809 -1.2570 -0.0584  2.5892
 3834TIP3   OH235696   5.980   6.455  11.537  0.4731  0.2746 -0.2971
 3834TIP3    H135697   6.031   6.531  11.509  1.3546  0.5076  1.7664
 3834TIP3    H235698   6.025   6.423  11.616 -1.6082 -0.5524  0.6335
 3835TIP3   OH235699   2.502   2.388  11.271 -0.5341 -0.1763  0.2258
 3835TIP3    H135700   2.574   2.330  11.294  0.5072  0.8315 -0.4036
 3835TIP3    H235701   2.461   2.346  11.195 -1.0899 -1.1136  1.0133
 3836TIP3   OH235702   0.060   3.664  10.346  0.2591  0.6612 -0.3275
 3836TIP3    H135703   0.019   3.662  10.433  0.7830 -0.9718 -0.0918
 3836TIP3    H235704   0.105   3.748  10.343 -0.8281  1.3073  0.4692
 3837TIP3   OH235705   1.495   1.733  10.416  0.1780 -0.7010  0.8130
 3837TIP3    H135706   1.440   1.712  10.491 -2.1346  0.7885 -0.3776
 3837TIP3    H235707   1.469   1.669  10.349  0.2970 -0.3309  0.4128
 3838TIP3   OH235708   2.887   2.859   9.743 -0.0123  0.2751 -0.1986
 3838TIP3    H135709   2.866   2.782   9.689  2.4931 -1.5632  1.2215
 3838TIP3    H235710   2.925   2.822   9.823 -1.1801  2.9653  1.7404
 3839TIP3   OH235711   2.335   6.058  10.394 -0.3073  0.2701 -0.2422
 3839TIP3    H135712   2.415   6.090  10.354  0.4092  1.0887  1.7360
 3839TIP3    H235713   2.302   5.992  10.332  1.3027  0.6563 -1.5818
 3840TIP3   OH235714   0.132   5.349   9.854 -0.2279 -0.4186  0.3722
 3840TIP3    H135715   0.209   5.300   9.883  0.3316 -0.6070 -1.3022
 3840TIP3    H235716   0.158   5.385   9.769 -0.7326  2.5033  1.3293
 3841TIP3   OH235717   2.619   6.278  10.869  0.0005 -0.6669  0.1451
 3841TIP3    H135718   2.544   6.280  10.810  1.1711 -1.0778 -1.4221
 3841TIP3    H235719   2.600   6.346  10.934 -1.9387 -1.0992  0.1054
 3842TIP3   OH235720   4.195   1.565   9.732  0.3462  0.3272  0.4036
 3842TIP3    H135721   4.170   1.629   9.799 -0.1013 -0.5668  1.1262
 3842TIP3    H235722   4.139   1.489   9.751  0.3639 -0.0203 -0.8661
 3843TIP3   OH235723   6.676   6.279  10.104 -0.1315  0.2724 -0.4099
 3843TIP3    H135724   6.671   6.370  10.135  0.6351  0.3877 -0.5866
 3843TIP3    H235725   6.714   6.286  10.016  0.1820 -0.2322 -0.3202
 3844TIP3   OH235726   6.423   5.174  11.564 -0.0551  0.1588 -0.5356
 3844TIP3    H135727   6.411   5.217  11.479 -0.5932  1.1985  0.0475
 3844TIP3    H235728   6.511   5.137  11.559  0.2240  0.8782 -1.2736
 3845TIP3   OH235729   1.065   5.177  12.116 -0.4555  0.1171  0.5343
 3845TIP3    H135730   1.074   5.208  12.207  0.1530 -2.6033  1.5166
 3845TIP3    H235731   1.084   5.254  12.063  1.4640  1.3071  2.7241
 3846TIP3   OH235732   2.441   3.456  10.172  0.1650  0.3384  0.7833
 3846TIP3    H135733   2.366   3.512  10.192  0.2830  0.3561  1.1801
 3846TIP3    H235734   2.464   3.479  10.082 -0.0723  0.5991  0.7870
 3847TIP3   OH235735   0.522   3.405  11.754  0.0760  0.7833 -0.3515
 3847TIP3    H135736   0.469   3.385  11.677 -0.7216 -0.5672  0.5189
 3847TIP3    H235737   0.459   3.417  11.825  0.8788 -1.1173  0.7711
 3848TIP3   OH235738   3.558   0.739  10.545  0.3691 -0.3792  0.0631
 3848TIP3    H135739   3.600   0.734  10.631 -0.5495 -2.2194  0.4711
 3848TIP3    H235740   3.464   0.734  10.564  0.1547 -1.0003 -1.0556
 3849TIP3   OH235741   6.615   5.996  10.564 -0.0726  0.2074  0.0221
 3849TIP3    H135742   6.594   5.992  10.470 -0.6425  2.7149 -0.0374
 3849TIP3    H235743   6.625   6.090  10.582  0.7569 -0.2677  2.3317
 3850TIP3   OH235744   3.578   2.043  11.429 -0.2834 -0.4093 -0.1423
 3850TIP3    H135745   3.667   2.078  11.439 -0.2768  0.0256 -1.4831
 3850TIP3    H235746   3.550   2.022  11.518  2.0429 -2.8145  0.1560
 3851TIP3   OH235747   4.786   1.785   8.261 -0.1532 -0.0885 -0.1236
 3851TIP3    H135748   4.828   1.845   8.199  0.4397 -0.8228 -0.4525
 3851TIP3    H235749   4.707   1.755   8.216 -0.0309 -0.1674 -0.2869
 3852TIP3   OH235750   4.457   5.560  10.418 -0.2588 -0.3221  0.0399
 3852TIP3    H135751   4.513   5.576  10.343  1.2231 -0.3453  1.0916
 3852TIP3    H235752   4.395   5.493  10.389  1.1214 -1.2825 -0.7722
 3853TIP3   OH235753   4.762   6.157  11.985  0.0125  0.1018  0.6002
 3853TIP3    H135754   4.778   6.176  11.893 -2.9102 -0.2205 -0.0724
 3853TIP3    H235755   4.792   6.067  11.997 -0.2920 -0.1154 -0.2400
 3854TIP3   OH235756   4.223   0.208   9.859 -0.4520 -0.2929 -0.5280
 3854TIP3    H135757   4.137   0.205   9.901  0.4860 -2.5946  1.4528
 3854TIP3    H235758   4.203   0.213   9.765 -2.7331 -0.3854 -0.1104
 3855TIP3   OH235759   2.990   4.602   9.421 -0.3263  0.3258  0.2017
 3855TIP3    H135760   2.927   4.568   9.358  0.0498  0.4920 -0.2687
 3855TIP3    H235761   3.062   4.635   9.368  0.2557 -0.0468  0.7353
 3856TIP3   OH235762   3.683   2.103  10.850 -0.3914 -0.3322 -0.1767
 3856TIP3    H135763   3.702   2.012  10.874  0.9970 -0.1380 -0.4373
 3856TIP3    H235764   3.717   2.155  10.923 -0.8043 -0.0016 -0.2181
 3857TIP3   OH235765   5.356   0.728   9.894  0.3741 -0.0458  0.5846
 3857TIP3    H135766   5.369   0.647   9.944 -2.4335  0.2480  1.9781
 3857TIP3    H235767   5.275   0.765   9.929 -0.3673  1.5451 -2.4662
 3858TIP3   OH235768   5.410   6.146  11.763 -0.4040  0.3235 -0.8024
 3858TIP3    H135769   5.410   6.055  11.731 -1.3249 -0.4618  1.2548
 3858TIP3    H235770   5.317   6.167  11.772 -0.2433  0.1589  2.0832
 3859TIP3   OH235771   5.662   3.095  10.230  0.7688  0.0599 -0.4732
 3859TIP3    H135772   5.714   3.162  10.187 -0.7048  0.9371 -0.9856
 3859TIP3    H235773   5.588   3.081  10.170 -0.0368 -0.5061  0.6168
 3860TIP3   OH235774   2.188   1.169   9.339  0.4299 -0.0009 -0.0542
 3860TIP3    H135775   2.195   1.198   9.248 -0.4089 -1.1669 -0.5179
 3860TIP3    H235776   2.194   1.249   9.390  0.6021  0.7145 -1.1477
 3861TIP3   OH235777   0.772   1.416  10.534  0.2793 -0.1891 -0.1973
 3861TIP3    H135778   0.816   1.331  10.543 -0.9855 -0.7388  1.0400
 3861TIP3    H235779   0.803   1.466  10.609  1.2481  0.6008 -1.0771
 3862TIP3   OH235780   4.237   0.865  10.878 -0.3093 -0.2638  0.6064
 3862TIP3    H135781   4.263   0.830  10.793 -1.8058 -0.4528  0.1881
 3862TIP3    H235782   4.318   0.873  10.927  0.5464 -0.4553 -0.7285
 3863TIP3   OH235783   5.757   5.722   9.818 -0.2678 -0.7919  0.2088
 3863TIP3    H135784   5.791   5.803   9.856 -0.0178 -0.5229 -0.5718
 3863TIP3    H235785   5.664   5.722   9.843 -0.6598  0.5328 -1.0610
 3864TIP3   OH235786   4.648   1.588  10.439 -0.2674 -0.3659 -0.0217
 3864TIP3    H135787   4.628   1.543  10.521  0.2067 -0.0903  0.2532
 3864TIP3    H235788   4.572   1.644  10.424 -0.8588 -1.2468 -0.3691
 3865TIP3   OH235789   6.251   2.539   8.788 -0.3518 -0.0056 -0.6044
 3865TIP3    H135790   6.163   2.519   8.820  0.6182 -1.9350  1.1097
 3865TIP3    H235791   6.261   2.484   8.710  0.3133 -2.1354  0.9020
 3866TIP3   OH235792   4.883   0.436  11.474  0.0667  0.0586  0.2547
 3866TIP3    H135793   4.827   0.513  11.474  1.2533  0.9363 -0.2364
 3866TIP3    H235794   4.827   0.367  11.437 -0.9064  0.7363  0.4116
 3867TIP3   OH235795   2.592   3.818  10.695  0.1791 -0.1975  0.0648
 3867TIP3    H135796   2.625   3.757  10.630  0.4511 -2.1006  1.8991
 3867TIP3    H235797   2.669   3.843  10.746 -0.1561  0.6540  0.1724
 3868TIP3   OH235798   0.234   0.583  11.282  0.2792  0.1445 -0.0789
 3868TIP3    H135799   0.309   0.613  11.230  1.1805  0.5249  1.3847
 3868TIP3    H235800   0.272   0.531  11.352 -0.8964 -0.2021  0.3300
 3869TIP3   OH235801   3.366   4.081  12.114  0.1450  0.1656 -0.0519
 3869TIP3    H135802   3.325   4.093  12.028 -2.1209 -1.8408  0.6348
 3869TIP3    H235803   3.419   4.002  12.105  2.7688  1.8399 -0.4629
 3870TIP3   OH235804   3.403   0.988  10.745 -0.6822  0.8284  0.0464
 3870TIP3    H135805   3.366   0.933  10.676  0.2709 -0.1496  0.2769
 3870TIP3    H235806   3.384   1.077  10.717 -1.0526  0.4273 -1.0592
 3871TIP3   OH235807   6.507   0.647  12.094  0.5894  0.2974 -0.2332
 3871TIP3    H135808   6.510   0.679  12.184  1.5299 -0.4137  0.0042
 3871TIP3    H235809   6.425   0.681  12.059 -0.3077 -0.2888  1.2165
 3872TIP3   OH235810   1.946   3.883  12.167 -0.1146  0.2369  0.5463
 3872TIP3    H135811   2.035   3.913  12.149  0.3673  0.0870  2.5075
 3872TIP3    H235812   1.898   3.963  12.189 -0.5865  0.3622 -0.8381
 3873TIP3   OH235813   0.281   1.171   8.919  0.6057 -0.5924  0.5590
 3873TIP3    H135814   0.291   1.208   8.831  1.7762 -0.1384  0.8652
 3873TIP3    H235815   0.288   1.076   8.906  3.7440 -0.4494  0.4630
 3874TIP3   OH235816   2.141   3.581   9.629 -0.0795  0.0358  0.1856
 3874TIP3    H135817   2.191   3.512   9.585 -1.0567 -0.6730  0.1630
 3874TIP3    H235818   2.144   3.558   9.721  0.0822  0.2967  0.2480
 3875TIP3   OH235819   4.995   1.546   9.413 -0.1755 -0.4295  0.3093
 3875TIP3    H135820   4.902   1.568   9.406 -0.0648 -0.1758 -0.5434
 3875TIP3    H235821   5.039   1.630   9.427  0.0536 -0.3478 -0.8097
 3876TIP3   OH235822   5.954   1.881   8.802 -0.5051 -0.2940  0.1072
 3876TIP3    H135823   6.042   1.890   8.766 -0.0651  3.8990  1.7219
 3876TIP3    H235824   5.905   1.833   8.734  2.2167 -0.0077 -2.2332
 3877TIP3   OH235825   4.740   1.224  11.461  0.0120 -0.3433  0.4631
 3877TIP3    H135826   4.648   1.242  11.481 -0.1651 -0.1612 -0.4610
 3877TIP3    H235827   4.740   1.195  11.370  0.8555 -0.4734  0.4945
 3878TIP3   OH235828   1.186   5.928  11.905 -0.4721  0.3202 -0.6028
 3878TIP3    H135829   1.272   5.931  11.864 -0.6261  0.6385 -0.9042
 3878TIP3    H235830   1.192   5.991  11.978 -0.8095  1.2269 -1.3337
 3879TIP3   OH235831   0.747   5.461   9.428 -0.1289 -0.2211  0.0559
 3879TIP3    H135832   0.802   5.384   9.443 -0.1719 -0.0947  0.8979
 3879TIP3    H235833   0.793   5.511   9.361 -0.1438 -1.0158 -0.5670
 3880TIP3   OH235834   1.162   4.636  10.327 -0.0042 -0.7787  0.0075
 3880TIP3    H135835   1.089   4.697  10.318 -0.4626 -0.7282  2.9592
 3880TIP3    H235836   1.135   4.559  10.278 -2.5800 -1.1386  1.7822
 3881TIP3   OH235837   0.985   2.583  10.415  0.4295  0.3793 -0.0496
 3881TIP3    H135838   0.945   2.660  10.373 -0.5238 -0.8866 -1.5588
 3881TIP3    H235839   0.929   2.564  10.489 -0.8476 -0.3669 -1.1677
 3882TIP3   OH235840   0.753   3.089   9.599 -0.1797 -0.0208  0.2551
 3882TIP3    H135841   0.668   3.128   9.618 -0.9088 -1.1354 -0.6067
 3882TIP3    H235842   0.787   3.063   9.684  0.1267  2.0123  0.8088
 3883TIP3   OH235843   6.355   6.189  11.700  0.3878  0.0790 -0.4536
 3883TIP3    H135844   6.286   6.213  11.639  0.9633 -0.6521 -1.4123
 3883TIP3    H235845   6.371   6.096  11.684 -0.0680 -0.3776  1.4427
 3884TIP3   OH235846   0.008   5.278   9.590 -0.4856 -0.0836  0.4009
 3884TIP3    H135847  -0.002   5.361   9.637 -0.6924 -0.2115  0.5855
 3884TIP3    H235848  -0.045   5.289   9.511 -0.5615 -0.0629  0.4549
 3885TIP3   OH235849   6.573   4.663  11.696 -0.2137  0.1260  0.2375
 3885TIP3    H135850   6.544   4.574  11.677 -2.4445  0.8943 -0.3789
 3885TIP3    H235851   6.586   4.665  11.791 -3.3202 -0.1292  0.7841
 3886TIP3   OH235852   3.273   1.298  10.281  0.3655  0.4071  0.1506
 3886TIP3    H135853   3.212   1.372  10.282  1.4988  1.3536  1.1801
 3886TIP3    H235854   3.232   1.233  10.339 -0.3623  0.4254 -0.3234
 3887TIP3   OH235855   2.168   1.729  11.456  0.5192  0.0664  0.2592
 3887TIP3    H135856   2.110   1.775  11.395  1.2026  1.0276  0.3159
 3887TIP3    H235857   2.134   1.750  11.543 -1.0252 -2.0602  0.2440
 3888TIP3   OH235858   5.769   1.026  11.611  0.8719  0.1252  0.5999
 3888TIP3    H135859   5.812   1.023  11.696  1.9032  0.9526  0.1379
 3888TIP3    H235860   5.696   1.086  11.623  1.5474  0.9502  0.6895
 3889TIP3   OH235861   3.464   2.004  11.013 -0.0061  0.3704 -0.5221
 3889TIP3    H135862   3.465   1.971  11.103  0.4409 -1.1465 -1.0670
 3889TIP3    H235863   3.553   1.989  10.981 -0.7541 -1.2378 -1.9554
 3890TIP3   OH235864   6.441   4.530  11.370 -0.0440  0.3396  0.6871
 3890TIP3    H135865   6.458   4.470  11.298 -0.3942 -0.4497  1.2491
 3890TIP3    H235866   6.517   4.522  11.428  1.0073  2.1737 -0.3682
 3891TIP3   OH235867   1.862   0.277  12.441  0.0384 -0.4237 -0.3447
 3891TIP3    H135868   1.924   0.282  12.513 -0.6675  1.0042  0.2155
 3891TIP3    H235869   1.916   0.284  12.362  0.6872 -0.4243  0.0910
 3892TIP3   OH235870   4.882   3.860   9.958 -0.2323 -0.4486  0.1285
 3892TIP3    H135871   4.977   3.849   9.961 -0.1363  0.5397  1.5052
 3892TIP3    H235872   4.868   3.955   9.967 -1.3319 -0.4785 -0.9601
 3893TIP3   OH235873   1.990   1.075  10.699 -0.0363  0.1191  0.2150
 3893TIP3    H135874   2.015   1.071  10.606 -0.7815 -0.3522  0.0192
 3893TIP3    H235875   1.983   1.168  10.718  1.1772  0.2522  0.1040
 3894TIP3   OH235876   2.836   5.478  11.454  0.1764 -0.2479  0.5092
 3894TIP3    H135877   2.783   5.420  11.509  0.6574  0.0332  1.2919
 3894TIP3    H235878   2.899   5.517  11.515  1.2531 -0.5296 -0.3752
 3895TIP3   OH235879   5.491   6.483   8.633 -0.3632  0.2373  0.3745
 3895TIP3    H135880   5.508   6.421   8.705 -0.0821 -2.4730 -1.8391
 3895TIP3    H235881   5.568   6.539   8.631 -0.6635  0.8097  2.5386
 3896TIP3   OH235882   2.626   1.664  10.802 -0.4087  0.3431  0.7697
 3896TIP3    H135883   2.620   1.613  10.721  1.0576  0.5897  0.4891
 3896TIP3    H235884   2.543   1.713  10.806 -1.0197 -0.5986  0.0706
 3897TIP3   OH235885   1.334   6.646  11.425 -0.9699 -0.0747  0.5367
 3897TIP3    H135886   1.366   6.600  11.347 -0.3123 -0.7981  1.2169
 3897TIP3    H235887   1.275   6.583  11.468  1.3482 -1.0898  2.4610
 3898TIP3   OH235888   1.822   0.495   9.549 -0.3269 -0.3090  0.4031
 3898TIP3    H135889   1.741   0.456   9.515  0.2130 -0.9387 -0.1922
 3898TIP3    H235890   1.891   0.436   9.519  0.5064  0.9834 -0.3423
 3899TIP3   OH235891   2.290   0.625  12.000  0.4192 -0.2260  0.3397
 3899TIP3    H135892   2.213   0.570  12.001  0.0925  0.2300  1.1776
 3899TIP3    H235893   2.363   0.565  11.982  0.0599 -0.9114  1.1176
 3900TIP3   OH235894   0.677   4.593  10.541  0.0500 -0.0376 -0.4679
 3900TIP3    H135895   0.745   4.580  10.475 -0.0011  1.0269 -0.7446
 3900TIP3    H235896   0.718   4.651  10.605 -0.2421 -0.2589 -0.0761
 3901TIP3   OH235897   2.126   1.511  12.517  0.1424 -0.3881  0.0066
 3901TIP3    H135898   2.149   1.451  12.588 -1.2473 -0.0792  0.7411
 3901TIP3    H235899   2.047   1.472  12.478 -0.0446  0.3090 -0.3147
 3902TIP3   OH235900   2.352   3.573  11.037 -0.2553 -0.1076  0.6412
 3902TIP3    H135901   2.377   3.491  10.995 -0.0135 -0.0309  0.6315
 3902TIP3    H235902   2.427   3.631  11.023 -0.1898 -0.0651  1.1363
 3903TIP3   OH235903   1.061   2.756  12.037  0.0258  0.3714  0.3132
 3903TIP3    H135904   1.037   2.809  11.961 -0.0286 -0.4084 -0.2270
 3903TIP3    H235905   0.978   2.727  12.075  0.0585  0.4178  0.4212
 3904TIP3   OH235906   5.691   3.601   9.284 -0.4188  0.2152  0.3252
 3904TIP3    H135907   5.608   3.638   9.254  0.6093  2.0769 -0.3662
 3904TIP3    H235908   5.668   3.550   9.361 -2.2708  0.2670 -0.1547
 3905TIP3   OH235909   6.692   5.135  11.504  0.0511  0.1393 -0.2737
 3905TIP3    H135910   6.717   5.225  11.525 -1.1239  0.8262 -1.6311
 3905TIP3    H235911   6.754   5.109  11.436 -0.1924  0.2816 -0.5549
 3906TIP3   OH235912   5.831   3.920  10.963 -0.0956  0.1210  0.3688
 3906TIP3    H135913   5.818   3.865  10.886  1.5588 -1.4736  1.1576
 3906TIP3    H235914   5.789   3.872  11.034 -0.9002  1.1870  0.6524
 3907TIP3   OH235915   2.619   4.382   9.146  0.3830 -0.4458  0.4837
 3907TIP3    H135916   2.653   4.327   9.217  1.4217  0.4609  0.7040
 3907TIP3    H235917   2.524   4.366   9.148  0.4784 -1.0030  1.5846
 3908TIP3   OH235918   3.468   0.294  11.189 -0.0835  0.6218  0.1833
 3908TIP3    H135919   3.492   0.290  11.096  1.2655  0.1254  0.5328
 3908TIP3    H235920   3.415   0.374  11.196 -1.2527  0.0312 -1.2225
 3909TIP3   OH235921   4.637   1.634  12.187 -0.4166 -0.1510 -0.2551
 3909TIP3    H135922   4.685   1.685  12.122  0.3725  0.0750  0.4737
 3909TIP3    H235923   4.643   1.686  12.267 -1.7037 -0.2316 -0.0789
 3910TIP3   OH235924   3.056   1.491  10.222  0.5195  0.5874 -0.2749
 3910TIP3    H135925   3.069   1.559  10.156  0.0974  0.8368 -0.1017
 3910TIP3    H235926   3.002   1.532  10.289 -0.8727 -0.3192 -0.8180
 3911TIP3   OH235927   1.640   6.540   9.706 -0.3194 -0.3493  0.2805
 3911TIP3    H135928   1.664   6.448   9.699  1.9461  0.2259 -0.7156
 3911TIP3    H235929   1.628   6.569   9.616  0.6484  0.6686  0.4487
 3912TIP3   OH235930   2.555   6.323   9.713 -0.0764  0.2651  0.1036
 3912TIP3    H135931   2.538   6.322   9.618 -1.7845 -1.8091  0.3543
 3912TIP3    H235932   2.623   6.257   9.725  1.9484  2.2265  0.1410
 3913TIP3   OH235933   5.175   5.319  10.911  0.1736 -0.5478 -0.0073
 3913TIP3    H135934   5.134   5.405  10.898 -1.7817 -1.1001  1.9070
 3913TIP3    H235935   5.234   5.332  10.985 -0.1142 -0.8265  0.2757
 3914TIP3   OH235936   3.830   6.239   9.049  0.1733  0.1870 -0.0473
 3914TIP3    H135937   3.896   6.284   8.997 -0.0578  1.5411  0.7798
 3914TIP3    H235938   3.870   6.154   9.070  1.4815  0.7936  0.0569
 3915TIP3   OH235939   6.033   2.346  11.568  0.0369  0.2035 -0.0722
 3915TIP3    H135940   6.013   2.418  11.508  2.4379  1.1191  0.0977
 3915TIP3    H235941   6.129   2.347  11.575 -0.0702 -0.5399  2.9634
 3916TIP3   OH235942   5.842   3.889  10.671 -0.3255 -0.1533  0.0998
 3916TIP3    H135943   5.925   3.877  10.626  1.1389  1.3601  2.1755
 3916TIP3    H235944   5.811   3.974  10.643  0.0153  0.2874  1.0083
 3917TIP3   OH235945   6.310   1.817   9.955 -0.4910 -0.2393  0.5163
 3917TIP3    H135946   6.362   1.778  10.025  0.8897  1.2879  0.3938
 3917TIP3    H235947   6.374   1.847   9.890 -1.3690  2.6185  0.8225
 3918TIP3   OH235948   1.889   2.780  12.181 -0.3721  0.2150  0.3255
 3918TIP3    H135949   1.852   2.812  12.098 -2.2893 -2.4833  0.0162
 3918TIP3    H235950   1.845   2.831  12.249  0.4549  1.7252 -0.2098
 3919TIP3   OH235951   0.203   1.665  12.145  0.1136  0.2379  0.2707
 3919TIP3    H135952   0.178   1.680  12.054  1.9588 -0.0834 -0.3302
 3919TIP3    H235953   0.205   1.753  12.184  1.7930  0.6864 -0.7197
 3920TIP3   OH235954   3.585   3.263  11.032  0.0089 -0.2876  0.6378
 3920TIP3    H135955   3.657   3.207  11.060  1.4853  1.0775 -0.2374
 3920TIP3    H235956   3.591   3.264  10.936 -1.7195 -0.8121  0.4990
 3921TIP3   OH235957   2.544   1.650   9.420 -0.4217 -0.2053 -0.2508
 3921TIP3    H135958   2.580   1.564   9.442 -0.0057  0.1390  0.4447
 3921TIP3    H235959   2.505   1.682   9.502 -0.8381  0.1465 -0.5772
 3922TIP3   OH235960   0.925   5.561  10.602  0.1418 -0.2269 -0.1073
 3922TIP3    H135961   0.850   5.611  10.570 -0.2201  0.7982  2.1336
 3922TIP3    H235962   0.896   5.470  10.598 -0.1661 -0.0905 -1.8179
 3923TIP3   OH235963   5.184   3.347   8.606 -0.0929 -0.1934 -0.6601
 3923TIP3    H135964   5.144   3.378   8.687  0.3834 -1.7999  0.2228
 3923TIP3    H235965   5.252   3.411   8.586 -0.1434  0.1556  0.2584
 3924TIP3   OH235966   1.692   2.613  10.377  0.1129  0.5507 -0.2464
 3924TIP3    H135967   1.673   2.602  10.470 -0.0689  0.1801 -0.3245
 3924TIP3    H235968   1.787   2.625  10.373  0.4519 -1.6906 -0.1831
 3925TIP3   OH235969   4.820   5.706  10.351 -0.2251 -0.4959  0.3828
 3925TIP3    H135970   4.859   5.734  10.434  0.7586 -0.9023  0.0770
 3925TIP3    H235971   4.774   5.783  10.318  1.9420  0.6399 -0.1700
 3926TIP3   OH235972   3.538   4.302  11.364 -0.6140 -0.7113 -0.0376
 3926TIP3    H135973   3.583   4.373  11.410 -0.7966 -0.0912 -0.7998
 3926TIP3    H235974   3.466   4.345  11.318 -0.6537 -1.3731 -0.6131
 3927TIP3   OH235975   6.497   6.556   9.619 -0.1411 -0.5421  0.0404
 3927TIP3    H135976   6.539   6.609   9.687  1.0251 -2.4559  0.8999
 3927TIP3    H235977   6.425   6.611   9.587  0.7848  1.3882  1.0970
 3928TIP3   OH235978   1.267   6.374  10.739 -0.0615 -0.0168 -0.2477
 3928TIP3    H135979   1.323   6.383  10.662 -2.1838  0.7644 -1.8030
 3928TIP3    H235980   1.188   6.332  10.706 -1.5505  1.4724  1.2158
 3929TIP3   OH235981   0.312   4.852  12.496 -0.4986  0.3638 -0.3621
 3929TIP3    H135982   0.273   4.817  12.576  0.5272  3.4249  1.6879
 3929TIP3    H235983   0.240   4.895  12.451 -0.8038 -0.0976 -0.3197
 3930TIP3   OH235984   4.446   4.394  11.652 -0.1470  0.4810  0.0036
 3930TIP3    H135985   4.522   4.353  11.695  0.0390  1.6889  0.8870
 3930TIP3    H235986   4.371   4.343  11.683  0.1073  0.6122  0.8669
 3931TIP3   OH235987   0.459   3.167  10.885 -0.2389  0.5043  0.6256
 3931TIP3    H135988   0.430   3.186  10.974 -0.4760  1.5319  0.3369
 3931TIP3    H235989   0.381   3.131  10.842  0.0110 -0.4790  0.9593
 3932TIP3   OH235990   5.658   5.310  11.135 -0.5767 -0.7535  0.3611
 3932TIP3    H135991   5.676   5.275  11.222  1.0789  0.3416  0.5053
 3932TIP3    H235992   5.715   5.260  11.076 -1.6892 -1.4926 -0.1261
 3933TIP3   OH235993   0.594   0.580   9.429  0.3272 -0.4784  0.3047
 3933TIP3    H135994   0.669   0.635   9.404  0.1179 -0.6477 -0.7584
 3933TIP3    H235995   0.544   0.570   9.348 -0.8896 -0.3132  1.0232
 3934TIP3   OH235996   0.507   0.570  10.501  0.4056  0.4167 -0.4089
 3934TIP3    H135997   0.511   0.488  10.551 -1.6031  0.2261 -0.4739
 3934TIP3    H235998   0.485   0.543  10.412  0.4893  0.9781 -0.6021
 3935TIP3   OH235999   5.181   5.176  11.615 -0.1320 -0.2832  0.1275
 3935TIP3    H136000   5.123   5.114  11.571  0.7138 -1.3408  0.4366
 3935TIP3    H236001   5.265   5.166  11.569 -0.1294  1.0839 -0.2028
 3936TIP3   OH236002   4.745   6.590   9.991 -0.3965 -0.6438  0.0887
 3936TIP3    H136003   4.822   6.574  10.047 -0.3752  0.7442  0.4946
 3936TIP3    H236004   4.755   6.528   9.919  1.9210  0.5189 -0.6747
 3937TIP3   OH236005   2.562   6.144  10.107 -0.0931 -0.1729  0.4338
 3937TIP3    H136006   2.599   6.075  10.053  3.0335  1.6924 -0.0410
 3937TIP3    H236007   2.499   6.188  10.050  2.6926  1.3814 -1.7147
 3938TIP3   OH236008   1.573   4.328  12.064  0.4749 -0.2816 -0.4185
 3938TIP3    H136009   1.648   4.269  12.059 -0.6011 -1.6084 -2.3559
 3938TIP3    H236010   1.608   4.414  12.043  1.5628 -0.7524 -0.5824
 3939TIP3   OH236011   3.260   1.833  10.645  0.0862  0.0739 -0.1553
 3939TIP3    H136012   3.184   1.864  10.595 -0.3438  0.5928  0.7699
 3939TIP3    H236013   3.258   1.887  10.724  1.2914 -0.0791 -0.0161
 3940TIP3   OH236014   5.912   3.628  10.903  0.0344 -0.1789 -0.2114
 3940TIP3    H136015   5.817   3.640  10.891 -0.1483 -0.3390  0.9999
 3940TIP3    H236016   5.939   3.576  10.827 -0.8612 -0.1743 -0.5438
 3941TIP3   OH236017   1.090   0.235  12.212 -0.4725  0.5759  0.2893
 3941TIP3    H136018   1.089   0.174  12.139  0.3808  0.1329  0.6317
 3941TIP3    H236019   1.000   0.266  12.219 -0.5715  0.6240 -0.9394
 3942TIP3   OH236020   1.654   5.389  10.863  0.1906 -0.1252  0.1644
 3942TIP3    H136021   1.719   5.321  10.847 -0.7053 -0.5579 -1.8339
 3942TIP3    H236022   1.631   5.378  10.956  1.7508 -0.9951  0.4840
 3943TIP3   OH236023   5.858   5.680  11.837  0.4373 -0.5017  0.9507
 3943TIP3    H136024   5.914   5.653  11.910 -0.5684  0.6860  2.2040
 3943TIP3    H236025   5.855   5.776  11.843 -1.0256 -0.4852  0.4007
 3944TIP3   OH236026   5.792   0.019   9.453  0.1690 -0.1212 -0.5011
 3944TIP3    H136027   5.702   0.046   9.464  0.6208  1.0533  0.4607
 3944TIP3    H236028   5.791  -0.038   9.376 -1.6311 -1.3990  0.3996
 3945TIP3   OH236029   1.717   4.824  11.580 -0.0029 -0.1992  0.6868
 3945TIP3    H136030   1.681   4.750  11.531  1.5780 -1.4254  1.3033
 3945TIP3    H236031   1.641   4.863  11.624 -1.3356  0.4114 -1.9421
 3946TIP3   OH236032   0.649   4.477  12.231 -0.1913 -0.3192 -0.4110
 3946TIP3    H136033   0.617   4.503  12.317  2.2811 -0.0797  0.5176
 3946TIP3    H236034   0.654   4.558  12.181  2.0160  0.2157  0.5630
 3947TIP3   OH236035   5.266   5.565   9.915 -0.1284 -0.2871 -0.1778
 3947TIP3    H136036   5.220   5.522   9.987 -0.0578  0.7711  0.5269
 3947TIP3    H236037   5.214   5.546   9.837 -0.7542 -0.6122  0.3189
 3948TIP3   OH236038   5.823   1.002  11.336 -0.1016 -0.6332  0.0603
 3948TIP3    H136039   5.888   0.932  11.333  1.3962  0.6914  0.2209
 3948TIP3    H236040   5.792   1.001  11.427 -0.5145 -1.4436 -0.0837
 3949TIP3   OH236041   6.492   2.130  10.967 -0.0906 -0.2434 -0.1361
 3949TIP3    H136042   6.422   2.193  10.984 -0.1690 -0.6173  1.0121
 3949TIP3    H236043   6.571   2.173  10.996 -0.0610 -0.4444  0.0829
 3950TIP3   OH236044   1.189   3.457  11.526  0.0168  0.5286 -0.1839
 3950TIP3    H136045   1.101   3.478  11.556  0.1370 -0.4533  0.9333
 3950TIP3    H236046   1.175   3.407  11.445 -0.5642 -1.1505  0.9013
 3951TIP3   OH236047   5.484   2.513  12.016 -0.9359  0.1229 -0.5581
 3951TIP3    H136048   5.556   2.489  11.957 -0.8207  2.0987 -1.2983
 3951TIP3    H236049   5.423   2.560  11.961 -0.5064  2.6514  0.9789
 3952TIP3   OH236050   4.566   5.000   9.482 -0.0506 -0.5916  0.3039
 3952TIP3    H136051   4.656   5.032   9.480  0.1773 -1.2331 -0.0326
 3952TIP3    H236052   4.546   4.979   9.391 -1.5662  2.2610 -0.1169
 3953TIP3   OH236053   3.454   4.557  11.990  0.0050 -0.5085  0.5700
 3953TIP3    H136054   3.526   4.608  11.953 -0.3998 -1.5582 -1.8569
 3953TIP3    H236055   3.478   4.544  12.081  2.4382 -0.0113  0.0705
 3954TIP3   OH236056   4.204   2.659  10.358  0.0379 -0.0644  0.4442
 3954TIP3    H136057   4.224   2.715  10.433  0.6752  0.3496 -0.0276
 3954TIP3    H236058   4.200   2.719  10.284  0.0530 -0.5562  0.0413
 3955TIP3   OH236059   1.831   6.232   9.410  0.1392 -0.1996  0.1207
 3955TIP3    H136060   1.835   6.139   9.388  0.0909 -0.6005  1.6605
 3955TIP3    H236061   1.817   6.276   9.327  2.6375 -1.3444 -0.9971
 3956TIP3   OH236062   1.511   0.422  10.493 -0.0837  0.0124 -0.0676
 3956TIP3    H136063   1.557   0.442  10.575 -1.5586  1.0179  0.5604
 3956TIP3    H236064   1.562   0.351  10.454  2.3027  1.3829  0.3099
 3957TIP3   OH236065   6.494   2.566  10.389  0.5495 -0.3933  0.4844
 3957TIP3    H136066   6.515   2.513  10.312  0.1051 -1.5629  1.1461
 3957TIP3    H236067   6.399   2.561  10.396  0.5020  0.4686  0.5915
 3958TIP3   OH236068   4.838   3.152   8.965  0.6011  0.2428 -0.4960
 3958TIP3    H136069   4.831   3.075   8.908 -0.1220  0.4930 -0.7612
 3958TIP3    H236070   4.840   3.226   8.904 -2.9389  0.7390 -0.2484
 3959TIP3   OH236071   1.587   5.770   9.856  0.2080 -0.0591 -0.1212
 3959TIP3    H136072   1.524   5.817   9.802 -2.0733  0.0209  2.3840
 3959TIP3    H236073   1.588   5.681   9.821 -0.5823  0.1890 -0.7802
 3960TIP3   OH236074   4.774   1.026   8.510 -0.2496  0.2460  0.2388
 3960TIP3    H136075   4.857   0.986   8.536  0.0190 -0.2598 -1.2689
 3960TIP3    H236076   4.795   1.117   8.492 -0.0353  0.1310 -0.0864
 3961TIP3   OH236077   3.110   5.400  10.003 -0.4864 -0.6806 -1.0021
 3961TIP3    H136078   3.111   5.495  10.001  1.0250 -0.6463 -0.2767
 3961TIP3    H236079   3.035   5.375   9.950 -0.9892  0.9140 -1.0806
 3962TIP3   OH236080   3.793   1.740  10.763  0.4507  0.2739 -0.0769
 3962TIP3    H136081   3.845   1.665  10.734  0.5581  0.3345 -0.0414
 3962TIP3    H236082   3.703   1.713  10.749  0.5067  0.3912 -0.6826
 3963TIP3   OH236083   4.766   0.385  10.908  0.3653  0.2167 -0.1629
 3963TIP3    H136084   4.708   0.310  10.916  0.0238  0.5640  0.7434
 3963TIP3    H236085   4.709   0.457  10.880  0.9230 -0.1416 -2.4094
 3964TIP3   OH236086   1.055   1.063  11.948  0.5209 -0.9375  0.2289
 3964TIP3    H136087   1.123   1.100  12.005  2.1337 -1.6640 -1.1436
 3964TIP3    H236088   1.088   0.976  11.925 -0.4558 -0.9567 -1.1927
 3965TIP3   OH236089   5.747   6.560  10.933  0.2177  0.0538 -0.1454
 3965TIP3    H136090   5.664   6.540  10.977 -1.0869  0.7587 -2.1163
 3965TIP3    H236091   5.762   6.484  10.876 -0.2495  0.8471 -1.3708
 3966TIP3   OH236092   2.945   2.554   9.399 -0.5062  0.2038  0.6457
 3966TIP3    H136093   2.876   2.546   9.333 -1.4252  1.3029  1.4145
 3966TIP3    H236094   3.009   2.613   9.359 -0.6813  0.2542  0.4355
 3967TIP3   OH236095   1.622   3.767   9.124 -0.2907  0.0272  0.5995
 3967TIP3    H136096   1.632   3.851   9.080  0.1560  0.3910  1.3878
 3967TIP3    H236097   1.564   3.717   9.066 -0.0515  0.6406 -0.1919
 3968TIP3   OH236098   5.039   0.740   9.542 -0.2891 -0.0756 -0.6660
 3968TIP3    H136099   5.118   0.717   9.592 -0.7365  0.9994  0.5811
 3968TIP3    H236100   5.060   0.715   9.452  0.8925 -1.2206 -0.1087
 3969TIP3   OH236101   0.501   1.670   9.585 -0.0610  0.3721  0.8774
 3969TIP3    H136102   0.549   1.653   9.504 -0.8558  1.9949  0.0227
 3969TIP3    H236103   0.529   1.758   9.611 -3.9579  2.3472 -0.8037
 3970TIP3   OH236104   3.885   6.037  10.576 -0.7213  0.6433  0.0030
 3970TIP3    H136105   3.948   5.989  10.522 -0.0981 -0.1457  1.3888
 3970TIP3    H236106   3.876   6.122  10.532  2.9548  1.6660  0.8614
 3971TIP3   OH236107   2.812   2.232  11.664 -0.4863  0.5485 -0.3275
 3971TIP3    H136108   2.847   2.296  11.726 -0.2888 -0.1865  0.3396
 3971TIP3    H236109   2.719   2.256  11.655 -0.3878  1.0021 -0.1896
 3972TIP3   OH236110   0.593   0.595   9.940  0.6769 -0.1436  0.2844
 3972TIP3    H136111   0.686   0.573   9.928  0.6886  0.5263 -1.1343
 3972TIP3    H236112   0.593   0.690   9.950  0.1990 -0.2213  1.0496
 3973TIP3   OH236113   2.797   1.842  11.142  0.1721  0.1940 -0.1449
 3973TIP3    H136114   2.711   1.860  11.180 -0.0134  2.6370 -1.5108
 3973TIP3    H236115   2.854   1.829  11.218 -1.3141 -1.2719  0.7869
 3974TIP3   OH236116   0.916   2.982  10.421 -0.1800  0.1158  0.5569
 3974TIP3    H136117   0.966   3.053  10.461  0.4655 -0.1061  0.1612
 3974TIP3    H236118   0.946   2.980  10.330 -0.3878 -0.4873  0.4984
 3975TIP3   OH236119   0.412   2.102  11.361  0.5184  0.0706 -0.4965
 3975TIP3    H136120   0.487   2.127  11.307  1.3209 -1.5228 -0.1863
 3975TIP3    H236121   0.361   2.042  11.306  0.0079  0.3547 -0.3442
 3976TIP3   OH236122   1.981   5.558  10.735 -0.1658 -0.3337 -0.7000
 3976TIP3    H136123   1.986   5.480  10.790  2.1427 -0.2623 -0.6982
 3976TIP3    H236124   1.948   5.527  10.651  2.1928 -1.7258 -1.2287
 3977TIP3   OH236125   0.230   6.249   9.605  0.1552 -0.4382  0.6585
 3977TIP3    H136126   0.157   6.228   9.547  0.8454 -0.2547 -0.3110
 3977TIP3    H236127   0.302   6.194   9.574  0.8844  0.5423  0.5387
 3978TIP3   OH236128   3.112   4.295  10.412 -0.2474  0.8676  0.5662
 3978TIP3    H136129   3.145   4.374  10.368 -2.0590  0.9878 -0.6930
 3978TIP3    H236130   3.087   4.325  10.499  0.4714  1.3441  0.6208
 3979TIP3   OH236131   2.410   0.669  10.564  0.1921  0.5745 -0.0575
 3979TIP3    H136132   2.411   0.643  10.656 -0.2318 -0.1400 -0.2427
 3979TIP3    H236133   2.342   0.736  10.559 -1.0725 -0.6600 -0.1526
 3980TIP3   OH236134   4.633   2.396   9.589 -0.0688  1.2871 -0.1566
 3980TIP3    H136135   4.653   2.403   9.496  0.1933  1.8043 -0.0625
 3980TIP3    H236136   4.610   2.304   9.602 -0.5219  1.3035 -0.8132
 3981TIP3   OH236137   6.111   3.709   9.161  0.2395  0.2589 -0.1797
 3981TIP3    H136138   6.191   3.726   9.112 -1.0115  1.0093 -2.0452
 3981TIP3    H236139   6.109   3.614   9.171  0.1546 -0.0030 -2.3015
 3982TIP3   OH236140   1.531   4.528  10.246  0.5788  0.6452  0.3326
 3982TIP3    H136141   1.586   4.516  10.169  0.8731  0.1296  0.6193
 3982TIP3    H236142   1.445   4.496  10.220  0.7502  0.2006  0.3110
 3983TIP3   OH236143   2.979   4.324  10.633  0.3798  0.0729  0.1902
 3983TIP3    H136144   2.899   4.303  10.584  1.2278  1.0549 -1.7114
 3983TIP3    H236145   2.959   4.407  10.676  0.0118 -0.2457  0.6526
 3984TIP3   OH236146   6.519   2.761  11.488  0.3633  0.0107  0.2156
 3984TIP3    H136147   6.549   2.775  11.398  0.1254  0.6760  0.2355
 3984TIP3    H236148   6.460   2.835  11.505 -1.5847 -1.4285  0.0523
 3985TIP3   OH236149   3.844   4.335  10.351  0.0600  0.5843 -0.1580
 3985TIP3    H136150   3.767   4.351  10.405 -0.5758 -0.9262 -0.5606
 3985TIP3    H236151   3.886   4.259  10.390  0.4893  0.4530 -0.8458
 3986TIP3   OH236152   4.509   3.845  12.133 -0.1074  0.2355  0.3229
 3986TIP3    H136153   4.555   3.837  12.049  0.6564 -0.6574  0.7910
 3986TIP3    H236154   4.529   3.933  12.163  1.5276 -0.1933  0.6067
 3987TIP3   OH236155   5.773   1.965  11.144 -0.5476  1.1351  0.1262
 3987TIP3    H136156   5.775   2.025  11.218  0.3184  1.9482 -0.5226
 3987TIP3    H236157   5.827   2.008  11.077 -1.5629  0.5756 -1.0914
 3988TIP3   OH236158   2.096   3.535  11.149 -0.1461 -0.1213 -0.4778
 3988TIP3    H136159   2.101   3.465  11.214 -0.3924 -0.3344 -0.6844
 3988TIP3    H236160   2.182   3.535  11.108 -0.5865 -1.2858 -1.4712
 3989TIP3   OH236161   2.306   3.695  11.405 -0.4021 -0.3085 -0.4665
 3989TIP3    H136162   2.243   3.740  11.348 -0.0343  0.0162 -0.6231
 3989TIP3    H236163   2.384   3.685  11.351 -0.4853 -1.1586 -0.4352
 3990TIP3   OH236164   6.088   1.342  11.345  0.3495  0.1513 -0.1124
 3990TIP3    H136165   6.045   1.300  11.419  0.1910  0.5160  0.0032
 3990TIP3    H236166   6.091   1.275  11.277  1.7224 -0.6271  0.6866
 3991TIP3   OH236167   2.046   4.429  10.851 -0.2914  0.0768 -0.2341
 3991TIP3    H136168   1.968   4.380  10.878 -1.0590  1.2212 -0.3073
 3991TIP3    H236169   2.020   4.521  10.858  1.3442  0.5011  0.5451
 3992TIP3   OH236170   4.268   3.349  11.471  0.6596  0.3506 -0.2540
 3992TIP3    H136171   4.344   3.292  11.471 -0.2968 -0.9806  0.8008
 3992TIP3    H236172   4.193   3.290  11.483 -0.5297  1.6267 -1.1368
 3993TIP3   OH236173   2.273   5.544  10.130 -0.2050 -0.3649 -0.4090
 3993TIP3    H136174   2.248   5.467  10.079  1.4231 -0.3078 -1.3704
 3993TIP3    H236175   2.353   5.518  10.175 -0.1240  0.4794 -0.0453
 3994TIP3   OH236176   2.411   4.042  11.650  0.5832  0.1509 -0.0237
 3994TIP3    H136177   2.341   4.043  11.584 -0.4505 -0.0253  1.0413
 3994TIP3    H236178   2.426   4.135  11.669 -0.6102  0.1712  0.9879
 3995TIP3   OH236179   4.441   0.935  12.022  0.3123  0.0484 -0.4879
 3995TIP3    H136180   4.373   1.000  12.037 -0.8025 -1.4570  1.2828
 3995TIP3    H236181   4.523   0.981  12.042 -0.4168  1.0425  0.2909
 3996TIP3   OH236182   3.876   0.601  10.758  0.2885  0.3006 -0.3202
 3996TIP3    H136183   3.893   0.679  10.810 -1.0564  0.5105 -0.1611
 3996TIP3    H236184   3.883   0.529  10.821 -1.0520  0.5297  0.1285
 3997TIP3   OH236185   4.128   5.376   9.830  0.2303  0.0511  0.2516
 3997TIP3    H136186   4.146   5.452   9.775  1.0886 -0.3784 -0.0767
 3997TIP3    H236187   4.207   5.322   9.824 -0.8486 -1.5277 -0.6281
 3998TIP3   OH236188   1.553   1.050   9.680  0.3681  0.1897 -0.0949
 3998TIP3    H136189   1.504   0.982   9.634 -1.1792 -0.0656  1.7639
 3998TIP3    H236190   1.489   1.089   9.739  1.9824  1.1354  1.1175
 3999TIP3   OH236191   2.239   6.549  11.084  0.4668  0.2730  0.3429
 3999TIP3    H136192   2.309   6.599  11.126 -0.4336  2.1355 -0.2452
 3999TIP3    H236193   2.212   6.603  11.010  0.0790 -1.5820 -0.9352
 4000TIP3   OH236194   6.695   0.298  10.650 -0.1509  0.6869 -0.0627
 4000TIP3    H136195   6.783   0.290  10.612 -0.6220 -0.7997 -0.9203
 4000TIP3    H236196   6.650   0.362  10.596 -0.2753 -0.1696 -0.9974
 4001TIP3   OH236197   0.947   3.988   9.714  0.1769 -0.4423  0.6853
 4001TIP3    H136198   1.039   3.965   9.720  0.3097 -0.0185  0.3150
 4001TIP3    H236199   0.915   3.941   9.637  0.0707 -0.6305  0.8431
 4002TIP3   OH236200   5.296   4.502   8.424  0.3487 -0.2590  0.0045
 4002TIP3    H136201   5.379   4.539   8.454  1.3888 -1.0867 -1.6848
 4002TIP3    H236202   5.311   4.479   8.333 -1.3766 -1.5272 -0.0280
 4003TIP3   OH236203   5.184   0.200  11.325  0.0460  0.3119  0.0134
 4003TIP3    H136204   5.263   0.222  11.276 -0.7466  1.0669 -0.9624
 4003TIP3    H236205   5.112   0.235  11.272 -1.0856 -1.9422 -0.0603
 4004TIP3   OH236206   4.242   4.354   9.990 -0.3853  0.1379 -0.6859
 4004TIP3    H136207   4.262   4.444   9.966 -1.2136  0.3518 -0.6070
 4004TIP3    H236208   4.161   4.361  10.041  1.0229 -0.3111  1.8214
 4005TIP3   OH236209   0.921   5.260  11.813  0.1581  0.3737  0.2832
 4005TIP3    H136210   0.877   5.345  11.816 -0.1561  0.2781 -1.0901
 4005TIP3    H236211   1.000   5.275  11.761  0.6061  0.0437  0.8593
 4006TIP3   OH236212   5.284   1.047   9.341 -0.0535  0.9518  0.0039
 4006TIP3    H136213   5.300   1.043   9.435  0.1724 -0.9265 -0.0841
 4006TIP3    H236214   5.369   1.032   9.301 -0.8455 -3.6165 -0.4454
 4007TIP3   OH236215   5.080   2.682  12.011 -0.8330 -0.3867 -0.4861
 4007TIP3    H136216   5.108   2.608  12.065 -0.0293  0.1874 -0.1152
 4007TIP3    H236217   5.030   2.641  11.940 -2.2426 -1.1217  0.8582
 4008TIP3   OH236218   0.641   2.861   9.447 -0.3310 -0.0229  0.5388
 4008TIP3    H136219   0.706   2.796   9.475 -0.8283 -0.4449  0.7238
 4008TIP3    H236220   0.689   2.944   9.445  0.7554 -0.6435 -1.3256
 4009TIP3   OH236221   5.669   0.802   9.968  0.0048  0.1313  0.0847
 4009TIP3    H136222   5.651   0.893   9.991  1.1270  0.3077  0.3288
 4009TIP3    H236223   5.604   0.751  10.015  0.6702  0.6652  1.6409
 4010TIP3   OH236224   6.378   5.374  10.554  0.1776 -0.0855  0.2137
 4010TIP3    H136225   6.326   5.371  10.634 -0.3012  0.9195 -0.0396
 4010TIP3    H236226   6.313   5.367  10.483  0.5166 -0.1694 -0.0927
 4011TIP3   OH236227   5.983   2.362  10.835  0.2250  0.1097  0.0014
 4011TIP3    H136228   6.078   2.365  10.823  0.1131 -0.9285 -1.4676
 4011TIP3    H236229   5.957   2.282  10.790 -1.0965 -0.8697  2.3392
 4012TIP3   OH236230   1.950   1.658  11.684  0.1911 -0.1386  0.0677
 4012TIP3    H136231   1.890   1.600  11.731 -0.0235 -0.8838 -1.0836
 4012TIP3    H236232   1.943   1.631  11.592  1.7818  0.2192 -0.1904
 4013TIP3   OH236233   5.105   0.392  11.950  0.5415 -0.0706  0.0177
 4013TIP3    H136234   5.013   0.396  11.924  0.2155 -0.6997  1.0141
 4013TIP3    H236235   5.130   0.301  11.937  0.9018  0.0115  0.1283
 4014TIP3   OH236236   6.458   5.089  10.508  0.1135  0.0459  0.3394
 4014TIP3    H136237   6.370   5.053  10.522  0.5310 -1.6614 -1.0870
 4014TIP3    H236238   6.450   5.181  10.531 -1.9585 -0.1479  0.5987
 4015TIP3   OH236239   0.203   0.035  11.645 -0.1075 -0.5641 -0.5907
 4015TIP3    H136240   0.148  -0.008  11.710 -0.7058 -0.9146 -1.3181
 4015TIP3    H236241   0.142   0.083  11.589  0.3818 -0.3893 -0.9839
 4016TIP3   OH236242   6.281   0.574  10.657  0.5542  0.4107 -0.4005
 4016TIP3    H136243   6.190   0.544  10.648  0.2441  0.8911  0.8993
 4016TIP3    H236244   6.274   0.669  10.666  1.1229  0.3963  0.3270
 4017TIP3   OH236245   5.979   4.016   8.642 -0.0239 -0.0088 -0.1512
 4017TIP3    H136246   5.890   4.050   8.649 -0.5178 -1.4046  0.9276
 4017TIP3    H236247   6.032   4.076   8.694 -0.5611  0.1142  0.2637
 4018TIP3   OH236248   2.466   6.100  11.829  0.1067 -0.1475  0.4015
 4018TIP3    H136249   2.461   6.070  11.920 -1.4145 -0.4904  0.2197
 4018TIP3    H236250   2.472   6.195  11.835 -0.3024 -0.1498  0.8475
 4019TIP3   OH236251   3.805   5.102  10.757 -0.6743 -0.0947 -0.0065
 4019TIP3    H136252   3.849   5.116  10.841  2.0970 -0.5700 -1.2478
 4019TIP3    H236253   3.796   5.189  10.719  1.3837 -0.1189 -0.6788
 4020TIP3   OH236254   2.168   2.724  12.190 -0.4934  0.2209  0.0634
 4020TIP3    H136255   2.170   2.818  12.172  1.0825  0.4779  1.3796
 4020TIP3    H236256   2.082   2.710  12.228 -0.6646  1.1708  0.0688
 4021TIP3   OH236257   1.075   2.649   9.649  0.1288  0.5629 -0.1267
 4021TIP3    H136258   1.097   2.684   9.736  1.7100  0.3814 -0.4098
 4021TIP3    H236259   1.084   2.724   9.590 -0.3818  0.5577 -0.2117
 4022TIP3   OH236260   3.989   5.798   9.954  0.0883  0.5324  0.5602
 4022TIP3    H136261   3.997   5.707   9.982 -2.0438  0.6448  1.7748
 4022TIP3    H236262   4.067   5.841   9.988  0.3422 -0.5324  1.3725
 4023TIP3   OH236263   1.630   6.288  11.032  0.3292 -0.1325 -0.1447
 4023TIP3    H136264   1.685   6.278  10.955 -0.3968 -2.1802 -0.4544
 4023TIP3    H236265   1.542   6.297  10.997  0.1837  0.6726  0.4126
 4024TIP3   OH236266   0.330   0.477  11.599 -0.1096  0.5606 -0.0320
 4024TIP3    H136267   0.237   0.499  11.604 -0.1251  0.2350  2.8824
 4024TIP3    H236268   0.340   0.402  11.658  1.9024  0.1375 -0.8377
 4025TIP3   OH236269   1.287   0.290  10.171  0.2669  0.7844  0.3140
 4025TIP3    H136270   1.291   0.254  10.082 -1.2130 -0.5246  0.7427
 4025TIP3    H236271   1.371   0.264  10.211  0.5058  0.4975 -0.3622
 4026TIP3   OH236272   3.194   6.486   9.537 -0.1309  0.3732  0.4498
 4026TIP3    H136273   3.227   6.575   9.526  1.2332 -0.1877 -0.3320
 4026TIP3    H236274   3.268   6.437   9.572 -1.2512 -0.2099  2.1128
 4027TIP3   OH236275   0.263   0.264  11.143 -0.3560  0.5207 -0.4606
 4027TIP3    H136276   0.222   0.349  11.163 -0.3210  0.0638  1.9301
 4027TIP3    H236277   0.201   0.220  11.085 -1.4454  1.3340  0.0427
 4028TIP3   OH236278   2.983   6.166   8.970  0.1214  0.1766 -0.2050
 4028TIP3    H136279   2.910   6.215   8.931 -0.4241  1.3220  2.0817
 4028TIP3    H236280   3.049   6.233   8.990  0.6252 -0.4453  0.2874
 4029TIP3   OH236281   1.509   2.018  10.330 -0.1634 -0.0584 -0.2054
 4029TIP3    H136282   1.438   1.998  10.391  0.3959 -1.8528 -0.0623
 4029TIP3    H236283   1.571   1.946  10.342  1.3168  1.0526 -0.8798
 4030TIP3   OH236284   4.014   6.102   9.384 -0.2968 -0.1644  0.2877
 4030TIP3    H136285   4.000   6.070   9.295  1.1363 -0.1661  0.0417
 4030TIP3    H236286   4.085   6.048   9.418 -1.5019 -0.8512  1.8118
 4031TIP3   OH236287   3.996   0.775   9.089  0.1937  0.1674 -0.2324
 4031TIP3    H136288   3.971   0.691   9.050 -2.1479  1.1394 -1.0307
 4031TIP3    H236289   3.999   0.758   9.183 -1.2646 -0.6276 -0.2986
 4032TIP3   OH236290   2.166   4.932  11.342  0.1552 -0.3635  0.3424
 4032TIP3    H136291   2.256   4.900  11.332 -0.1383 -0.9473 -0.6786
 4032TIP3    H236292   2.154   4.941  11.436  1.3406 -0.1032  0.4865
 4033TIP3   OH236293   2.478   4.005   9.379 -0.5905  0.8676  0.7258
 4033TIP3    H136294   2.518   3.927   9.417 -1.7054  0.3792  0.9281
 4033TIP3    H236295   2.410   4.030   9.441  0.0839  2.3316  0.9336
 4034TIP3   OH236296   0.955   1.567  10.342 -0.3674  0.2341  0.8452
 4034TIP3    H136297   0.993   1.567  10.430 -1.1070 -0.4764  1.1739
 4034TIP3    H236298   0.922   1.656  10.329 -0.1805  0.3612  1.2511
 4035TIP3   OH236299   3.461   6.489  10.048  0.2913  0.1091  0.4025
 4035TIP3    H136300   3.398   6.441  10.100 -0.6612  1.0189  0.1186
 4035TIP3    H236301   3.417   6.571  10.026  0.9518  0.0907 -1.1630
 4036TIP3   OH236302   4.817   1.782  11.039 -0.0876 -0.3761  0.8910
 4036TIP3    H136303   4.807   1.874  11.015 -0.4494 -0.9031 -1.0929
 4036TIP3    H236304   4.909   1.774  11.063  0.1821  0.2880  0.1258
 4037TIP3   OH236305   3.184   2.600   9.981  0.4875 -0.4240  0.6575
 4037TIP3    H136306   3.266   2.642   9.955  0.3061 -0.6549 -0.3010
 4037TIP3    H236307   3.172   2.529   9.918 -0.2966 -0.5918  0.9817
 4038TIP3   OH236308   3.693   0.059  11.047  0.0503 -0.0248 -0.0809
 4038TIP3    H136309   3.758   0.007  11.095  0.8239 -0.4090 -1.4855
 4038TIP3    H236310   3.609   0.035  11.087  0.7007  0.1403  1.4740
 4039TIP3   OH236311   6.574   6.667   9.850 -0.0512  0.0187  0.2387
 4039TIP3    H136312   6.568   6.627   9.937 -3.1332 -1.5195 -0.5473
 4039TIP3    H236313   6.549   6.758   9.864 -0.7975 -0.2816  0.9842
 4040TIP3   OH236314   1.236   1.572  12.155 -0.0045  0.5014 -0.0087
 4040TIP3    H136315   1.187   1.654  12.153 -1.8475 -0.4878  1.6601
 4040TIP3    H236316   1.183   1.510  12.106  1.5577  0.3407 -1.5837
 4041TIP3   OH236317   0.399   3.226   9.346 -0.8283 -0.5295 -0.3483
 4041TIP3    H136318   0.369   3.286   9.414 -1.1290  0.0620 -0.9867
 4041TIP3    H236319   0.386   3.139   9.383  1.7848 -0.2363  1.5418
 4042TIP3   OH236320   3.080   3.051   9.954 -0.0796  0.6888  0.6253
 4042TIP3    H136321   3.037   2.976   9.997  0.0564  0.9445  1.2166
 4042TIP3    H236322   3.151   3.011   9.904 -1.1964  0.2153 -0.6703
 4043TIP3   OH236323   2.146   4.723  12.131 -0.1926 -0.3802  0.2357
 4043TIP3    H136324   2.109   4.803  12.168 -2.6122 -0.4891 -1.7107
 4043TIP3    H236325   2.213   4.754  12.070  0.0674  0.0306  0.7162
 4044TIP3   OH236326   1.223   5.381   9.556 -0.3102 -0.2756  0.0184
 4044TIP3    H136327   1.170   5.460   9.556 -0.2282 -0.2203 -0.1854
 4044TIP3    H236328   1.313   5.411   9.563 -0.3687 -0.4275  2.1091
 4045TIP3   OH236329   6.548   2.931   9.021 -0.5008  0.1342  0.1576
 4045TIP3    H136330   6.509   2.844   9.023  1.0962 -0.7096 -1.9508
 4045TIP3    H236331   6.643   2.915   9.020 -0.1213  1.9726  1.3807
 4046TIP3   OH236332   5.601   1.955  11.727 -0.0228 -0.2808  0.1268
 4046TIP3    H136333   5.515   1.990  11.704 -1.3576 -2.4806  1.3260
 4046TIP3    H236334   5.600   1.865  11.693  1.7150 -0.4427  0.3996
 4047TIP3   OH236335   3.031   2.701   8.930  0.4094  0.2025  0.2150
 4047TIP3    H136336   3.056   2.667   8.844 -0.6156  0.1598 -0.0849
 4047TIP3    H236337   3.110   2.745   8.962  1.1412 -0.7273 -0.2595
 4048TIP3   OH236338   4.318   2.803   9.666 -0.0590 -0.1793 -0.2542
 4048TIP3    H136339   4.341   2.761   9.748  0.4786 -2.1913 -1.3704
 4048TIP3    H236340   4.392   2.786   9.608 -1.1110 -0.2469 -1.6522
 4049TIP3   OH236341   0.219   1.157  12.145 -0.5399  0.0892 -0.0911
 4049TIP3    H136342   0.293   1.199  12.100  1.6600 -1.7869  1.5369
 4049TIP3    H236343   0.240   1.064  12.145 -2.1287 -0.3407  1.7904
 4050TIP3   OH236344   5.389   3.542   8.556  0.2812 -0.2324 -0.6803
 4050TIP3    H136345   5.467   3.536   8.501  0.3863  2.5684 -0.9859
 4050TIP3    H236346   5.349   3.626   8.532 -1.4672 -0.4335  1.2273
 4051TIP3   OH236347   1.827   1.711  11.037 -0.4030 -0.6916 -0.5343
 4051TIP3    H136348   1.832   1.671  10.951 -1.1749  0.6464 -1.2340
 4051TIP3    H236349   1.751   1.770  11.032 -0.6019 -0.7502  1.1270
 4052TIP3   OH236350   0.627   4.694  10.019  0.1730 -0.1130 -0.0967
 4052TIP3    H136351   0.636   4.747  10.099 -1.3293  1.3470 -0.8333
 4052TIP3    H236352   0.569   4.745   9.963  0.9297 -1.2722 -2.0132
 4053TIP3   OH236353   1.244   5.321  10.447  0.7290  0.0041  0.3446
 4053TIP3    H136354   1.169   5.276  10.485 -0.2467  1.7178  0.5199
 4053TIP3    H236355   1.233   5.313  10.352  0.1135  0.5534  0.3645
 4054TIP3   OH236356   4.577   5.113   9.959 -0.0198 -0.2688  0.2230
 4054TIP3    H136357   4.596   5.059  10.036 -1.3294 -0.9173  0.1094
 4054TIP3    H236358   4.661   5.153   9.937  0.4399 -0.3168  1.7967
 4055TIP3   OH236359   3.442   1.711   9.882  0.0019  0.4826 -0.1843
 4055TIP3    H136360   3.518   1.703   9.940 -0.5808 -1.6953  0.3914
 4055TIP3    H236361   3.438   1.804   9.859  1.8787  0.9165  1.0544
 4056TIP3   OH236362   5.641   0.357   9.851 -0.4949 -0.3468  0.5437
 4056TIP3    H136363   5.683   0.418   9.911 -2.2400 -0.4762  2.0025
 4056TIP3    H236364   5.640   0.403   9.767  0.0577  0.7715  1.1216
 4057TIP3   OH236365   1.331   5.683   8.975 -0.6711  0.1598 -0.3453
 4057TIP3    H136366   1.251   5.658   9.021 -0.0779 -0.1721  0.5358
 4057TIP3    H236367   1.300   5.724   8.894 -1.7288  0.1474  0.0318
 4058TIP3   OH236368   6.070   4.503   9.700 -0.4058 -0.0031 -0.3007
 4058TIP3    H136369   6.048   4.443   9.629 -0.5317 -1.0257  0.5764
 4058TIP3    H236370   6.162   4.523   9.687 -0.5586  0.2233 -1.0459
 4059TIP3   OH236371   0.867   1.235  11.500 -0.0133  0.1172 -0.0915
 4059TIP3    H136372   0.839   1.326  11.512  0.1921  0.3938 -1.4513
 4059TIP3    H236373   0.786   1.185  11.489 -0.2100 -0.1621  2.2231
 4060TIP3   OH236374   4.490   1.390  10.597 -0.0807 -0.3405  0.3630
 4060TIP3    H136375   4.535   1.314  10.559  1.7365  1.1890 -0.7391
 4060TIP3    H236376   4.415   1.405  10.540  0.5715 -0.2518 -0.4843
 4061TIP3   OH236377   1.692   0.169  10.516 -0.1182 -0.1134  0.1468
 4061TIP3    H136378   1.785   0.185  10.498  0.4395 -1.1916  1.7998
 4061TIP3    H236379   1.688   0.155  10.610 -2.0481  0.3179  0.1665
 4062TIP3   OH236380   3.740   2.416  10.119 -0.1188  0.6111  0.3902
 4062TIP3    H136381   3.747   2.507  10.150 -1.6074  1.3770 -1.3461
 4062TIP3    H236382   3.648   2.405  10.099  0.1583 -1.1082 -0.0353
 4063TIP3   OH236383   1.349   4.632  11.556 -0.2963  0.0296 -0.2115
 4063TIP3    H136384   1.395   4.662  11.478  0.8426  1.5972  1.0041
 4063TIP3    H236385   1.418   4.614  11.620 -1.1687 -1.7838  0.3042
 4064TIP3   OH236386   4.997   1.781   8.791  0.2842 -0.2433 -0.1614
 4064TIP3    H136387   4.959   1.700   8.823 -0.5337 -0.0360 -0.5662
 4064TIP3    H236388   4.955   1.795   8.706  1.6768 -0.2870 -0.8917
 4065TIP3   OH236389   6.034   4.714  10.969 -0.0068  0.3783  0.3933
 4065TIP3    H136390   6.016   4.645  10.905  0.9897 -0.7124  1.2501
 4065TIP3    H236391   6.087   4.778  10.920 -2.7296  1.7038 -1.0346
 4066TIP3   OH236392   5.907   3.134  11.408 -0.1758  0.0174 -0.6468
 4066TIP3    H136393   6.000   3.157  11.419 -0.5704  1.1711  0.5220
 4066TIP3    H236394   5.903   3.041  11.428  0.5438  0.2369  0.6144
 4067TIP3   OH236395   6.347   3.764   9.042  0.4324 -0.1072 -0.4854
 4067TIP3    H136396   6.392   3.704   8.983 -0.6484 -0.2795 -1.1655
 4067TIP3    H236397   6.373   3.851   9.012 -0.9552 -0.1485 -1.9948
 4068TIP3   OH236398   6.600   2.140  11.486 -0.2187  0.0087  0.0864
 4068TIP3    H136399   6.636   2.053  11.501 -2.4966 -1.0890 -0.3403
 4068TIP3    H236400   6.506   2.126  11.476 -0.7148  2.5786  0.3368
 4069TIP3   OH236401   1.639   3.982  10.002 -0.3501 -0.0267  0.2655
 4069TIP3    H136402   1.683   4.060   9.969  0.0392 -1.2209 -2.2711
 4069TIP3    H236403   1.709   3.919  10.018 -0.8890 -1.2927 -1.9674
 4070TIP3   OH236404   2.788   0.542  10.105 -0.0697 -0.1003  0.0187
 4070TIP3    H136405   2.821   0.619  10.151 -0.0988 -0.5698  0.8462
 4070TIP3    H236406   2.750   0.488  10.173 -0.0384 -0.8598 -0.5491
 4071TIP3   OH236407   2.876   5.942   9.132  0.3636  0.2497 -0.2053
 4071TIP3    H136408   2.792   5.916   9.094 -0.2361  1.3440  0.3184
 4071TIP3    H236409   2.918   5.995   9.064  0.0896  0.6978 -0.0321
 4072TIP3   OH236410   4.758   1.493  11.849  0.5221  0.1348  0.4313
 4072TIP3    H136411   4.849   1.481  11.878  0.0628 -2.2599  1.0140
 4072TIP3    H236412   4.758   1.461  11.759 -0.0173 -1.3232  0.9176
 4073TIP3   OH236413   1.510   4.932  11.749  0.1183 -0.0708  0.7643
 4073TIP3    H136414   1.417   4.954  11.741  0.1430 -0.5669 -1.6154
 4073TIP3    H236415   1.554   5.016  11.761 -0.5194  0.2930  0.6058
 4074TIP3   OH236416   3.080   1.257   9.450 -0.4757  0.5650 -0.0554
 4074TIP3    H136417   3.114   1.168   9.458 -0.3485  0.4041 -1.8715
 4074TIP3    H236418   3.070   1.270   9.355 -1.5317  2.0939  0.2295
 4075TIP3   OH236419   3.684   5.595   9.132 -0.2396 -0.0624 -0.2770
 4075TIP3    H136420   3.635   5.589   9.214 -2.5329  2.8300 -1.2476
 4075TIP3    H236421   3.733   5.677   9.140 -2.0943  1.3963 -2.4171
 4076TIP3   OH236422   0.511   5.742  11.299  0.0231  0.4707 -0.2038
 4076TIP3    H136423   0.555   5.697  11.372  0.0235 -3.2408 -2.2247
 4076TIP3    H236424   0.580   5.753  11.233 -0.5244  1.3562 -0.6328
 4077TIP3   OH236425   2.570   5.512  10.125  0.4256 -0.4924  0.3533
 4077TIP3    H136426   2.638   5.454  10.158 -1.7704 -2.7596  1.2277
 4077TIP3    H236427   2.536   5.467  10.048 -2.1265 -1.0937  1.7230
 4078TIP3   OH236428   5.876   4.165   9.999  0.4586 -0.0826 -0.3162
 4078TIP3    H136429   5.944   4.134  10.059  0.8508 -0.9247 -1.1779
 4078TIP3    H236430   5.794   4.140  10.042  0.6664  0.8205  0.6647
 4079TIP3   OH236431   0.785   3.822  11.719  0.2876 -0.3561 -0.3675
 4079TIP3    H136432   0.731   3.757  11.764 -0.1773 -0.7158 -1.3996
 4079TIP3    H236433   0.744   3.905  11.740 -0.2519 -0.5670 -0.5600
 4080TIP3   OH236434   1.141   4.934  10.511  0.1153 -0.4211  0.3471
 4080TIP3    H136435   1.195   4.959  10.436 -0.5801  2.0408  0.5799
 4080TIP3    H236436   1.195   4.871  10.559  1.0078 -1.2359 -1.6066
 4081TIP3   OH236437   3.849   1.565   9.599  0.5601  0.6874  0.2409
 4081TIP3    H136438   3.881   1.503   9.664 -0.2117  1.2981  1.2343
 4081TIP3    H236439   3.754   1.548   9.595  0.2616  2.0900  0.8811
 4082TIP3   OH236440   1.668   4.670   9.584  0.2554  0.6658  0.1272
 4082TIP3    H136441   1.649   4.764   9.577  1.2581  0.8084 -0.9308
 4082TIP3    H236442   1.757   4.665   9.617 -0.5362  0.0273  2.3272
 4083TIP3   OH236443   5.055   5.089   9.733 -0.1715 -0.2277  0.3931
 4083TIP3    H136444   5.146   5.120   9.736 -0.3703  0.3853  0.3650
 4083TIP3    H236445   5.017   5.120   9.815 -0.8888  1.2960 -0.4604
 4084TIP3   OH236446   4.226   2.559  11.386  0.0589  0.4535 -0.1385
 4084TIP3    H136447   4.186   2.494  11.328 -0.9209  1.4777 -0.6468
 4084TIP3    H236448   4.258   2.627  11.327 -0.7171  1.3843  0.4739
 4085TIP3   OH236449   3.809   0.535   8.979 -0.0892 -0.2126  0.0881
 4085TIP3    H136450   3.816   0.575   8.892 -0.8881  1.4639  0.7577
 4085TIP3    H236451   3.811   0.440   8.961 -1.4429  0.0545 -1.8788
 4086TIP3   OH236452   6.594   5.627  10.167 -0.3212 -0.1043  0.0972
 4086TIP3    H136453   6.581   5.623  10.262  2.6272  0.5779  0.6181
 4086TIP3    H236454   6.684   5.598  10.153 -0.9704 -1.1093 -2.6332
 4087TIP3   OH236455   2.479   6.607  10.012  0.0993  0.0059 -0.5781
 4087TIP3    H136456   2.493   6.520  10.048 -0.5762  0.0213 -0.2611
 4087TIP3    H236457   2.385   6.610   9.992 -0.2730  1.2979  1.1662
 4088TIP3   OH236458   6.449   0.206   9.869 -0.2268 -0.3106  0.1221
 4088TIP3    H136459   6.359   0.228   9.843  0.3334  2.9832  0.4929
 4088TIP3    H236460   6.503   0.246   9.801  1.0114 -1.6202  0.3020
 4089TIP3   OH236461   0.625   0.817  11.633  0.0245  0.5049  0.4532
 4089TIP3    H136462   0.546   0.797  11.683  0.3499 -0.3836  0.6307
 4089TIP3    H236463   0.595   0.824  11.543 -0.4321  1.2923  0.6521
 4090TIP3   OH236464   3.347   3.027  10.559  0.4926  0.1061 -0.4959
 4090TIP3    H136465   3.331   3.009  10.466 -0.7909 -0.4455 -0.2043
 4090TIP3    H236466   3.301   3.109  10.576  1.3048  0.5641 -0.4969
 4091TIP3   OH236467   0.240   1.676  10.203  0.0994  0.0428 -0.1251
 4091TIP3    H136468   0.177   1.606  10.222 -0.1435  0.6656  1.6052
 4091TIP3    H236469   0.213   1.711  10.118 -1.2151 -0.4352  0.0664
 4092TIP3   OH236470   4.506   6.368   9.782  0.4719  0.1070 -0.3627
 4092TIP3    H136471   4.425   6.389   9.829 -0.3668 -1.6123 -0.9539
 4092TIP3    H236472   4.483   6.378   9.690  0.6849 -1.0803 -0.5650
 4093TIP3   OH236473   0.890   4.263  10.588 -0.2946  0.4557  0.2718
 4093TIP3    H136474   0.983   4.283  10.597  0.5299 -1.2441 -2.8007
 4093TIP3    H236475   0.851   4.290  10.671  3.2859 -0.7410  2.5726
 4094TIP3   OH236476   2.139   1.073  11.240 -0.0929  0.0824  0.2249
 4094TIP3    H136477   2.104   1.120  11.316 -0.1070  1.5371 -0.6421
 4094TIP3    H236478   2.073   1.085  11.172  1.8244  2.6188 -1.3547
 4095TIP3   OH236479   2.758   2.005  10.015  0.7601  0.1808  0.2881
 4095TIP3    H136480   2.806   2.001  10.097  1.4051  1.8080  0.0328
 4095TIP3    H236481   2.764   1.917   9.979 -1.9521 -1.4009  3.2651
 4096TIP3   OH236482   5.437   3.008   8.873  0.0925 -0.4888 -0.7096
 4096TIP3    H136483   5.418   3.027   8.781  0.7150  0.3564 -0.6758
 4096TIP3    H236484   5.409   3.087   8.920 -1.4238 -1.4112 -0.0011
 4097TIP3   OH236485   4.737   0.909  11.754  0.3789  0.2970 -0.5771
 4097TIP3    H136486   4.762   0.862  11.833 -1.4788  1.1663  0.6129
 4097TIP3    H236487   4.782   0.994  11.760 -1.5875  1.3354  0.8860
 4098TIP3   OH236488   1.809   2.302   9.432 -0.1659 -0.0998  0.4872
 4098TIP3    H136489   1.902   2.317   9.417  0.0414 -1.7295 -0.1684
 4098TIP3    H236490   1.771   2.299   9.344 -0.9273  0.9301  0.7612
 4099TIP3   OH236491   1.390   5.604  10.357 -0.1921 -0.7330  0.3388
 4099TIP3    H136492   1.318   5.589  10.418  1.0646 -1.8284  1.6139
 4099TIP3    H236493   1.465   5.623  10.412  0.2957  1.6189 -0.9986
 4100TIP3   OH236494   5.096   4.748  11.147 -0.2791  0.6542  0.3291
 4100TIP3    H136495   5.108   4.681  11.079 -0.9663  1.1904 -0.3428
 4100TIP3    H236496   5.182   4.788  11.157 -0.6944  2.4116 -2.2207
 4101TIP3   OH236497   1.559   6.021  11.072  0.3131  0.5331  0.2160
 4101TIP3    H136498   1.607   6.104  11.081  1.3444  0.0918 -0.9443
 4101TIP3    H236499   1.625   5.958  11.044 -0.5118 -0.6450  0.8531
 4102TIP3   OH236500   5.801   4.145   9.017  0.4404 -0.1596  0.1286
 4102TIP3    H136501   5.733   4.132   9.084  1.2310  1.5827  1.3621
 4102TIP3    H236502   5.753   4.168   8.938 -0.4625  0.7366  0.9013
 4103TIP3   OH236503   6.004   0.581  10.994  0.3508 -0.2101  0.0799
 4103TIP3    H136504   5.992   0.492  10.962  0.6978  0.1356 -1.0591
 4103TIP3    H236505   5.926   0.628  10.964  0.7671  0.1628 -0.4365
 4104TIP3   OH236506   0.689   5.353  10.190  0.0305  0.5383 -0.2763
 4104TIP3    H136507   0.736   5.277  10.224  0.8690  0.7407 -0.9474
 4104TIP3    H236508   0.636   5.383  10.263  1.4554  0.7074  0.7182
 4105TIP3   OH236509   6.451   3.901   8.653  0.8025 -0.0560 -0.2381
 4105TIP3    H136510   6.429   3.858   8.571 -1.2676  0.8363 -0.2264
 4105TIP3    H236511   6.515   3.968   8.629  1.4460 -0.8710 -0.8220
 4106TIP3   OH236512   2.617   0.108  11.931 -0.4792 -0.3769  0.6449
 4106TIP3    H136513   2.527   0.136  11.949 -0.9439 -1.0871 -0.4643
 4106TIP3    H236514   2.613   0.070  11.843  1.2905  1.2451 -0.1959
 4107TIP3   OH236515   0.546   3.864  12.487 -0.5768  0.3132 -0.2375
 4107TIP3    H136516   0.600   3.837  12.413 -1.0082  0.2082 -0.5124
 4107TIP3    H236517   0.603   3.852  12.563  0.4683  1.9846 -0.6889
 4108TIP3   OH236518   4.555   6.391   9.501  0.6267 -0.3151 -0.0045
 4108TIP3    H136519   4.544   6.486   9.499 -0.0048 -0.2004  3.3096
 4108TIP3    H236520   4.479   6.358   9.452 -0.6067  0.9029  0.9762
 4109TIP3   OH236521   3.479   1.405  11.899  0.6000 -0.6995  0.0912
 4109TIP3    H136522   3.423   1.477  11.927 -1.1310 -0.8840 -2.5837
 4109TIP3    H236523   3.429   1.326  11.921  0.0994 -0.8891 -1.5977
 4110TIP3   OH236524   5.427   5.115  10.319  0.0683  0.1195 -0.8156
 4110TIP3    H136525   5.521   5.097  10.314 -0.1027 -1.7415  0.9652
 4110TIP3    H236526   5.406   5.106  10.412 -2.1704 -1.4117 -1.3686
 4111TIP3   OH236527   0.140   0.493  11.007 -0.2925 -0.3296  0.1854
 4111TIP3    H136528   0.186   0.545  11.074  1.2048 -1.2531 -0.0726
 4111TIP3    H236529   0.098   0.558  10.951  0.4509  0.5558  0.6235
 4112TIP3   OH236530   5.345   4.848  11.208 -0.4596 -0.0229  0.1550
 4112TIP3    H136531   5.437   4.864  11.185 -0.5808  1.3829  0.5314
 4112TIP3    H236532   5.349   4.794  11.287  0.0035 -1.5429 -0.8736
 4113TIP3   OH236533   5.357   1.374   8.662  0.0471 -0.7016  0.2457
 4113TIP3    H136534   5.280   1.317   8.653  0.4159 -0.9033 -2.1620
 4113TIP3    H236535   5.320   1.462   8.671 -0.4659 -1.0107  1.4799
 4114TIP3   OH236536   2.135   0.908  12.388 -1.0863  0.3888  0.3305
 4114TIP3    H136537   2.115   0.995  12.355  1.2058  0.2452 -1.7347
 4114TIP3    H236538   2.169   0.922  12.476 -1.3950  1.4800  0.2843
 4115TIP3   OH236539   3.014   2.460  11.556 -0.0030 -0.5937  0.8082
 4115TIP3    H136540   2.997   2.513  11.635  3.3602  0.7941  0.7700
 4115TIP3    H236541   3.092   2.500  11.517 -1.2564 -1.5130 -3.0504
 4116TIP3   OH236542   4.727   4.502  11.627  0.4398  0.5528  0.4481
 4116TIP3    H136543   4.733   4.596  11.647  1.8818  1.2916 -2.7660
 4116TIP3    H236544   4.646   4.493  11.578  0.1789  0.0270  0.9571
 4117TIP3   OH236545   2.831   3.834   9.810 -0.1166  0.2999 -0.4140
 4117TIP3    H136546   2.921   3.810   9.834 -0.7056  0.6212  2.3605
 4117TIP3    H236547   2.827   3.929   9.820 -0.9171  0.2288  0.0018
 4118TIP3   OH236548   4.416   3.675  10.943 -0.1728  0.1488  0.1216
 4118TIP3    H136549   4.384   3.756  10.903  0.4483  0.5215  0.3458
 4118TIP3    H236550   4.459   3.628  10.872 -1.2190 -0.3629 -0.1834
 4119TIP3   OH236551   5.717   5.278  11.454  0.2691 -0.1991  0.6856
 4119TIP3    H136552   5.786   5.226  11.413  0.6215  0.3939  0.5215
 4119TIP3    H236553   5.756   5.311  11.535 -0.1480 -0.6589  1.0908
 4120TIP3   OH236554   2.339   2.396  11.499 -0.7105  0.2035 -0.0982
 4120TIP3    H136555   2.266   2.341  11.470 -0.2801  0.0410 -0.8948
 4120TIP3    H236556   2.398   2.401  11.424  0.0504  0.4283  0.4901
 4121TIP3   OH236557   3.795   5.043  11.859 -0.1580 -0.3120 -0.0152
 4121TIP3    H136558   3.769   4.983  11.929 -0.3953 -0.3093 -0.1018
 4121TIP3    H236559   3.716   5.093  11.839 -0.0296 -0.1521 -0.1263
 4122TIP3   OH236560   0.909   5.895   9.496 -0.7873  0.4358  0.2724
 4122TIP3    H136561   0.841   5.962   9.504 -0.6905  0.4613  1.0355
 4122TIP3    H236562   0.924   5.887   9.402  1.0937  3.4058  0.1676
 4123TIP3   OH236563   0.758   1.760  11.330 -0.1052  0.3329 -0.1072
 4123TIP3    H136564   0.690   1.815  11.370 -0.7300 -0.2322 -0.3749
 4123TIP3    H236565   0.743   1.673  11.365 -0.0868  0.0147 -0.8656
 4124TIP3   OH236566   0.610   0.869  10.741 -0.2203  0.6421  0.4267
 4124TIP3    H136567   0.644   0.955  10.716  2.0551  0.0865  1.2999
 4124TIP3    H236568   0.688   0.813  10.746 -1.8292 -2.6578 -4.1506
 4125TIP3   OH236569   1.490   6.101  10.261 -0.9726  0.1343 -0.0524
 4125TIP3    H136570   1.438   6.130  10.336 -0.2409  1.5193 -0.0425
 4125TIP3    H236571   1.562   6.051  10.300 -1.2812 -0.2193  0.0683
 4126TIP3   OH236572   2.733   5.225  10.229 -0.5203  0.2640 -0.3031
 4126TIP3    H136573   2.654   5.171  10.225  0.6845 -1.6322 -4.0202
 4126TIP3    H236574   2.801   5.170  10.190  1.8669  2.9644 -0.2891
 4127TIP3   OH236575   3.164   1.561  10.745  0.0670 -0.4835 -0.6015
 4127TIP3    H136576   3.156   1.656  10.738 -1.8081 -0.5360  0.2721
 4127TIP3    H236577   3.259   1.545  10.743  0.4358  1.4236 -0.4550
 4128TIP3   OH236578   0.932   0.098  11.602  0.6216 -0.4813  0.2695
 4128TIP3    H136579   0.977   0.166  11.652  1.3834  0.0336 -1.0729
 4128TIP3    H236580   0.844   0.132  11.588  0.3599 -0.6758  1.2949
 4129TIP3   OH236581   4.502   3.653  11.822  0.0362 -0.4233  0.3409
 4129TIP3    H136582   4.456   3.705  11.756 -0.5225 -0.4370  0.7174
 4129TIP3    H236583   4.587   3.696  11.831 -0.3079  0.2578  0.4334
 4130TIP3   OH236584   4.438   1.193   9.323 -0.8247  0.4527 -0.1360
 4130TIP3    H136585   4.396   1.164   9.243 -0.6528  0.4447 -0.2226
 4130TIP3    H236586   4.515   1.137   9.332 -1.0319  0.2186  0.2188
 4131TIP3   OH236587   0.387   2.070   9.734 -0.4988 -0.3222 -0.4742
 4131TIP3    H136588   0.316   2.015   9.769  0.9151 -1.6995  0.3169
 4131TIP3    H236589   0.392   2.143   9.796 -1.8779  0.3626 -1.1118
 4132TIP3   OH236590   2.558   4.146  10.213  0.5447  0.4121  0.6908
 4132TIP3    H136591   2.574   4.237  10.237  0.9851  0.0941  1.6468
 4132TIP3    H236592   2.540   4.101  10.296 -0.4828 -0.2172  0.1510
 4133TIP3   OH236593   2.381   4.052   9.861  0.1140  0.5831  0.0188
 4133TIP3    H136594   2.360   4.026   9.951  0.0629 -2.0700 -0.6649
 4133TIP3    H236595   2.457   3.998   9.838 -0.1889  0.8400 -1.6911
 4134TIP3   OH236596   3.690   2.767   9.576  0.4976 -0.0365  0.0893
 4134TIP3    H136597   3.721   2.815   9.500  1.2752 -1.4467 -0.5020
 4134TIP3    H236598   3.768   2.754   9.630  0.2786 -0.5706  0.2802
 4135TIP3   OH236599   5.898   5.013  10.714 -0.4499 -0.4656  0.1379
 4135TIP3    H136600   5.856   4.932  10.743 -0.7942  0.1992  1.5680
 4135TIP3    H236601   5.921   4.996  10.622 -0.7584 -2.0706  0.3269
 4136TIP3   OH236602   1.524   3.278  10.223 -0.2541  0.2019  0.2937
 4136TIP3    H136603   1.440   3.261  10.182  0.1657  2.2837 -1.5881
 4136TIP3    H236604   1.510   3.354  10.279  0.1333 -0.1731  0.9267
 4137TIP3   OH236605   4.234   3.875  11.329 -0.0250 -0.2101 -0.0719
 4137TIP3    H136606   4.222   3.908  11.240  0.7526 -0.8270 -0.4180
 4137TIP3    H236607   4.328   3.882  11.345 -0.0532 -0.8306  0.4079
 4138TIP3   OH236608   3.964   4.932  11.398 -0.4528  0.0240 -0.2669
 4138TIP3    H136609   4.050   4.905  11.429  0.0066  0.9541 -0.6812
 4138TIP3    H236610   3.907   4.924  11.475  0.0848 -0.2320  0.1110
 4139TIP3   OH236611   4.045   2.888  11.009 -0.2016  0.3236  0.3189
 4139TIP3    H136612   4.072   2.975  11.038  1.2622 -0.3471  1.1209
 4139TIP3    H236613   3.960   2.874  11.050 -0.4137  1.3391  0.2420
 4140TIP3   OH236614   4.639   2.252  10.290 -0.0256 -0.7657 -0.3509
 4140TIP3    H136615   4.573   2.229  10.355 -0.3690 -0.9136 -0.7426
 4140TIP3    H236616   4.709   2.294  10.340  1.1889 -3.6590  0.5881
 4141TIP3   OH236617   6.341   3.098   9.219 -0.1939  0.3275  0.5223
 4141TIP3    H136618   6.424   3.081   9.175 -1.4152 -1.9402 -1.1153
 4141TIP3    H236619   6.287   3.142   9.154 -0.1176  2.5544  1.8350
 4142TIP3   OH236620   2.070   0.127   8.959 -0.9464 -0.0142  0.7687
 4142TIP3    H136621   2.069   0.191   9.030  1.3952 -2.0739  2.8536
 4142TIP3    H236622   2.035   0.047   8.997 -0.4558 -0.9576 -0.6707
 4143TIP3   OH236623   0.463   0.482  10.246 -0.2334  0.0673 -0.0563
 4143TIP3    H136624   0.371   0.457  10.251 -0.3649  0.5381 -0.0129
 4143TIP3    H236625   0.467   0.543  10.172 -0.1410  0.7689  0.5063
 4144TIP3   OH236626   1.928   6.534   9.809  0.7288 -0.3146  0.2240
 4144TIP3    H136627   1.924   6.459   9.868  1.7400 -1.0198 -0.5710
 4144TIP3    H236628   1.850   6.525   9.754  0.5218 -0.4214  0.5288
 4145TIP3   OH236629   6.259   3.874  10.861 -0.1126  0.0705  0.1052
 4145TIP3    H136630   6.165   3.875  10.882 -0.0419  0.0548  0.4305
 4145TIP3    H236631   6.266   3.925  10.780 -0.4442 -0.2177 -0.1076
 4146TIP3   OH236632   4.223   2.764  10.854  0.0279 -0.3442  0.0082
 4146TIP3    H136633   4.245   2.707  10.928  3.1319  1.6092  0.7577
 4146TIP3    H236634   4.142   2.807  10.880  0.2650 -0.8122  1.6158
 4147TIP3   OH236635   3.000   3.730   9.561  0.4228 -0.2694  0.1616
 4147TIP3    H136636   2.987   3.773   9.646 -1.5567  1.1753 -0.8069
 4147TIP3    H236637   3.011   3.802   9.499 -0.8474 -1.2051 -1.2023
 4148TIP3   OH236638   2.234   1.447  10.196  0.0530 -0.0448 -0.1153
 4148TIP3    H136639   2.247   1.505  10.121 -1.0472  0.9070  0.3889
 4148TIP3    H236640   2.254   1.360  10.163 -2.0783  0.0912 -2.0588
 4149TIP3   OH236641   1.144   4.376   9.350  0.1381 -0.0454 -0.2074
 4149TIP3    H136642   1.073   4.348   9.407 -0.7523  1.9083 -0.2763
 4149TIP3    H236643   1.103   4.435   9.287  1.7933  1.1982 -0.2038
 4150TIP3   OH236644   5.806   4.225  10.374  0.4299 -0.2749 -0.3019
 4150TIP3    H136645   5.866   4.156  10.345 -0.6032 -0.3803 -2.3109
 4150TIP3    H236646   5.864   4.293  10.410  1.5448 -1.5830  0.4728
 4151TIP3   OH236647   5.181   3.643  11.032 -0.4063  0.0342 -0.0282
 4151TIP3    H136648   5.268   3.631  11.070 -0.7362 -0.1376  0.6968
 4151TIP3    H236649   5.195   3.641  10.938  0.3550 -0.1309  0.0830
 4152TIP3   OH236650   5.667   4.451  10.252 -0.0188 -0.4955 -0.0897
 4152TIP3    H136651   5.704   4.508  10.319  1.6842 -2.1762  0.5242
 4152TIP3    H236652   5.707   4.365  10.269 -4.6385 -2.7517  0.9249
 4153TIP3   OH236653   0.931   5.757  11.901 -0.5001  0.5430 -0.3269
 4153TIP3    H136654   0.861   5.818  11.922  0.2681  1.7407 -1.0905
 4153TIP3    H236655   1.006   5.812  11.880  0.9112 -0.7060  1.1417
 4154TIP3   OH236656   6.491   1.713   9.182  0.2563 -0.2366 -0.2616
 4154TIP3    H136657   6.415   1.659   9.203 -0.0956  0.1707 -0.4779
 4154TIP3    H236658   6.524   1.677   9.100 -0.4777  0.3938 -0.8487
 4155TIP3   OH236659   1.988   6.411  11.414  0.3539 -0.3852 -0.3657
 4155TIP3    H136660   1.896   6.386  11.406  0.7161 -1.7014 -0.6474
 4155TIP3    H236661   2.025   6.348  11.476  1.4168 -0.9291 -1.4972
 4156TIP3   OH236662   5.458   2.765  11.521 -0.1359 -0.1624  0.0275
 4156TIP3    H136663   5.492   2.791  11.606  0.9279  1.4245 -0.8215
 4156TIP3    H236664   5.390   2.700  11.540  1.5986 -1.5618  1.9636
 4157TIP3   OH236665   3.357   6.361   9.296  0.3092 -0.2618  0.1606
 4157TIP3    H136666   3.326   6.443   9.335 -0.3835 -0.7218  0.6187
 4157TIP3    H236667   3.351   6.375   9.202  3.7954  1.5569  0.0605
 4158TIP3   OH236668   1.414   3.771  11.901  0.3357 -0.1508  0.1940
 4158TIP3    H136669   1.414   3.722  11.983 -1.1636  0.0963  0.3743
 4158TIP3    H236670   1.332   3.821  11.903  0.5862  0.3597 -1.1631
 4159TIP3   OH236671   2.989   1.232   8.743  0.6101 -0.1571  0.5339
 4159TIP3    H136672   2.985   1.233   8.648 -1.7968  0.4552  0.5716
 4159TIP3    H236673   3.076   1.264   8.764  0.7753  0.8147 -1.4515
 4160TIP3   OH236674   0.092   4.397   9.811  0.2239  0.5846 -0.5600
 4160TIP3    H136675   0.103   4.334   9.883  0.7169 -0.0090 -1.1417
 4160TIP3    H236676   0.180   4.427   9.791 -0.0603  1.9561  0.1191
 4161TIP3   OH236677   3.327   1.647  11.402 -0.4659  0.1789 -0.2237
 4161TIP3    H136678   3.296   1.584  11.336 -0.1283 -0.7641  0.4949
 4161TIP3    H236679   3.295   1.612  11.485  0.2936  0.5965  0.2559
 4162TIP3   OH236680   0.732   4.959  10.658 -0.1612  0.1046  0.8609
 4162TIP3    H136681   0.681   4.904  10.717 -2.2999 -1.5240 -2.2580
 4162TIP3    H236682   0.820   4.922  10.662 -1.1368 -2.4642  0.2196
 4163TIP3   OH236683   1.951   2.132   8.909  0.2041  0.2149  0.3730
 4163TIP3    H136684   1.967   2.072   8.836 -2.5146  0.1156 -0.2353
 4163TIP3    H236685   1.998   2.212   8.884  0.1968 -0.1828 -0.9914
 4164TIP3   OH236686   0.529   1.214  10.682  0.4869 -0.7354 -0.1881
 4164TIP3    H136687   0.622   1.215  10.702  0.4568  2.7805  0.3274
 4164TIP3    H236688   0.524   1.222  10.587  0.7691  1.2147 -0.0614
 4165TIP3   OH236689   3.954   1.010   8.736  0.2869 -0.3079  0.4691
 4165TIP3    H136690   3.931   1.078   8.799 -1.5010  0.5822 -1.0425
 4165TIP3    H236691   3.970   1.057   8.654  0.3539 -1.6006 -0.2978
 4166TIP3   OH236692   5.412   0.549  11.284  0.5949 -0.1256 -0.1612
 4166TIP3    H136693   5.478   0.507  11.228 -0.8886  0.7788 -2.7407
 4166TIP3    H236694   5.412   0.640  11.256 -1.3202  0.0151  0.2091
 4167TIP3   OH236695   1.400   4.281  12.279  0.9191  0.3996  0.1006
 4167TIP3    H136696   1.312   4.289  12.243  0.9063 -0.9219 -0.2291
 4167TIP3    H236697   1.458   4.294  12.205  0.9926  0.7393  0.2153
 4168TIP3   OH236698   3.425   5.961  10.795  0.2271 -0.1536 -0.0694
 4168TIP3    H136699   3.508   6.005  10.817  0.0454  1.8169 -2.7678
 4168TIP3    H236700   3.427   5.955  10.699 -2.3638 -0.8577 -0.1346
 4169TIP3   OH236701   6.366   1.679   8.381  0.0150 -0.3828  0.3870
 4169TIP3    H136702   6.413   1.608   8.426 -0.0674  0.3792  1.7240
 4169TIP3    H236703   6.427   1.753   8.383 -1.1118  0.5821  2.0213
 4170TIP3   OH236704   6.338   1.506  10.590  0.1286 -0.0495 -0.0921
 4170TIP3    H136705   6.382   1.581  10.631 -0.9909  0.3728  0.3957
 4170TIP3    H236706   6.257   1.543  10.554  0.6634 -0.5888 -1.9582
 4171TIP3   OH236707   4.186   0.771  11.302  0.3835  0.2348  0.2287
 4171TIP3    H136708   4.113   0.828  11.278  1.7762  1.9049 -0.2019
 4171TIP3    H236709   4.217   0.806  11.386 -0.2510 -1.4441  1.2257
 4172TIP3   OH236710   3.941   1.054   9.133 -0.6804 -0.0605 -0.3772
 4172TIP3    H136711   3.933   0.966   9.096 -0.9737  0.1421 -0.7963
 4172TIP3    H236712   3.886   1.109   9.077 -2.5069 -0.0369  1.3592
 4173TIP3   OH236713   5.655   5.381  10.240 -0.3278  0.1805 -0.2262
 4173TIP3    H136714   5.599   5.458  10.226 -1.2856 -0.6553 -1.1741
 4173TIP3    H236715   5.648   5.332  10.158  0.7460 -0.6214  0.1481
 4174TIP3   OH236716   2.111   3.026  10.872 -0.5579 -0.7812  0.5022
 4174TIP3    H136717   2.200   2.993  10.862  0.3647  1.8070 -0.9533
 4174TIP3    H236718   2.055   2.948  10.871  1.5733 -2.3815  0.0690
 4175TIP3   OH236719   2.545   6.005  10.629 -0.5938  0.1854 -0.4745
 4175TIP3    H136720   2.462   6.018  10.582 -0.9176 -0.5370 -0.1107
 4175TIP3    H236721   2.586   6.092  10.630 -1.5141  0.6222 -0.3335
 4176TIP3   OH236722   4.062   2.570  11.017 -0.3994 -0.5444  0.3403
 4176TIP3    H136723   4.058   2.647  11.073  1.0704 -0.0029 -0.2471
 4176TIP3    H236724   4.062   2.496  11.078  1.4021  0.0396  1.1080
 4177TIP3   OH236725   0.193   2.743  11.860  0.0514 -0.3015 -0.0028
 4177TIP3    H136726   0.138   2.704  11.792 -1.6457  0.8794  0.6280
 4177TIP3    H236727   0.194   2.678  11.930 -0.2462 -0.4815 -0.1631
 4178TIP3   OH236728   2.276   0.251  11.580 -0.1964 -0.1059 -0.4238
 4178TIP3    H136729   2.189   0.272  11.615 -0.5179 -0.0967 -1.2051
 4178TIP3    H236730   2.300   0.328  11.528  0.2605 -0.1267 -0.2443
 4179TIP3   OH236731   0.744   3.777   9.427  0.5351  0.1963 -0.0196
 4179TIP3    H136732   0.686   3.780   9.503 -3.1905 -0.1861 -2.5883
 4179TIP3    H236733   0.771   3.868   9.414  1.7023  0.1872  1.9914
 4180TIP3   OH236734   4.618   3.958   8.951 -0.6775  0.1247  0.1293
 4180TIP3    H136735   4.670   4.038   8.953 -0.1168 -0.2058 -0.6805
 4180TIP3    H236736   4.629   3.924   8.862  0.5523 -1.7916  0.9455
 4181TIP3   OH236737   1.307   2.530   9.816  0.0359  0.1965 -0.4859
 4181TIP3    H136738   1.327   2.495   9.729  0.4248  1.5818 -0.9718
 4181TIP3    H236739   1.213   2.514   9.826 -0.3848  1.5358 -1.8977
 4182TIP3   OH236740   2.095   6.110   8.955 -0.4809  0.4773  0.3582
 4182TIP3    H136741   2.087   6.061   8.874  1.8066  0.8705 -0.1948
 4182TIP3    H236742   2.066   6.198   8.934  0.1155  0.5801 -0.0597
 4183TIP3   OH236743   1.137   4.785   9.706 -0.3417  0.1656 -0.1996
 4183TIP3    H136744   1.188   4.778   9.625  0.6047 -0.7274  0.4667
 4183TIP3    H236745   1.166   4.867   9.746 -0.8297  0.6237 -0.7553
 4184TIP3   OH236746   1.899   4.790  11.948  0.0362  0.2101  0.2769
 4184TIP3    H136747   1.914   4.698  11.971 -1.0076  0.0530  0.3752
 4184TIP3    H236748   1.815   4.811  11.987  0.5442  1.3964  0.7560
 4185TIP3   OH236749   1.401   1.780  11.916 -0.0138 -0.2273  0.1390
 4185TIP3    H136750   1.397   1.754  12.008 -0.9042  1.1794  0.5304
 4185TIP3    H236751   1.442   1.867  11.918 -2.7510  1.1854 -0.4352
 4186TIP3   OH236752   1.706   0.557  10.669 -0.1407  0.0373  0.3467
 4186TIP3    H136753   1.763   0.516  10.734 -0.6266 -0.5761  0.3854
 4186TIP3    H236754   1.761   0.562  10.590  0.6749  1.3920  0.9669
 4187TIP3   OH236755   0.973   2.925  11.822  0.2704  0.1647 -0.1072
 4187TIP3    H136756   1.008   2.898  11.737 -1.3651  0.4651 -0.9154
 4187TIP3    H236757   0.973   3.021  11.818  0.0778  0.1775  0.1745
 4188TIP3   OH236758   0.532   0.303  10.614 -0.0839  0.5043  0.2957
 4188TIP3    H136759   0.614   0.254  10.604 -0.2805  0.4528 -1.3806
 4188TIP3    H236760   0.521   0.313  10.708  1.3355 -0.3612  0.5791
 4189TIP3   OH236761   4.364   1.030  10.284  0.1215 -0.6597  0.0981
 4189TIP3    H136762   4.433   0.968  10.310 -0.2440 -0.6904  1.0636
 4189TIP3    H236763   4.329   1.063  10.368 -0.1382  0.3519 -0.3898
 4190TIP3   OH236764   5.559   1.028   9.516  0.2088  0.4121 -0.3563
 4190TIP3    H136765   5.528   1.053   9.603  0.1679 -0.3185 -0.1556
 4190TIP3    H236766   5.598   1.108   9.481  0.6530  0.5968  0.5231
 4191TIP3   OH236767   4.534   4.883  11.529  0.0155  0.2090 -0.3907
 4191TIP3    H136768   4.512   4.974  11.549 -0.1784 -0.2186  1.5525
 4191TIP3    H236769   4.472   4.832  11.582 -0.6716 -1.0901 -2.3256
 4192TIP3   OH236770   1.561   4.087  10.267 -0.2480 -0.0888  0.1094
 4192TIP3    H136771   1.585   4.037  10.189 -0.3425 -0.5357  0.3656
 4192TIP3    H236772   1.645   4.118  10.302 -0.1642 -0.3299  0.1240
 4193TIP3   OH236773   1.398   3.752  10.690  0.7018  0.3332 -0.1795
 4193TIP3    H136774   1.494   3.747  10.697  0.6161  0.1470  1.1956
 4193TIP3    H236775   1.374   3.822  10.750 -0.0913 -0.2899  0.2505
 4194TIP3   OH236776   5.220   2.807  10.915 -0.1064 -0.5098 -0.3788
 4194TIP3    H136777   5.203   2.814  10.821  0.4354 -2.3040 -0.6460
 4194TIP3    H236778   5.239   2.714  10.929  1.9963  0.0883  1.1482
 4195TIP3   OH236779   0.229   0.613  10.376  0.2104  0.2398 -0.1266
 4195TIP3    H136780   0.234   0.529  10.421 -0.1850  0.3101  0.0504
 4195TIP3    H236781   0.295   0.667  10.419 -1.3049  0.8472  1.5250
 4196TIP3   OH236782   1.583   0.669  12.248 -0.3217 -0.0771  0.6791
 4196TIP3    H136783   1.610   0.630  12.165  0.6257 -0.4587  1.1487
 4196TIP3    H236784   1.575   0.594  12.308  1.0990  0.3650  1.4802
 4197TIP3   OH236785   1.310   1.968   9.211 -0.0158  0.0137 -0.1869
 4197TIP3    H136786   1.368   2.039   9.237 -0.9290  0.5513  0.3918
 4197TIP3    H236787   1.283   1.991   9.122 -1.0235  0.8802  0.3223
 4198TIP3   OH236788   1.970   6.551  10.202  0.0805 -0.4037  0.2284
 4198TIP3    H136789   2.045   6.554  10.141  0.0964 -3.7003 -0.1057
 4198TIP3    H236790   1.895   6.535  10.146 -0.1853 -1.6009  0.9093
 4199TIP3   OH236791   4.497   5.373   9.201  0.4277  0.0274  0.0654
 4199TIP3    H136792   4.413   5.400   9.238  0.0132  1.2146 -1.6457
 4199TIP3    H236793   4.474   5.303   9.140  0.2780  1.9449 -2.2164
 4200TIP3   OH236794   0.645   5.114   9.758  0.9491  0.0417  0.4950
 4200TIP3    H136795   0.640   5.145   9.667  2.7682 -1.1402 -0.0647
 4200TIP3    H236796   0.637   5.194   9.810 -1.0974  0.6457 -0.6233
 4201TIP3   OH236797   4.068   5.247   9.449 -0.0949 -0.2659 -0.0204
 4201TIP3    H136798   4.125   5.175   9.477  0.8999  1.0592  1.5658
 4201TIP3    H236799   3.980   5.210   9.450  0.5201 -1.8307 -0.6114
 4202TIP3   OH236800   3.209   1.739   9.644  0.1853  0.3885 -0.1237
 4202TIP3    H136801   3.222   1.646   9.625  0.9297  0.8474 -2.1953
 4202TIP3    H236802   3.292   1.766   9.684  1.5124  0.8726 -2.9264
 4203TIP3   OH236803   3.765   3.118   9.215 -0.2359 -0.1896  0.2311
 4203TIP3    H136804   3.709   3.167   9.276 -2.3663 -1.3899 -0.6410
 4203TIP3    H236805   3.703   3.078   9.154  1.5524 -2.4496 -0.1978
 4204TIP3   OH236806   0.184   5.654  11.679  0.5989 -0.1286 -0.3422
 4204TIP3    H136807   0.222   5.728  11.631 -0.3990  0.8086  0.2721
 4204TIP3    H236808   0.090   5.662  11.665  0.4435 -1.0410  0.0992
 4205TIP3   OH236809   1.279   0.622   8.638  0.2501 -0.5032 -0.6985
 4205TIP3    H136810   1.356   0.655   8.684  0.3267 -1.4158 -0.1463
 4205TIP3    H236811   1.297   0.639   8.546 -0.0149  1.5663 -0.4128
 4206TIP3   OH236812   1.575   4.613  11.397 -0.0396 -0.4154  0.7983
 4206TIP3    H136813   1.556   4.523  11.370 -0.8982  0.3883 -1.5590
 4206TIP3    H236814   1.643   4.642  11.336 -0.2598  0.7323  1.0808
 4207TIP3   OH236815   5.575   0.824  11.346  0.1148  0.5111 -0.3144
 4207TIP3    H136816   5.577   0.742  11.396  1.8386  0.6488 -0.1041
 4207TIP3    H236817   5.618   0.888  11.401 -0.5798  1.4106 -0.7831
 4208TIP3   OH236818   2.043   5.732   9.395  0.0113 -0.0871 -0.4696
 4208TIP3    H136819   2.011   5.736   9.485 -1.6620 -0.3226 -1.0118
 4208TIP3    H236820   1.968   5.761   9.342  0.2583 -1.9388 -1.9117
 4209TIP3   OH236821   2.477   4.007  10.462 -0.1191  0.2310  0.0413
 4209TIP3    H136822   2.495   3.922  10.423  0.8078  0.6261 -0.4382
 4209TIP3    H236823   2.520   4.005  10.547 -0.8706 -0.0931  0.4248
 4210TIP3   OH236824   4.230   6.290   8.951  0.1631  0.1902  0.4924
 4210TIP3    H136825   4.236   6.195   8.955 -0.1188  0.1210 -0.4793
 4210TIP3    H236826   4.141   6.307   8.919  0.9009  0.7072 -1.4161
 4211TIP3   OH236827   4.281   6.427  11.783  0.1752 -0.8885 -0.1114
 4211TIP3    H136828   4.252   6.462  11.699  1.2090  0.2370 -0.0251
 4211TIP3    H236829   4.371   6.398  11.768 -0.0801 -1.9488  0.2769
 4212TIP3   OH236830   0.946   2.796  10.991 -0.0909 -0.3584 -0.3965
 4212TIP3    H136831   0.934   2.701  10.987 -0.9267 -0.3547  1.1170
 4212TIP3    H236832   0.867   2.831  10.950 -0.0644 -0.3286 -0.4208
 4213TIP3   OH236833   0.196   4.129  11.550 -0.0912  0.0838 -0.0426
 4213TIP3    H136834   0.213   4.127  11.644 -0.3683  1.0468  0.0391
 4213TIP3    H236835   0.102   4.111  11.542 -0.7102  2.7750  0.1055
 4214TIP3   OH236836   2.843   0.373  11.229  0.0164 -0.1065  0.2519
 4214TIP3    H136837   2.814   0.360  11.319  0.7905 -2.1076  0.2646
 4214TIP3    H236838   2.929   0.331  11.225 -0.2192 -0.5270 -1.5367
 4215TIP3   OH236839   4.078   1.616   9.473  0.2304  0.5421  0.0925
 4215TIP3    H136840   4.142   1.591   9.540  0.3973 -0.5291 -0.4469
 4215TIP3    H236841   3.994   1.615   9.518  0.4321  0.6203  0.4768
 4216TIP3   OH236842   2.714   0.374  11.617  0.0187 -0.2920  0.3533
 4216TIP3    H136843   2.664   0.432  11.560  2.1051  1.7411  0.4613
 4216TIP3    H236844   2.735   0.299  11.562  0.8052  0.9809 -1.1529
 4217TIP3   OH236845   4.386   5.403  11.617 -0.4158  0.0634  1.0546
 4217TIP3    H136846   4.413   5.387  11.526 -3.5107 -0.9431  0.1998
 4217TIP3    H236847   4.428   5.487  11.640  0.3285  0.4230 -1.3356
 4218TIP3   OH236848   5.582   4.752   9.779 -0.3816  0.1428 -0.6179
 4218TIP3    H136849   5.655   4.729   9.721 -0.3671  1.1573 -1.0382
 4218TIP3    H236850   5.519   4.682   9.768  0.5619 -0.7994 -0.1815
 4219TIP3   OH236851   1.716   6.557   9.283  0.2803  0.2376 -0.5807
 4219TIP3    H136852   1.775   6.632   9.273 -0.7797  1.0455 -0.9886
 4219TIP3    H236853   1.659   6.581   9.356 -0.5724  0.1805 -1.2146
 4220TIP3   OH236854   0.433   3.753   8.704  0.4197 -0.8144 -0.1543
 4220TIP3    H136855   0.435   3.815   8.631  0.9109  0.4638  0.8997
 4220TIP3    H236856   0.359   3.696   8.685 -0.0520  0.0949 -1.1711
 4221TIP3   OH236857   1.087   0.944  10.873 -0.2240  0.6916 -0.0127
 4221TIP3    H136858   1.163   0.933  10.816  0.0505  0.0352  0.4671
 4221TIP3    H236859   1.119   0.921  10.961 -0.9680  0.4134  0.1917
 4222TIP3   OH236860   0.344   0.920  10.263 -0.1124 -0.1512 -0.1716
 4222TIP3    H136861   0.368   0.901  10.354 -1.7808 -2.2834 -0.0765
 4222TIP3    H236862   0.399   0.862  10.211 -1.9034 -1.9852 -0.1860
 4223TIP3   OH236863   0.204   4.914  10.383 -0.3936 -0.1410 -0.3438
 4223TIP3    H136864   0.266   4.844  10.363 -1.6355 -1.1866 -0.6119
 4223TIP3    H236865   0.214   4.976  10.311  0.1415 -0.4253 -0.5209
 4224TIP3   OH236866   5.995   6.016  10.659 -0.5141  0.4941 -0.1543
 4224TIP3    H136867   6.088   6.018  10.681 -0.4904 -0.5915 -0.1044
 4224TIP3    H236868   5.951   6.010  10.744 -0.5519 -0.5736 -0.2381
 4225TIP3   OH236869   4.894   2.347   9.705  0.0420  0.1530 -0.2230
 4225TIP3    H136870   4.921   2.431   9.744  1.6361  0.6072 -2.1272
 4225TIP3    H236871   4.806   2.363   9.671 -0.4188  0.4553  1.0551
 4226TIP3   OH236872   1.908   4.078  11.296  0.2010 -0.0490  0.1018
 4226TIP3    H136873   1.936   3.988  11.279  4.1180  0.7255  1.4259
 4226TIP3    H236874   1.829   4.089  11.243 -0.0397 -3.9917 -0.6697
 4227TIP3   OH236875   2.908   3.179  10.601  0.0018  0.0958 -0.1686
 4227TIP3    H136876   2.938   3.100  10.558 -1.5206  0.6228 -2.3585
 4227TIP3    H236877   2.814   3.184  10.582 -0.4579  1.1925  1.9667
 4228TIP3   OH236878   2.264   1.654  12.307 -0.0197  0.4192  0.2291
 4228TIP3    H136879   2.311   1.593  12.250 -0.3212  1.8410 -1.6452
 4228TIP3    H236880   2.222   1.599  12.372  0.3948 -1.3016 -0.8918
 4229TIP3   OH236881   0.147   1.064  11.244 -0.0266 -0.1898  0.4131
 4229TIP3    H136882   0.147   0.973  11.214 -2.8082 -0.0566 -0.2084
 4229TIP3    H236883   0.161   1.057  11.339 -0.3790 -1.2729  0.4024
 4230TIP3   OH236884   1.846   1.560  12.141 -0.6247 -0.3028  0.5600
 4230TIP3    H136885   1.759   1.601  12.142  0.1760  1.4654  0.8277
 4230TIP3    H236886   1.841   1.498  12.068 -1.7285  0.6852 -0.2622
 4231TIP3   OH236887   6.430   3.250  11.189 -0.5790  0.2343  0.0612
 4231TIP3    H136888   6.513   3.211  11.161 -0.6562 -0.2716  0.5314
 4231TIP3    H236889   6.391   3.185  11.247 -1.6052  0.1903 -0.6459
 4232TIP3   OH236890   0.192   0.826  10.056 -0.1894 -0.0259 -0.5214
 4232TIP3    H136891   0.192   0.854  10.147 -0.2792 -2.3336  0.2520
 4232TIP3    H236892   0.106   0.851  10.023 -1.1896 -1.4473  0.8443
 4233TIP3   OH236893   3.741   1.375  11.468  0.2749 -0.2904  0.1057
 4233TIP3    H136894   3.666   1.332  11.510  1.0371 -0.6942  1.0950
 4233TIP3    H236895   3.708   1.461  11.442 -0.1016  0.1971  2.0459
 4234TIP3   OH236896   0.597   4.594  11.836 -0.7851  0.4399  0.0975
 4234TIP3    H136897   0.656   4.627  11.903 -1.0761  1.2549 -0.0329
 4234TIP3    H236898   0.625   4.503  11.821 -1.7187 -0.3268  2.4797
 4235TIP3   OH236899   0.160   3.734  11.864  0.0210  0.0114 -0.2650
 4235TIP3    H136900   0.084   3.754  11.809  1.0939  1.7856 -1.1794
 4235TIP3    H236901   0.204   3.662  11.818  1.5706  2.2460 -2.5714
 4236TIP3   OH236902   6.623   0.146   9.191  0.2781 -0.4087 -0.4044
 4236TIP3    H136903   6.552   0.208   9.206  0.6878 -0.3274  1.4034
 4236TIP3    H236904   6.588   0.084   9.126 -0.9876  0.3233 -0.4396
 4237TIP3   OH236905   1.251   1.586   9.609 -0.0083  0.1578  0.3364
 4237TIP3    H136906   1.321   1.618   9.552  0.9063 -0.7543  0.8929
 4237TIP3    H236907   1.281   1.498   9.635 -1.6983 -0.5351  0.0405
 4238TIP3   OH236908   6.106   5.220  11.147  0.1395  0.0788 -0.1243
 4238TIP3    H136909   6.140   5.291  11.201 -2.2690  1.0569  0.2164
 4238TIP3    H236910   6.029   5.189  11.194 -0.6574 -0.6470 -1.8221
 4239TIP3   OH236911   4.596   0.567  11.903  0.0927 -0.1047 -0.2513
 4239TIP3    H136912   4.537   0.613  11.843  0.8728  0.8598 -0.3085
 4239TIP3    H236913   4.587   0.475  11.880 -1.5927 -0.0122 -0.0626
 4240TIP3   OH236914   0.457   3.935   8.515  0.1798 -0.2768  0.1603
 4240TIP3    H136915   0.394   3.911   8.447 -0.6810 -0.8710  1.1413
 4240TIP3    H236916   0.494   4.019   8.485  0.8895 -1.2127 -1.7240
 4241TIP3   OH236917   0.736   4.753  12.006 -0.5062  0.3825 -0.3540
 4241TIP3    H136918   0.826   4.783  12.002  0.1313 -1.2468  0.7207
 4241TIP3    H236919   0.697   4.801  12.079 -0.1897  0.2980 -0.1292
 4242TIP3   OH236920   3.235   0.389  11.631 -0.0894 -0.1874  0.0883
 4242TIP3    H136921   3.276   0.333  11.566  1.4497 -0.6354  1.3823
 4242TIP3    H236922   3.216   0.330  11.705  1.1368  0.8657  1.2890
 4243TIP3   OH236923   5.041   2.176   9.900  0.5905  0.3841 -0.4115
 4243TIP3    H136924   4.992   2.199   9.979  0.3140 -2.4056  0.3308
 4243TIP3    H236925   4.995   2.223   9.830 -0.5884  1.0984  0.7785
 4244TIP3   OH236926   0.636   0.272  10.177  0.1679  0.3559  0.1889
 4244TIP3    H136927   0.590   0.189  10.175  0.0178  0.4532 -1.3483
 4244TIP3    H236928   0.574   0.333  10.218 -0.1080 -0.0632  0.3978
 4245TIP3   OH236929   0.642   3.826  10.958 -0.2433 -0.6332 -0.8935
 4245TIP3    H136930   0.665   3.748  11.007  0.9826 -0.4416 -1.1196
 4245TIP3    H236931   0.602   3.884  11.023  4.4774  1.0825  1.0073
 4246TIP3   OH236932   1.266   3.108   9.395  0.0894 -0.0966 -0.0305
 4246TIP3    H136933   1.178   3.089   9.426  0.6870  0.0194  1.8688
 4246TIP3    H236934   1.286   3.195   9.431  0.5118  0.4644 -1.5469
 4247TIP3   OH236935   4.879   1.723  12.047  0.5890 -0.0888 -0.3677
 4247TIP3    H136936   4.906   1.814  12.055 -0.9287  0.4293 -0.7273
 4247TIP3    H236937   4.839   1.718  11.960 -1.9194 -0.3456  0.7127
 4248TIP3   OH236938   5.798   1.159  10.890 -0.2475  0.7344  0.5793
 4248TIP3    H136939   5.890   1.132  10.896 -0.4180 -0.4685 -1.2164
 4248TIP3    H236940   5.760   1.137  10.975  1.1548  1.4549  1.4274
 4249TIP3   OH236941   2.183   3.274  12.102  0.3579  0.6873  0.2483
 4249TIP3    H136942   2.227   3.321  12.031 -2.1620  0.3180 -1.7077
 4249TIP3    H236943   2.236   3.196  12.116 -0.3220 -0.4873 -3.0308
 4250TIP3   OH236944   2.159   1.993  11.806  0.2413 -0.1895 -0.6891
 4250TIP3    H136945   2.176   1.898  11.805  1.1054 -0.0642  0.4157
 4250TIP3    H236946   2.119   2.010  11.891  2.0836  0.7284  0.0463
 4251TIP3   OH236947   6.650   5.140  10.772  0.3174 -0.1720  0.1508
 4251TIP3    H136948   6.678   5.195  10.845  0.8643 -0.4676  0.1671
 4251TIP3    H236949   6.706   5.167  10.699  0.1149 -0.2275 -0.0244
 4252TIP3   OH236950   1.805   5.336   9.911  0.0851  0.4999 -0.5565
 4252TIP3    H136951   1.740   5.288   9.962  0.8163  1.3262  1.2512
 4252TIP3    H236952   1.815   5.285   9.831 -2.9864  0.5133 -1.0774
 4253TIP3   OH236953   6.667   5.165   9.094  0.3678 -0.4804 -0.1099
 4253TIP3    H136954   6.617   5.124   9.024  0.9426 -0.0235 -0.7969
 4253TIP3    H236955   6.620   5.247   9.112  0.5890 -0.2855 -0.4159
 4254TIP3   OH236956   0.390   1.971  10.325 -0.3533 -0.2638 -0.2812
 4254TIP3    H136957   0.393   2.066  10.329 -0.0179 -0.2989  0.5690
 4254TIP3    H236958   0.480   1.943  10.342 -0.6176 -0.7405  0.4116
 4255TIP3   OH236959   3.711   2.120   9.893  0.0725  0.1158  0.2854
 4255TIP3    H136960   3.638   2.163   9.938 -0.4094  0.4176 -0.7537
 4255TIP3    H236961   3.692   2.131   9.800  1.1247 -0.3600 -0.0038
 4256TIP3   OH236962   0.924   3.376  10.098 -0.1773  0.3751 -0.0569
 4256TIP3    H136963   0.990   3.442  10.077 -0.4361  0.6268 -0.0980
 4256TIP3    H236964   0.948   3.300  10.046  0.3108  0.3266  0.2341
 4257TIP3   OH236965   1.574   3.476   9.507  0.0917  0.2102 -0.1701
 4257TIP3    H136966   1.621   3.434   9.579 -0.0591 -0.2872 -0.3558
 4257TIP3    H236967   1.637   3.537   9.469  0.2643  0.2672  0.2017
 4258TIP3   OH236968   1.283   3.981  10.818  0.0937  0.4616  0.8428
 4258TIP3    H136969   1.212   3.973  10.755  1.1351 -0.2324 -0.2985
 4258TIP3    H236970   1.247   4.034  10.889 -1.2853  0.8232 -0.0916
 4259TIP3   OH236971   2.582   6.696  11.690  0.1339 -0.1875  0.0059
 4259TIP3    H136972   2.494   6.661  11.675  0.5304 -0.7892 -1.0747
 4259TIP3    H236973   2.640   6.620  11.684  0.9942  0.5601 -2.1914
 4260TIP3   OH236974   3.298   3.662  11.311  0.3651 -0.0290 -0.0605
 4260TIP3    H136975   3.233   3.709  11.259 -0.3916 -0.2932  0.6242
 4260TIP3    H236976   3.306   3.714  11.391  0.7312 -0.1897  0.0066
 4261TIP3   OH236977   6.412   0.728  10.431  0.6630 -0.3692  0.4375
 4261TIP3    H136978   6.321   0.742  10.456 -0.1505 -1.1287 -1.8117
 4261TIP3    H236979   6.461   0.791  10.483 -1.3552  1.3853  0.3787
 4262TIP3   OH236980   6.403   5.473  11.819  0.6771  0.4275 -0.0761
 4262TIP3    H136981   6.391   5.531  11.744 -1.8109  0.1644  0.0552
 4262TIP3    H236982   6.352   5.395  11.799  0.1828  0.2298  1.7357
 4263TIP3   OH236983   2.859   3.963  10.418 -0.0188 -0.0798 -0.3228
 4263TIP3    H136984   2.877   4.054  10.444 -1.2743  0.2540 -0.5623
 4263TIP3    H236985   2.826   3.970  10.328 -0.6213 -0.7213 -0.1583
 4264TIP3   OH236986   1.205   2.377  10.305  0.3241  0.7404 -0.0010
 4264TIP3    H136987   1.117   2.412  10.321 -0.4634 -0.9304 -0.4894
 4264TIP3    H236988   1.226   2.328  10.384  0.9182  1.3051  0.1983
 4265TIP3   OH236989   0.931   5.330   9.819  0.2280 -0.5102 -0.3012
 4265TIP3    H136990   0.856   5.383   9.790  1.2405  0.7804 -0.6788
 4265TIP3    H236991   0.943   5.355   9.910  0.7175 -0.0478 -0.4852
 4266TIP3   OH236992   6.222   0.318  11.383 -0.6405  0.5665  0.9820
 4266TIP3    H136993   6.256   0.408  11.383 -0.8309  0.6505 -0.4618
 4266TIP3    H236994   6.191   0.305  11.473  0.1914  1.6296  1.4485
 4267TIP3   OH236995   2.197   1.329   8.787  0.3315  0.0374  0.1101
 4267TIP3    H136996   2.246   1.322   8.705 -0.0702  0.7567 -0.1912
 4267TIP3    H236997   2.118   1.378   8.765  0.0983  0.0229  0.8740
 4268TIP3   OH236998   4.374   0.335   9.326  0.4012  0.3028 -0.1718
 4268TIP3    H136999   4.451   0.344   9.382  0.0575 -1.1700  0.6127
 4268TIP3    H237000   4.385   0.250   9.283  0.2250  1.0125 -1.7087
 4269TIP3   OH237001   3.686   6.514  10.643  0.0758 -0.2142 -0.0030
 4269TIP3    H137002   3.655   6.509  10.553 -0.1151  0.5626  0.0063
 4269TIP3    H237003   3.624   6.462  10.694 -0.1198 -0.2163 -0.2457
 4270TIP3   OH237004   6.507   5.078   8.889  0.5363  0.5381  0.4904
 4270TIP3    H137005   6.546   5.015   8.828 -0.5108  2.2562 -2.1465
 4270TIP3    H237006   6.421   5.042   8.909  0.2072  0.7635 -0.4658
 4271TIP3   OH237007   1.518   2.712   9.636 -0.0077 -0.0577  0.0887
 4271TIP3    H137008   1.576   2.668   9.574 -1.2814 -0.7108 -0.6820
 4271TIP3    H237009   1.528   2.662   9.718  1.0591  0.3016  0.1941
 4272TIP3   OH237010   6.313   5.957   9.224 -0.5723  0.2474 -0.2918
 4272TIP3    H137011   6.246   5.985   9.286  0.1521 -0.5792  0.8936
 4272TIP3    H237012   6.266   5.948   9.141 -2.0321 -0.7637  0.5961
 4273TIP3   OH237013   3.147   3.993   9.838 -0.3077 -0.3819  0.2494
 4273TIP3    H137014   3.150   3.998   9.743 -3.5592  0.4347  0.0772
 4273TIP3    H237015   3.230   4.031   9.867  1.2346 -1.6282 -2.2052
 4274TIP3   OH237016   1.729   3.396   9.708  0.5040  0.4728  0.6316
 4274TIP3    H137017   1.778   3.476   9.727 -2.3154  2.1965  1.3129
 4274TIP3    H237018   1.691   3.370   9.793 -0.6866 -0.0904 -0.0491
 4275TIP3   OH237019   4.555   0.490  10.608  0.4794 -0.1934 -0.0289
 4275TIP3    H137020   4.589   0.460  10.523  0.6781 -0.1468  0.0338
 4275TIP3    H237021   4.588   0.579  10.616  1.1284 -0.4661  0.4592
 4276TIP3   OH237022   1.184   1.922  10.769  0.5144 -0.0340  0.2342
 4276TIP3    H137023   1.243   1.896  10.840  0.3478  0.7620  0.6818
 4276TIP3    H237024   1.112   1.859  10.774 -0.0795  0.6949  1.5577
 4277TIP3   OH237025   2.255   0.714  10.237  0.2037  0.0458 -0.4894
 4277TIP3    H137026   2.227   0.785  10.293  1.7113  0.8265 -0.6671
 4277TIP3    H237027   2.239   0.745  10.148 -0.7170 -0.5470 -0.5436
 4278TIP3   OH237028   0.360   4.453  11.526  0.3914  0.6435  0.0594
 4278TIP3    H137029   0.428   4.393  11.495  1.3140  1.8785 -0.3747
 4278TIP3    H237030   0.378   4.462  11.620  0.6639  0.7566 -0.0029
 4279TIP3   OH237031   4.717   5.496   8.987  0.1448  0.1255 -0.0025
 4279TIP3    H137032   4.636   5.541   9.012  1.4030  1.7147  1.4844
 4279TIP3    H237033   4.785   5.563   8.996  2.0521 -1.9222  1.7416
 4280TIP3   OH237034   5.365   5.387  10.437 -0.1027 -0.7441  0.1980
 4280TIP3    H137035   5.286   5.333  10.440 -0.3307 -0.5407 -1.1203
 4280TIP3    H237036   5.397   5.377  10.347 -1.0546  2.5190 -0.6538
 4281TIP3   OH237037   3.526   5.167  10.982  0.4804 -0.0980  0.2521
 4281TIP3    H137038   3.552   5.096  10.923 -0.1700  0.7614 -1.1286
 4281TIP3    H237039   3.501   5.123  11.063  2.1701 -1.2557  0.1892
 4282TIP3   OH237040   0.591   5.088  10.912  0.1729  0.1843  0.4640
 4282TIP3    H137041   0.550   5.145  10.847 -2.2851 -0.9549  0.8948
 4282TIP3    H237042   0.593   5.142  10.992  0.3218  0.5611  0.2054
 4283TIP3   OH237043   0.696   6.095  12.160 -0.1563  0.6633 -0.0876
 4283TIP3    H137044   0.752   6.027  12.198 -1.3739  0.3274  1.1342
 4283TIP3    H237045   0.755   6.170  12.147  1.0107 -0.3194 -0.6813
 4284TIP3   OH237046   1.153   6.473   9.759 -0.0280 -0.1657  0.4224
 4284TIP3    H137047   1.072   6.492   9.807 -0.9221  1.1077 -1.4875
 4284TIP3    H237048   1.124   6.430   9.679  1.2671 -0.4810  0.0952
 4285TIP3   OH237049   6.359   2.287  10.568  0.3893 -0.3897  0.1775
 4285TIP3    H137050   6.309   2.352  10.518  0.8253  0.7696  1.2157
 4285TIP3    H237051   6.412   2.242  10.503  0.2383  0.4432 -0.5385
 4286TIP3   OH237052   4.754   3.106  11.069 -0.0714  0.2938  0.0860
 4286TIP3    H137053   4.666   3.086  11.039  0.6206  1.4369 -3.0860
 4286TIP3    H237054   4.746   3.190  11.114 -0.3744  1.5297 -2.1299
 4287TIP3   OH237055   6.277   3.807  10.249  0.5866 -0.0020 -0.1257
 4287TIP3    H137056   6.269   3.891  10.205 -3.0517 -0.9433 -1.5842
 4287TIP3    H237057   6.322   3.751  10.185  0.5567  0.1292 -0.2619
 4288TIP3   OH237058   6.639   3.663   9.084  0.0787  0.1048  0.2292
 4288TIP3    H137059   6.709   3.609   9.048  0.7071  0.3794  1.0152
 4288TIP3    H237060   6.634   3.738   9.026  1.9301  1.1671  1.3345
 4289TIP3   OH237061   1.997   2.008  11.458 -0.2800 -0.0084 -0.2397
 4289TIP3    H137062   1.934   2.039  11.393  0.2870  3.3211  0.6168
 4289TIP3    H237063   1.944   1.963  11.523 -1.7914  2.1767  0.1549
 4290TIP3   OH237064   4.252   4.817  10.214 -0.5000  0.2587 -0.6699
 4290TIP3    H137065   4.282   4.866  10.290 -1.5137 -1.7441  1.1464
 4290TIP3    H237066   4.331   4.797  10.165  1.0158 -2.3534  2.3974
 4291TIP3   OH237067   2.145   5.795   9.663 -0.4361  0.2113 -0.3603
 4291TIP3    H137068   2.056   5.831   9.670 -0.3381  0.5590 -0.8813
 4291TIP3    H237069   2.168   5.773   9.753 -1.4884 -0.9572 -0.3438
 4292TIP3   OH237070   1.644   1.910  11.127 -0.0110 -0.7100  0.7429
 4292TIP3    H137071   1.718   1.926  11.185 -1.3210 -0.1433  2.3508
 4292TIP3    H237072   1.585   1.854  11.178 -0.5077 -1.5271 -0.6660
 4293TIP3   OH237073   0.089   2.791  12.189  0.0658  0.1770  0.3533
 4293TIP3    H137074   0.140   2.732  12.133 -0.7721 -1.4165  1.1826
 4293TIP3    H237075   0.003   2.796  12.148  0.1940  1.0066  0.1777
 4294TIP3   OH237076   3.779   1.863  10.376 -0.7567  0.1837 -0.6450
 4294TIP3    H137077   3.781   1.932  10.309 -0.5193 -0.9888 -1.9083
 4294TIP3    H237078   3.752   1.908  10.456  0.9095  2.0429 -1.0293
 4295TIP3   OH237079   2.356   2.565  10.594 -0.6569 -0.8669  0.0502
 4295TIP3    H137080   2.278   2.515  10.572 -0.1896 -1.1065 -1.1324
 4295TIP3    H237081   2.428   2.516  10.555 -0.1354  0.4537 -0.7204
 4296TIP3   OH237082   5.423   4.606  11.729  0.7503 -0.2864 -0.6281
 4296TIP3    H137083   5.342   4.658  11.727  0.0997 -1.2253  0.1373
 4296TIP3    H237084   5.493   4.671  11.727  0.0738  0.5205 -3.7731
 4297TIP3   OH237085   3.390   1.060  11.661  0.6292 -0.4996 -0.3117
 4297TIP3    H137086   3.367   1.089  11.750  0.7326  0.9962 -0.7430
 4297TIP3    H237087   3.470   1.107  11.641  1.8953 -2.5697 -0.3755
 4298TIP3   OH237088   2.769   0.019  10.595  0.0399 -0.2533  0.2740
 4298TIP3    H137089   2.751   0.107  10.561  0.5039 -0.5482 -0.7927
 4298TIP3    H237090   2.724  -0.040  10.534 -0.5483 -0.7560  1.1692
 4299TIP3   OH237091   0.647   2.019   9.145 -0.3988  0.1428 -0.7841
 4299TIP3    H137092   0.718   2.015   9.082 -0.8531  1.9438 -1.4862
 4299TIP3    H237093   0.675   2.085   9.209 -1.0921  0.2928 -0.6217
 4300TIP3   OH237094   4.870   2.033  10.727 -0.0375  0.0665 -0.2461
 4300TIP3    H137095   4.796   2.039  10.788 -0.1766  0.4638 -0.4546
 4300TIP3    H237096   4.920   1.958  10.759 -0.4889 -0.1648 -0.0583
 4301TIP3   OH237097   6.229   4.941  11.989  0.1020 -0.0458 -0.0346
 4301TIP3    H137098   6.243   4.855  12.030 -0.8830 -1.3325 -2.1991
 4301TIP3    H237099   6.260   5.004  12.054  4.0420 -2.0983  0.3981
 4302TIP3   OH237100   4.147   2.732   9.235 -0.0319 -0.3670  0.2443
 4302TIP3    H137101   4.173   2.822   9.252  0.4463 -0.7098  1.4870
 4302TIP3    H237102   4.117   2.699   9.320  0.2469 -1.5139 -0.0769
 4303TIP3   OH237103   3.344   3.836   9.308  0.3796 -0.1585 -0.6472
 4303TIP3    H137104   3.269   3.889   9.283  0.5574 -0.3988 -1.7074
 4303TIP3    H237105   3.370   3.790   9.228  1.3969 -0.3940 -0.2040
 4304TIP3   OH237106   0.260   1.344  10.336  0.0933 -0.1327  0.2467
 4304TIP3    H137107   0.239   1.256  10.303  0.2160 -0.4386  0.9688
 4304TIP3    H237108   0.178   1.375  10.374 -0.1139  0.3198 -0.5376
 4305TIP3   OH237109   3.681   4.808  10.493  0.0612 -0.1198  0.7865
 4305TIP3    H137110   3.735   4.842  10.565 -0.8381  0.3115  1.2800
 4305TIP3    H237111   3.628   4.883  10.466  0.6117 -0.1880 -0.5616
 4306TIP3   OH237112   2.234   1.328  10.439  0.0923  0.3081  0.3089
 4306TIP3    H137113   2.226   1.357  10.349  1.9202  0.0349  0.0139
 4306TIP3    H237114   2.171   1.257  10.448 -0.4265  0.6398 -0.6053
 4307TIP3   OH237115   2.184   3.966  10.366 -0.2046  0.4822 -0.2221
 4307TIP3    H137116   2.246   3.991  10.433 -1.3796  0.4370  0.9276
 4307TIP3    H237117   2.112   3.924  10.414 -0.9399  0.1725 -1.5297
 4308TIP3   OH237118   0.605   2.459   9.915  0.4738 -0.3823 -0.7061
 4308TIP3    H137119   0.639   2.461  10.004  0.8724 -1.0255 -0.8377
 4308TIP3    H237120   0.525   2.407   9.920 -0.2678  0.7228 -0.4877
 4309TIP3   OH237121   0.589   2.502  11.067  0.1710  0.4871 -0.0090
 4309TIP3    H137122   0.508   2.452  11.064  1.7593 -2.2627 -3.1565
 4309TIP3    H237123   0.577   2.571  11.002 -0.1550  1.0512  0.6373
 4310TIP3   OH237124   0.161   4.963  10.662  0.0516 -0.1230 -0.5526
 4310TIP3    H137125   0.155   4.873  10.695  0.0845  0.0175 -0.1619
 4310TIP3    H237126   0.184   4.953  10.569 -0.1133 -0.5210 -0.5520
 4311TIP3   OH237127   3.257   2.476  12.045 -0.1527 -0.1865  0.3939
 4311TIP3    H137128   3.306   2.548  12.085 -0.4080  1.2243 -1.7120
 4311TIP3    H237129   3.181   2.466  12.102  0.7180  0.0645  1.6455
 4312TIP3   OH237130   0.446   6.552  10.909 -0.3088 -0.2206 -0.3717
 4312TIP3    H137131   0.395   6.586  10.982  0.7689  1.1836 -0.2329
 4312TIP3    H237132   0.384   6.498  10.859 -2.2442  2.2308 -0.8118
 4313TIP3   OH237133   6.493   3.418  10.492 -0.2538 -0.3764 -0.0792
 4313TIP3    H137134   6.575   3.465  10.508  0.4401 -1.6862  0.4064
 4313TIP3    H237135   6.424   3.483  10.508  0.6843  1.0027 -1.3894
 4314TIP3   OH237136   4.224   3.559  10.112  0.0935  0.6787  0.0800
 4314TIP3    H137137   4.284   3.633  10.110 -0.0634  0.7984 -0.5871
 4314TIP3    H237138   4.280   3.482  10.107  0.2206  0.7757  0.0200
 4315TIP3   OH237139   2.138   5.250  11.146  0.1414  0.1721 -0.4602
 4315TIP3    H137140   2.213   5.194  11.127 -1.4802 -1.8201 -1.3937
 4315TIP3    H237141   2.176   5.334  11.170  2.6790 -1.0449  0.1024
 4316TIP3   OH237142   1.130   0.536  11.638 -0.4571 -0.3527  0.1283
 4316TIP3    H137143   1.079   0.571  11.565  0.4403  1.0415  0.1361
 4316TIP3    H237144   1.209   0.590  11.640 -0.9483  0.4453  2.8247
 4317TIP3   OH237145   1.690   2.669  11.877  0.2865 -0.0762  0.0203
 4317TIP3    H137146   1.730   2.590  11.912 -0.8882 -0.9719 -0.6133
 4317TIP3    H237147   1.737   2.741  11.921  1.8949 -1.0775  0.0360
 4318TIP3   OH237148   5.265   4.519  10.754  0.9992 -0.5686  0.2150
 4318TIP3    H137149   5.191   4.570  10.788  1.6963  0.6502 -0.0286
 4318TIP3    H237150   5.319   4.503  10.831  0.6632 -1.1647  0.3330
 4319TIP3   OH237151   6.436   1.801   9.479  0.4489 -0.2749 -0.2491
 4319TIP3    H137152   6.471   1.723   9.523  0.3034  0.1173  0.5733
 4319TIP3    H237153   6.467   1.792   9.389  0.5762 -1.2016 -0.1322
 4320TIP3   OH237154   4.256   5.475   8.833  0.0948  0.3948 -0.2915
 4320TIP3    H137155   4.196   5.416   8.786 -0.5710  0.6920  0.1886
 4320TIP3    H237156   4.337   5.423   8.842 -0.4391 -0.3973  0.0075
 4321TIP3   OH237157   4.154   2.798  10.121 -0.1485 -0.1301 -0.1289
 4321TIP3    H137158   4.208   2.748  10.060 -0.4335 -0.4629 -0.1153
 4321TIP3    H237159   4.067   2.798  10.081 -0.1817  0.2389 -0.0602
 4322TIP3   OH237160   5.916   5.928   9.632 -0.5597  0.3327  0.7354
 4322TIP3    H137161   5.945   5.938   9.723  0.7468  1.7475  0.2117
 4322TIP3    H237162   5.976   5.864   9.594 -0.7695  0.1435  0.7182
 4323TIP3   OH237163   4.024   4.369  12.047 -0.7852  0.0659  0.5818
 4323TIP3    H137164   4.009   4.323  11.964  2.0016 -0.4587  0.2597
 4323TIP3    H237165   4.030   4.299  12.112  0.0902  0.2149  0.6738
 4324TIP3   OH237166   2.791   0.338  11.869  0.1802  0.1956 -0.3317
 4324TIP3    H137167   2.748   0.256  11.892 -0.5098  0.5434 -0.3197
 4324TIP3    H237168   2.764   0.355  11.779  0.1941  0.4786 -0.2852
 4325TIP3   OH237169   0.029   2.400  10.558 -0.3696  0.6397 -0.0498
 4325TIP3    H137170  -0.014   2.323  10.594  0.0255 -0.4640 -1.8453
 4325TIP3    H237171  -0.041   2.448  10.513 -0.4305  0.8169  0.2340
 4326TIP3   OH237172   0.975   2.451  11.259 -0.2724  0.5164 -0.8149
 4326TIP3    H137173   0.990   2.534  11.304  3.0021 -0.1117 -0.4604
 4326TIP3    H237174   0.977   2.385  11.329 -0.2181 -0.0683 -1.3571
 4327TIP3   OH237175   1.263   1.924   9.543 -0.6054  0.0980 -0.1799
 4327TIP3    H137176   1.282   1.837   9.510 -1.6992  0.3330 -1.5316
 4327TIP3    H237177   1.344   1.973   9.532 -0.2668 -0.4829 -0.2881
 4328TIP3   OH237178   6.436   2.671   9.270 -0.7493 -0.2500 -0.0270
 4328TIP3    H137179   6.484   2.753   9.283 -0.5597 -0.3141 -0.3021
 4328TIP3    H237180   6.445   2.653   9.177 -1.9975  0.1535 -0.2424
 4329TIP3   OH237181   3.437   6.130   9.439  0.1666 -0.4971  0.1705
 4329TIP3    H137182   3.375   6.059   9.426  0.5078 -0.9224  0.7637
 4329TIP3    H237183   3.405   6.201   9.385  0.1961 -1.3335 -0.9773
 4330TIP3   OH237184   5.590   3.148  11.590 -0.0110 -0.2654  0.2909
 4330TIP3    H137185   5.509   3.119  11.634  0.7867 -1.6977  0.8992
 4330TIP3    H237186   5.588   3.243  11.597 -0.6530 -0.3684  2.1412
 4331TIP3   OH237187   6.664   1.846   8.148 -0.1407  0.1241 -0.6524
 4331TIP3    H137188   6.662   1.847   8.243 -2.9864  1.5147 -0.6439
 4331TIP3    H237189   6.578   1.876   8.121  0.2405 -1.1291 -3.7014
 4332TIP3   OH237190   3.993   1.973   9.861  0.4844 -0.2984 -0.4677
 4332TIP3    H137191   4.078   1.976   9.817 -0.8824  1.0065 -3.2728
 4332TIP3    H237192   3.935   2.027   9.807 -1.4518  1.5109  3.0179
 4333TIP3   OH237193   1.289   4.762  10.707  0.2350 -0.6810  0.4467
 4333TIP3    H137194   1.292   4.832  10.773 -0.0290 -0.3044  0.0642
 4333TIP3    H237195   1.339   4.690  10.746  1.0528 -0.0552  0.5764
 4334TIP3   OH237196   0.069   2.616  11.411  0.1585  0.3445 -0.5653
 4334TIP3    H137197  -0.013   2.654  11.443  0.0718 -0.0793 -0.2729
 4334TIP3    H237198   0.056   2.522  11.420  0.7194  0.2814 -0.4225
 4335TIP3   OH237199   1.387   1.287  11.129  0.3381  0.0216  0.0492
 4335TIP3    H137200   1.464   1.231  11.117 -0.8818 -1.4370 -1.5784
 4335TIP3    H237201   1.350   1.259  11.213 -0.9186 -2.6309 -1.2644
 4336TIP3   OH237202   3.906   2.294   8.939 -0.3686  0.3479  0.4322
 4336TIP3    H137203   3.853   2.329   8.868 -1.4229 -0.8011  0.6299
 4336TIP3    H237204   3.922   2.203   8.916 -0.2634  0.1072  1.3884
 4337TIP3   OH237205   3.282   5.057  10.784 -0.1638  0.0831 -0.3162
 4337TIP3    H137206   3.237   5.049  10.700 -0.9016  0.5284  0.0243
 4337TIP3    H237207   3.286   5.152  10.799  0.5386  0.0312 -0.1472
 4338TIP3   OH237208   0.056   4.877   9.982  0.3716 -0.2421 -0.8504
 4338TIP3    H137209   0.054   4.782   9.993  0.2783 -0.0246  1.4172
 4338TIP3    H237210  -0.020   4.896   9.927 -1.1878 -1.2663  0.8283
 4339TIP3   OH237211   0.936   0.717   9.838  0.0643  0.5858  0.2896
 4339TIP3    H137212   0.951   0.811   9.848  0.5642  0.8991 -2.5752
 4339TIP3    H237213   0.857   0.711   9.784  0.1029 -0.6403  0.3447
 4340TIP3   OH237214   4.024   2.125  11.008  0.4059  0.0826  0.0645
 4340TIP3    H137215   4.048   2.098  11.097 -1.6003 -0.1373  0.6017
 4340TIP3    H237216   4.046   2.049  10.953  1.1910  0.0283  0.4461
 4341TIP3   OH237217   3.537   3.508  11.831  0.2044  0.2739 -0.4121
 4341TIP3    H137218   3.528   3.537  11.740 -1.0125 -0.3623 -0.5188
 4341TIP3    H237219   3.510   3.416  11.829 -0.4817  0.4366  0.7068
 4342TIP3   OH237220   4.441   3.131  11.504 -0.9301  0.0943  0.2514
 4342TIP3    H137221   4.438   3.128  11.600 -1.4417  1.3078  0.2909
 4342TIP3    H237222   4.392   3.055  11.476  0.7253 -1.3028  0.9349
 4343TIP3   OH237223   0.353   5.215  10.476 -0.2301 -0.0869  0.0297
 4343TIP3    H137224   0.398   5.138  10.441  0.2748  0.2359 -0.0314
 4343TIP3    H237225   0.280   5.229  10.416 -2.1522 -2.2962  1.6467
 4344TIP3   OH237226   0.864   1.759   9.645 -0.2371 -0.3310 -0.3505
 4344TIP3    H137227   0.934   1.824   9.637  0.6855 -1.3976 -1.3131
 4344TIP3    H237228   0.784   1.810   9.646  0.4878  0.8520 -0.7106
 4345TIP3   OH237229   2.527   1.884  11.177  0.1758  0.2119  0.0207
 4345TIP3    H137230   2.455   1.910  11.235 -0.2229 -2.4595  0.8483
 4345TIP3    H237231   2.484   1.834  11.107  1.1408 -0.6720  0.0424
 4346TIP3   OH237232   2.185   3.838  11.198  0.0351 -0.3489 -0.3478
 4346TIP3    H137233   2.102   3.793  11.209 -1.5101  2.2462 -0.4358
 4346TIP3    H237234   2.217   3.810  11.113 -1.1027 -0.8899 -0.6178
 4347TIP3   OH237235   6.556   0.890   9.247  0.5829  0.1237  0.1382
 4347TIP3    H137236   6.585   0.970   9.202 -1.3298  0.4142 -0.6617
 4347TIP3    H237237   6.489   0.920   9.309  0.5333 -0.7425  0.5211
 4348TIP3   OH237238   3.044   2.627  10.431 -0.9350 -0.1427  0.0113
 4348TIP3    H137239   2.949   2.633  10.422 -1.1074 -1.7260  0.4407
 4348TIP3    H237240   3.072   2.576  10.354 -0.2692  1.2897 -0.7378
 4349TIP3   OH237241   4.072   3.524   9.391  0.7129 -0.0889  0.0378
 4349TIP3    H137242   4.130   3.594   9.361  0.3311  0.1003 -0.2732
 4349TIP3    H237243   4.082   3.455   9.325  1.4083 -0.5126  0.5666
 4350TIP3   OH237244   5.878   5.654  10.802  0.0037  0.1894  0.5134
 4350TIP3    H137245   5.811   5.706  10.758  0.0863 -1.2790 -1.4719
 4350TIP3    H237246   5.829   5.594  10.858 -0.2961 -0.1785 -0.1363
 4351TIP3   OH237247   4.463   3.044  11.008 -0.3615 -0.2525  0.4218
 4351TIP3    H137248   4.429   3.125  11.046  0.8622  0.3877  0.2126
 4351TIP3    H237249   4.407   3.028  10.932 -0.8424  0.1904  0.6732
 4352TIP3   OH237250   2.498   1.200  10.827 -0.4801  0.2745  0.7589
 4352TIP3    H137251   2.447   1.256  10.768  1.9669 -0.4062 -2.2668
 4352TIP3    H237252   2.454   1.115  10.822 -0.2832  0.2104 -0.2046
 4353TIP3   OH237253   0.297   1.803  11.628  0.3220  0.6710  0.1116
 4353TIP3    H137254   0.351   1.831  11.701  0.9599 -0.9170  0.2881
 4353TIP3    H237255   0.262   1.718  11.655  0.8780 -0.1287 -1.5629
 4354TIP3   OH237256   0.004   0.107   9.521 -0.2582 -0.3873 -0.4875
 4354TIP3    H137257  -0.028   0.156   9.597  0.3742  2.2242 -1.7708
 4354TIP3    H237258  -0.074   0.090   9.468 -0.2379  1.9746 -1.4273
 4355TIP3   OH237259   2.253   4.349  10.497 -0.1523  0.1137 -0.0139
 4355TIP3    H137260   2.163   4.359  10.466 -0.0450 -1.1633 -0.8018
 4355TIP3    H237261   2.245   4.309  10.583 -0.3341 -0.3392 -0.2394
 4356TIP3   OH237262   1.142   6.228  10.316  0.0129  0.7012 -0.5854
 4356TIP3    H137263   1.095   6.234  10.399 -0.0753  1.3292 -0.6734
 4356TIP3    H237264   1.225   6.186  10.338 -0.7046 -0.7054 -0.4837
 4357TIP3   OH237265   4.131   2.469  11.633 -0.6299 -0.0356  0.1561
 4357TIP3    H137266   4.152   2.497  11.544  0.7158  0.2832  0.5455
 4357TIP3    H237267   4.046   2.508  11.651 -1.2151 -0.5985 -1.1854
 4358TIP3   OH237268   0.300   2.200   9.497 -0.1658  0.2556  0.3643
 4358TIP3    H137269   0.343   2.156   9.570  0.1740  0.8996  0.5562
 4358TIP3    H237270   0.254   2.274   9.537 -0.7965  0.0389  0.0543
 4359TIP3   OH237271   5.613   6.092  10.306 -0.0750 -0.3245 -0.3500
 4359TIP3    H137272   5.682   6.159  10.309  0.8277 -1.2550  0.4375
 4359TIP3    H237273   5.537   6.134  10.346  0.7578 -0.0607  1.0218
 4360TIP3   OH237274   2.284   3.953  10.957  0.4776  0.8607 -0.1391
 4360TIP3    H137275   2.369   3.958  11.000  1.7158  2.6963 -2.5206
 4360TIP3    H237276   2.242   4.037  10.977 -0.0211  0.6832 -0.4202
 4361TIP3   OH237277   1.230   0.933   9.383 -0.4396  0.6253  0.2440
 4361TIP3    H137278   1.207   1.025   9.399  0.1157  1.4090 -2.8109
 4361TIP3    H237279   1.159   0.900   9.328  0.9179  0.2176 -1.3284
 4362TIP3   OH237280   1.570   6.592  12.182  0.1442  0.3880  0.1001
 4362TIP3    H137281   1.653   6.625  12.216  0.5337 -2.0665  1.8032
 4362TIP3    H237282   1.585   6.580  12.088  1.8259 -0.2054  0.4120
 4363TIP3   OH237283   3.158   1.386  10.539  0.5035 -0.1999 -0.4661
 4363TIP3    H137284   3.098   1.312  10.547  1.5720 -1.0849 -0.5794
 4363TIP3    H237285   3.135   1.443  10.613 -0.9959 -0.1146 -0.9487
 4364TIP3   OH237286   4.230   3.975  11.088  0.1718  0.3296 -0.1341
 4364TIP3    H137287   4.265   4.063  11.074 -0.2714  0.6098  0.4634
 4364TIP3    H237288   4.242   3.930  11.004  1.2545  0.6531 -0.1650
 4365TIP3   OH237289   4.679   0.795  10.635  0.8782 -0.1698 -0.3234
 4365TIP3    H137290   4.740   0.869  10.629  1.7644 -0.8529  0.1035
 4365TIP3    H237291   4.680   0.770  10.727 -0.8186  0.4156 -0.1004
 4366TIP3   OH237292   2.206   2.178   9.674 -0.2915  0.0451  0.0063
 4366TIP3    H137293   2.166   2.120   9.609 -0.0111  0.7546 -0.8296
 4366TIP3    H237294   2.150   2.172   9.750 -0.6964 -0.7270 -0.3451
 4367TIP3   OH237295   6.637   3.428  11.589  0.3187  0.7658  0.0081
 4367TIP3    H137296   6.675   3.383  11.513  0.0775  1.1229 -0.3254
 4367TIP3    H237297   6.636   3.361  11.658  0.4827  0.4199 -0.3190
 4368TIP3   OH237298   3.479   3.590  10.902  0.1634 -0.2787 -0.5674
 4368TIP3    H137299   3.521   3.573  10.986  2.1174 -0.4200 -1.5232
 4368TIP3    H237300   3.551   3.606  10.841 -1.2295  0.7480 -2.0367
 4369TIP3   OH237301   2.755   6.241  11.248 -0.5611 -0.3606  0.4916
 4369TIP3    H137302   2.836   6.290  11.230 -0.6358 -0.2081  0.5654
 4369TIP3    H237303   2.696   6.306  11.287 -1.1712 -0.1588 -0.7374
 4370TIP3   OH237304   1.974   6.591  11.783 -0.2930 -0.1234 -0.1820
 4370TIP3    H137305   1.996   6.650  11.856  0.8270 -0.2816 -0.3854
 4370TIP3    H237306   1.966   6.649  11.707  1.7884 -0.3102 -0.5862
 4371TIP3   OH237307   5.871   3.826   9.526  0.3002 -0.0489  0.2229
 4371TIP3    H137308   5.922   3.823   9.607 -0.2651  1.9582  0.7171
 4371TIP3    H237309   5.822   3.908   9.532 -1.6347 -1.0541 -1.0493
 4372TIP3   OH237310   6.046   6.165  11.254 -0.3854  0.0462 -0.0974
 4372TIP3    H137311   6.025   6.079  11.218 -2.3006 -0.4069  1.8348
 4372TIP3    H237312   5.961   6.202  11.277  0.5503  1.1676  1.8369
 4373TIP3   OH237313   4.608   2.828  11.597 -0.3170  0.1778  0.5192
 4373TIP3    H137314   4.533   2.847  11.541 -1.6637 -3.4258  0.8352
 4373TIP3    H237315   4.684   2.848  11.543 -1.5413  0.6192 -1.1122
 4374TIP3   OH237316   6.148   0.641   9.876  0.4260  0.0467  0.0155
 4374TIP3    H137317   6.081   0.710   9.877  1.8925  1.5444  1.4513
 4374TIP3    H237318   6.117   0.577   9.941  0.6650  1.0832  1.2014
 4375TIP3   OH237319   3.989   1.909  10.120  0.2627 -0.5410  0.1856
 4375TIP3    H137320   3.913   1.955  10.156 -0.5097 -1.4619 -0.1993
 4375TIP3    H237321   4.009   1.955  10.038  1.6368  1.1739  1.4311
 4376TIP3   OH237322   5.476   4.536  11.462  0.0063 -0.2919  0.1205
 4376TIP3    H137323   5.567   4.564  11.459  0.7922 -2.6777 -1.8845
 4376TIP3    H237324   5.448   4.554  11.552  2.5768  0.1369  0.9218
 4377TIP3   OH237325   2.666   2.783  10.680  0.1459  0.4031  0.3684
 4377TIP3    H137326   2.749   2.831  10.682 -0.3031  1.2144 -0.0377
 4377TIP3    H237327   2.643   2.779  10.587  0.3046 -0.8422  0.3708
 4378TIP3   OH237328   6.073   3.964  12.015  0.3339 -0.1216 -0.0166
 4378TIP3    H137329   6.124   4.027  12.065 -2.2944  1.5927  0.7375
 4378TIP3    H237330   6.075   3.884  12.068 -0.0605  0.7934  1.4522
 4379TIP3   OH237331   2.853   1.007  11.586  0.2185 -0.3691  0.1448
 4379TIP3    H137332   2.823   0.924  11.623  2.0740 -0.9400  0.4769
 4379TIP3    H237333   2.883   0.984  11.498  0.3743  0.0337  0.0941
 4380TIP3   OH237334   6.423   1.030  12.008 -0.4905 -0.5187  0.4598
 4380TIP3    H137335   6.450   1.092  11.940 -0.5135  0.4073  1.2651
 4380TIP3    H237336   6.450   1.072  12.090 -1.0345 -1.3141  1.0604
 4381TIP3   OH237337   5.020   4.749  11.467 -0.0567  0.0452  0.4325
 4381TIP3    H137338   4.928   4.727  11.483  0.1783 -0.6050  0.9460
 4381TIP3    H237339   5.047   4.688  11.398 -0.2212  0.7748 -0.2919
 4382TIP3   OH237340   1.024   2.180  12.209 -0.4009  0.5138  0.1120
 4382TIP3    H137341   0.977   2.263  12.215 -0.7751  0.2776  0.4660
 4382TIP3    H237342   1.100   2.199  12.153 -1.7399  0.5161 -1.8013
 4383TIP3   OH237343   3.360   2.358  10.758  0.2926  0.4781 -0.7352
 4383TIP3    H137344   3.285   2.391  10.808 -1.6871 -1.7781 -1.9904
 4383TIP3    H237345   3.411   2.308  10.822 -1.4241 -1.1747 -0.5531
 4384TIP3   OH237346   0.470   0.581   9.186 -0.0191 -0.0474 -0.1782
 4384TIP3    H137347   0.545   0.533   9.153 -0.2347 -0.1044 -0.5991
 4384TIP3    H237348   0.397   0.553   9.131 -0.3067  0.1652  0.0851
 4385TIP3   OH237349   5.466   5.207  11.525  0.0320  0.3611 -0.0967
 4385TIP3    H137350   5.548   5.218  11.477 -0.0286  0.0833 -0.2630
 4385TIP3    H237351   5.468   5.118  11.558  1.2155  1.2919  2.5732
 4386TIP3   OH237352   1.332   1.236  11.390 -0.5152 -0.1304  0.1342
 4386TIP3    H137353   1.315   1.306  11.452 -1.3218 -1.5119  1.5271
 4386TIP3    H237354   1.263   1.172  11.406 -1.2927 -0.1909 -2.7884
 4387TIP3   OH237355   2.603   4.758   9.931  0.3103  0.0245 -0.0910
 4387TIP3    H137356   2.686   4.712   9.923  0.6298  0.7484 -1.1705
 4387TIP3    H237357   2.568   4.761   9.842 -1.5119 -1.3750  0.5139
 4388TIP3   OH237358   3.271   2.127  11.903 -0.3223 -0.2484 -0.0037
 4388TIP3    H137359   3.276   2.033  11.891 -0.9816 -0.6200  2.1755
 4388TIP3    H237360   3.196   2.155  11.850 -0.7405 -1.1146  0.1189
 4389TIP3   OH237361   5.790   6.403   8.753 -0.0645  0.1424  0.6405
 4389TIP3    H137362   5.885   6.398   8.755 -0.0726  0.2175  2.1019
 4389TIP3    H237363   5.771   6.497   8.747 -0.0544  0.1428  0.6119
 4390TIP3   OH237364   5.056   3.464  11.250  0.1198  0.6964 -0.0878
 4390TIP3    H137365   5.056   3.455  11.155 -2.4775 -0.9919 -0.0118
 4390TIP3    H237366   5.121   3.400  11.280 -0.1242  0.1684 -0.6671
 4391TIP3   OH237367   5.351   2.035  11.643  0.2766  0.4693  0.0706
 4391TIP3    H137368   5.300   2.057  11.721  0.4695  1.1209  0.0218
 4391TIP3    H237369   5.298   1.969  11.598  0.1980  0.0366  0.7842
 4392TIP3   OH237370   0.788   2.321   9.288  0.5003 -0.0693  0.3499
 4392TIP3    H137371   0.783   2.417   9.296 -1.3602 -0.1241  0.2852
 4392TIP3    H237372   0.821   2.307   9.199 -0.6331  0.5269 -0.1854
 4393TIP3   OH237373   2.780   2.187  10.424 -0.4236  0.1777  0.6340
 4393TIP3    H137374   2.816   2.260  10.474  0.0123 -0.0690  0.6924
 4393TIP3    H237375   2.732   2.228  10.352 -0.9779  0.5308  1.2032
 4394TIP3   OH237376   6.369   3.632  11.260 -0.2430 -0.0089 -0.0313
 4394TIP3    H137377   6.294   3.687  11.236 -0.5159 -0.4553 -0.2077
 4394TIP3    H237378   6.332   3.561  11.311  0.0566 -0.2547 -0.1511
 4395TIP3   OH237379   4.444   5.690  10.950  0.6474 -0.5079 -0.2526
 4395TIP3    H137380   4.417   5.664  10.861  0.1429 -0.6121 -0.0720
 4395TIP3    H237381   4.535   5.663  10.956  1.3776  1.4449 -1.5155
 4396TIP3   OH237382   2.526   3.987  11.098 -0.4382 -0.2631  0.2020
 4396TIP3    H137383   2.566   3.933  11.167 -2.5334 -1.4628  0.5504
 4396TIP3    H237384   2.593   4.052  11.076  1.5434 -1.9603  0.9733
 4397TIP3   OH237385   4.214   4.645  11.865  0.0868  0.4668 -0.0207
 4397TIP3    H137386   4.268   4.566  11.859 -0.8584 -0.1267 -1.3157
 4397TIP3    H237387   4.128   4.617  11.832 -0.6640  1.6838  0.8381
 4398TIP3   OH237388   4.144   0.119  11.810  0.7667  0.1762 -0.5938
 4398TIP3    H137389   4.058   0.161  11.807  0.1250 -0.7239  2.3166
 4398TIP3    H237390   4.142   0.055  11.739 -1.5593 -0.7803  0.2385
 4399TIP3   OH237391   4.427   6.183  11.411 -0.1220 -0.2433  0.3831
 4399TIP3    H137392   4.476   6.112  11.450  2.7249  0.0610 -2.2468
 4399TIP3    H237393   4.350   6.141  11.372  1.4303 -1.9453 -1.0129
 4400TIP3   OH237394   1.941   3.218  10.473 -0.5747  0.4039 -0.8112
 4400TIP3    H137395   1.996   3.238  10.549 -3.3909  0.9125  1.2192
 4400TIP3    H237396   1.958   3.289  10.412  1.4425  0.2149 -0.5448
 4401TIP3   OH237397   2.817   2.576  10.253  0.3217 -0.2966  0.3197
 4401TIP3    H137398   2.755   2.503  10.260  0.9563 -0.7601  1.2945
 4401TIP3    H237399   2.895   2.536  10.214  0.2207  0.1555 -0.3592
 4402TIP3   OH237400   1.325   5.995  10.922  0.4317  0.0804 -0.0427
 4402TIP3    H137401   1.344   5.959  10.835  0.6032  0.2459 -0.0742
 4402TIP3    H237402   1.407   5.986  10.970  0.4993  0.4922 -0.0750
 4403TIP3   OH237403   1.310   1.990  10.527 -0.6788 -0.9188 -0.0368
 4403TIP3    H137404   1.326   2.078  10.562 -1.0704 -1.2672  1.0674
 4403TIP3    H237405   1.256   1.947  10.594 -0.2696 -2.0849 -0.4321
 4404TIP3   OH237406   6.327   2.188  10.085  0.6250  0.1056 -0.0492
 4404TIP3    H137407   6.259   2.256  10.080 -1.6889 -2.0924 -0.2013
 4404TIP3    H237408   6.392   2.215  10.020 -0.1937  2.1648 -0.0971
 4405TIP3   OH237409   1.966   1.233  11.695 -0.2559 -0.2698  0.1089
 4405TIP3    H137410   1.969   1.170  11.766 -0.9014 -0.6203 -0.1736
 4405TIP3    H237411   1.909   1.303  11.726 -0.6278 -0.4768 -0.1095
 4406TIP3   OH237412   3.181   6.174  10.029 -0.2574  0.5310  0.0223
 4406TIP3    H137413   3.176   6.246  10.093 -1.7300 -0.6841  1.3727
 4406TIP3    H237414   3.239   6.110  10.070 -1.2658 -0.2886  0.2068
 4407TIP3   OH237415   1.218   5.514   8.626 -0.3292 -0.0779  0.2450
 4407TIP3    H137416   1.218   5.608   8.646 -2.2179  0.7302 -2.9484
 4407TIP3    H237417   1.126   5.488   8.633  0.1466 -1.6857  0.9173
 4408TIP3   OH237418   4.161   5.135  10.210  0.6936 -0.0181  0.2259
 4408TIP3    H137419   4.151   5.073  10.283  0.7949  0.4024  0.6014
 4408TIP3    H237420   4.147   5.221  10.250  1.3823  0.2639 -0.1258
 4409TIP3   OH237421   5.296   2.547  10.947  0.1661  0.6428 -0.2314
 4409TIP3    H137422   5.374   2.551  10.891  1.4475 -1.2960  1.2743
 4409TIP3    H237423   5.331   2.527  11.034 -1.9510  1.0936  0.7748
 4410TIP3   OH237424   1.087   4.814   8.708 -0.3290  0.0127 -0.1492
 4410TIP3    H137425   1.084   4.726   8.671 -0.9674  0.1755 -0.4886
 4410TIP3    H237426   1.129   4.867   8.640  2.0433 -0.4166  0.8741
 4411TIP3   OH237427   0.702   6.687  10.614  0.4706  0.3057 -0.2708
 4411TIP3    H137428   0.638   6.711  10.547  0.6282  2.2781  0.2435
 4411TIP3    H237429   0.783   6.673  10.566  0.0683 -0.5646 -0.7267
 4412TIP3   OH237430   3.175   1.460   9.029 -0.1456  0.1840  0.0635
 4412TIP3    H137431   3.253   1.431   9.076 -0.1228 -0.1559 -0.1743
 4412TIP3    H237432   3.188   1.428   8.940 -0.2362  0.7330 -0.1490
 4413TIP3   OH237433   1.956   5.549   9.844  0.2566 -0.1045  0.4686
 4413TIP3    H137434   1.921   5.555   9.755 -1.0903  2.9985  1.0891
 4413TIP3    H237435   1.900   5.485   9.887  0.1085 -0.6919 -0.5599
 4414TIP3   OH237436   4.085   1.744  12.051  0.7568  0.1587 -0.0671
 4414TIP3    H137437   4.059   1.709  12.136  0.5127  0.3379 -0.0651
 4414TIP3    H237438   4.080   1.670  11.991  0.5155  0.1295 -0.0092
 4415TIP3   OH237439   4.750   3.743  10.492  0.4451 -0.1306  0.1885
 4415TIP3    H137440   4.797   3.660  10.485 -0.0662 -0.2830 -1.7177
 4415TIP3    H237441   4.759   3.784  10.406 -2.2188  0.2171 -0.0096
 4416TIP3   OH237442   3.499   6.354  10.761 -0.1625  0.8925  0.1853
 4416TIP3    H137443   3.403   6.359  10.760 -0.2657 -0.5261  0.8014
 4416TIP3    H237444   3.522   6.353  10.854  0.2298 -1.5905  0.1294
 4417TIP3   OH237445   5.438   0.416  10.890  0.1525 -0.6770 -0.0032
 4417TIP3    H137446   5.387   0.482  10.936 -0.3512 -0.9919 -0.1103
 4417TIP3    H237447   5.505   0.466  10.843 -0.3063 -0.2313 -0.1904
 4418TIP3   OH237448   3.685   6.253  11.279 -0.0650 -0.2277  0.4435
 4418TIP3    H137449   3.643   6.322  11.330 -1.9803  0.2440 -1.6193
 4418TIP3    H237450   3.630   6.176  11.292 -0.4359 -0.1688 -0.6400
 4419TIP3   OH237451   4.219   0.429  12.141 -0.1805  0.3891  0.5527
 4419TIP3    H137452   4.279   0.504  12.133 -0.0408  0.3105  0.8365
 4419TIP3    H237453   4.192   0.431  12.233  1.5115 -1.1876  1.1455
 4420TIP3   OH237454   2.564   0.594  11.525  0.5857  0.5733  0.1014
 4420TIP3    H137455   2.542   0.622  11.436 -0.0790 -2.2531 -0.7232
 4420TIP3    H237456   2.479   0.580  11.567  0.8815 -0.2341  0.4392
 4421TIP3   OH237457   6.668   4.009  10.754 -0.0036  0.6376  0.1697
 4421TIP3    H137458   6.664   3.918  10.784  1.6906  0.2035 -0.7722
 4421TIP3    H237459   6.716   4.055  10.824  1.6948  0.1623 -0.6350
 4422TIP3   OH237460   2.227   5.258   8.949  0.0809  0.1197 -0.0979
 4422TIP3    H137461   2.226   5.268   8.854  0.4017  1.0276 -0.0150
 4422TIP3    H237462   2.315   5.287   8.976  0.0669 -0.3232  0.4569
 4423TIP3   OH237463   5.316   0.827  11.930  0.5697  0.6475  0.3420
 4423TIP3    H137464   5.281   0.799  11.845 -0.0801  1.8934  0.1717
 4423TIP3    H237465   5.280   0.764  11.992 -0.3381  0.7070 -0.0995
 4424TIP3   OH237466   3.365   0.035  12.146 -0.8307  0.1785  0.4808
 4424TIP3    H137467   3.440  -0.012  12.111 -1.2912 -0.3741  0.2176
 4424TIP3    H237468   3.301  -0.034  12.166 -0.7492  0.5122  2.0081
 4425TIP3   OH237469   3.050   0.865   9.806  0.1598  0.1925 -0.0366
 4425TIP3    H137470   3.145   0.859   9.807  0.2514  1.2010  1.5337
 4425TIP3    H237471   3.021   0.777   9.782  1.4748 -0.3549  0.2769
 4426TIP3   OH237472   5.225   5.036  10.143  0.0313  0.3387 -0.0621
 4426TIP3    H137473   5.291   5.067  10.205  1.3900 -1.3236 -0.5835
 4426TIP3    H237474   5.248   5.079  10.061  1.0552 -0.9156 -0.4558
 4427TIP3   OH237475   5.601   1.182  12.280  0.5890  0.1052  0.2571
 4427TIP3    H137476   5.552   1.100  12.287  0.9301 -0.1085  0.1689
 4427TIP3    H237477   5.558   1.241  12.342  0.5218 -0.2339  0.5361
 4428TIP3   OH237478   0.930   2.952   8.497  0.2191 -0.2385 -0.4707
 4428TIP3    H137479   0.844   2.964   8.537  0.3008  0.9562 -0.6062
 4428TIP3    H237480   0.948   3.036   8.454  1.6578 -0.3126 -0.0597
 4429TIP3   OH237481   4.068   2.180   9.307  0.1945 -0.4298 -0.0614
 4429TIP3    H137482   4.114   2.102   9.277 -0.6908 -1.5090  1.2922
 4429TIP3    H237483   3.986   2.180   9.257 -0.3570 -1.0776  0.8204
 4430TIP3   OH237484   0.574   5.036  12.050  0.0268  0.0930  0.1572
 4430TIP3    H137485   0.644   4.991  12.099 -0.1007  1.2594  1.5014
 4430TIP3    H237486   0.607   5.042  11.961  1.5624  0.4006  0.7128
 4431TIP3   OH237487   4.845   5.523   9.809 -0.0391  0.4436 -0.0995
 4431TIP3    H137488   4.843   5.582   9.885 -2.1073 -0.1236  0.3280
 4431TIP3    H237489   4.755   5.518   9.779  0.5485 -0.2694 -1.9230
 4432TIP3   OH237490   3.393   4.041  11.222  0.5433 -0.0911  0.1221
 4432TIP3    H137491   3.455   4.088  11.279 -1.8520  0.3984  2.5303
 4432TIP3    H237492   3.334   3.996  11.283 -2.4717  0.7960 -1.9322
 4433TIP3   OH237493   5.452   3.512  11.277  0.3916  0.1325  0.3423
 4433TIP3    H137494   5.509   3.478  11.207 -0.3046  0.1722 -0.2631
 4433TIP3    H237495   5.374   3.457  11.272  0.8895 -0.7679  2.0257
 4434TIP3   OH237496   5.780   6.030   9.270  0.1023 -0.2033  0.0453
 4434TIP3    H137497   5.829   5.948   9.279 -1.2057 -0.9865  0.2429
 4434TIP3    H237498   5.803   6.061   9.183 -0.4659 -1.5263 -0.6068
 4435TIP3   OH237499   1.890   5.239  11.283  0.5043 -0.0704  0.2319
 4435TIP3    H137500   1.919   5.215  11.371  0.9550  2.0017  0.6906
 4435TIP3    H237501   1.969   5.236  11.230  0.5042  0.1455  0.2216
 4436TIP3   OH237502   0.233   1.700  11.085 -0.1690  0.6525  0.8053
 4436TIP3    H137503   0.179   1.707  11.164 -0.2842  2.6721  0.6062
 4436TIP3    H237504   0.319   1.732  11.111  0.0685  0.4110  0.3394
 4437TIP3   OH237505   3.819   1.068  10.732 -0.1967  0.0348 -0.2133
 4437TIP3    H137506   3.782   1.073  10.820  0.4640 -0.8801  0.1309
 4437TIP3    H237507   3.912   1.051  10.745 -0.3708 -1.8145 -1.0642
 4438TIP3   OH237508   2.616   1.365   9.432  0.3141 -0.4939 -0.4381
 4438TIP3    H137509   2.562   1.290   9.407 -0.6848 -0.1465  0.6105
 4438TIP3    H237510   2.693   1.326   9.474 -1.2232 -0.9496  2.1499
 4439TIP3   OH237511   3.710   4.010  11.420 -0.0549  0.4303  0.5808
 4439TIP3    H137512   3.707   3.987  11.327  1.4275 -2.1928  1.1032
 4439TIP3    H237513   3.766   4.087  11.423 -0.7374  1.0309 -0.7379
 4440TIP3   OH237514   2.534   2.262  11.655 -0.1261 -0.0009 -0.0641
 4440TIP3    H137515   2.455   2.311  11.635  0.2452  0.1747 -1.1922
 4440TIP3    H237516   2.506   2.170  11.658 -0.6359  0.1803  1.0566
 4441TIP3   OH237517   0.222   2.376  11.375  0.1762 -0.5332  0.7553
 4441TIP3    H137518   0.175   2.351  11.455 -1.1902  0.1459  0.1991
 4441TIP3    H237519   0.244   2.468  11.389 -1.2254 -0.0287 -0.1519
 4442TIP3   OH237520   2.046   5.012  11.825 -0.1514 -0.0366 -0.0938
 4442TIP3    H137521   2.010   4.927  11.852  1.7684 -0.8874 -0.0367
 4442TIP3    H237522   2.082   5.050  11.906 -0.8063  0.7517 -0.1590
 4443TIP3   OH237523   1.382   4.052  11.207 -0.1870 -0.2308  0.0994
 4443TIP3    H137524   1.341   3.970  11.234  0.6582 -0.4530  0.7475
 4443TIP3    H237525   1.449   4.026  11.144  0.4482 -0.1061  0.7090
 4444TIP3   OH237526   4.206   6.573   9.329  0.0218  0.5290  0.0861
 4444TIP3    H137527   4.234   6.538   9.414  0.0273 -0.3865 -0.2758
 4444TIP3    H237528   4.287   6.608   9.291 -0.0889  1.4882  0.6913
 4445TIP3   OH237529   5.934   2.928  12.043  0.2754 -0.2067 -0.7028
 4445TIP3    H137530   5.904   2.852  11.994 -1.1183  1.3567 -2.3953
 4445TIP3    H237531   5.858   2.986  12.047  1.2024  0.9899  0.8246
 4446TIP3   OH237532   4.411   1.935  10.986 -0.3026  0.3864 -0.2949
 4446TIP3    H137533   4.404   2.030  10.997  1.6389  0.3966  1.5328
 4446TIP3    H237534   4.463   1.924  10.906  1.4580  0.9897  0.7149
 4447TIP3   OH237535   5.586   5.746  11.703  0.2801 -0.0653 -0.6184
 4447TIP3    H137536   5.658   5.731  11.764  1.5219 -2.2881 -2.4583
 4447TIP3    H237537   5.523   5.677  11.723 -0.3741  0.5895 -0.3926
 4448TIP3   OH237538   2.393   2.551  11.895 -0.3306 -0.2952 -0.7044
 4448TIP3    H137539   2.410   2.609  11.969 -1.6287  2.1663 -2.2430
 4448TIP3    H237540   2.370   2.467  11.936  0.2296  0.6033  1.6262
 4449TIP3   OH237541   0.337   1.509   9.458 -0.3767 -0.3875 -0.1525
 4449TIP3    H137542   0.397   1.558   9.514 -0.6199 -0.8818  0.5458
 4449TIP3    H237543   0.393   1.446   9.413 -0.4324 -1.2599  0.9523
 4450TIP3   OH237544   0.477   3.672   9.324 -0.5949  0.4449 -0.1505
 4450TIP3    H137545   0.567   3.701   9.341 -0.3133 -0.4703 -0.0390
 4450TIP3    H237546   0.484   3.619   9.245 -0.5730 -1.7677  1.2568
 4451TIP3   OH237547   3.315   2.926  10.304 -0.5605 -0.4893  0.0554
 4451TIP3    H137548   3.235   2.918  10.253 -0.8829  0.0019  0.4694
 4451TIP3    H237549   3.328   2.840  10.344 -1.1475 -0.4270  0.3784
 4452TIP3   OH237550   0.761   2.479   9.696 -0.0540  0.1676  0.3265
 4452TIP3    H137551   0.778   2.386   9.684 -1.0231  0.0969 -0.6604
 4452TIP3    H237552   0.693   2.483   9.763 -0.2301  0.1313  0.1541
 4453TIP3   OH237553   6.469   6.520  11.933  0.4951 -0.2513  0.2170
 4453TIP3    H137554   6.502   6.437  11.900  1.7430 -0.1929  1.2647
 4453TIP3    H237555   6.412   6.496  12.007 -1.4913 -0.3155 -1.2344
 4454TIP3   OH237556   4.203   2.354   9.524  0.1146 -0.2317  0.1585
 4454TIP3    H137557   4.276   2.407   9.491  0.7336 -0.9470  0.3569
 4454TIP3    H237558   4.187   2.290   9.454 -1.3719  0.8832 -0.5797
 4455TIP3   OH237559   3.863   2.334   8.678 -0.6380  0.0031  0.1080
 4455TIP3    H137560   3.944   2.357   8.632 -0.8058 -1.0422 -0.7534
 4455TIP3    H237561   3.809   2.292   8.611 -1.0352 -1.2638  1.1833
 4456TIP3   OH237562   3.773   2.938  11.032 -0.1192  0.1548 -0.8603
 4456TIP3    H137563   3.712   2.971  11.098  1.0941 -0.0084  0.3858
 4456TIP3    H237564   3.722   2.938  10.950 -0.9849  2.5297 -0.4034
 4457TIP3   OH237565   1.591   2.282  11.801  0.1075 -0.3792 -0.4256
 4457TIP3    H137566   1.516   2.332  11.832 -1.5683 -2.3547 -1.0122
 4457TIP3    H237567   1.614   2.321  11.717  0.4731  0.9217  0.2591
 4458TIP3   OH237568   1.209   0.594  10.694  0.3071  0.1069  0.8165
 4458TIP3    H137569   1.303   0.616  10.690 -0.0089  1.3463 -0.8702
 4458TIP3    H237570   1.172   0.635  10.616 -1.7066 -0.1102  1.6143
 4459TIP3   OH237571   2.955   0.020  11.972  0.0800  0.4864  0.2887
 4459TIP3    H137572   2.880   0.066  12.010 -0.1725  0.1539  0.2000
 4459TIP3    H237573   3.019   0.089  11.955 -1.0970  1.1534 -1.8340
 4460TIP3   OH237574   1.066   1.313  10.328 -0.4065  0.0753  0.0133
 4460TIP3    H137575   1.023   1.398  10.323  1.4384  0.9901 -1.2076
 4460TIP3    H237576   1.158   1.333  10.346  0.4966 -1.4986 -2.3104
 4461TIP3   OH237577   2.960   4.027  10.889  0.7456 -0.0292  0.0594
 4461TIP3    H137578   2.986   4.061  10.804  0.8896 -2.1687 -0.8274
 4461TIP3    H237579   3.040   4.029  10.942  1.0734 -0.2300 -0.4211
 4462TIP3   OH237580   6.423   3.974   9.520  0.1641  0.1634 -0.4204
 4462TIP3    H137581   6.478   3.900   9.547 -0.4140  0.3709  1.4770
 4462TIP3    H237582   6.378   3.943   9.442  1.6663 -0.6315 -1.0123
 4463TIP3   OH237583   0.117   3.332   9.140 -0.1358 -0.3674  0.1278
 4463TIP3    H137584   0.201   3.317   9.184  0.0753  3.3849  1.3100
 4463TIP3    H237585   0.133   3.408   9.083 -1.7347 -2.0749 -2.8725
 4464TIP3   OH237586   0.470   1.843  11.863 -0.1376  0.1165  0.1015
 4464TIP3    H137587   0.430   1.895  11.933 -0.9412 -0.7239  0.2771
 4464TIP3    H237588   0.536   1.789  11.908  0.4562  0.7114 -0.0316
 4465TIP3   OH237589   1.742   1.745   9.991  0.0695  1.0699 -0.1025
 4465TIP3    H137590   1.783   1.697   9.920  1.6896  4.2941 -1.5756
 4465TIP3    H237591   1.660   1.778   9.954 -0.4758  0.4303  0.5095
 4466TIP3   OH237592   2.528   3.735  10.375 -0.0974 -0.1012  0.4539
 4466TIP3    H137593   2.563   3.699  10.294 -0.8667  0.8328 -0.3059
 4466TIP3    H237594   2.532   3.661  10.437  0.4930 -0.8198 -0.4145
 4467TIP3   OH237595   4.080   3.015   8.651  0.5073 -0.3880 -0.0412
 4467TIP3    H137596   4.170   3.010   8.685  0.2347 -2.0525  0.5146
 4467TIP3    H237597   4.058   3.108   8.656  1.5119 -0.1997  1.6782
 4468TIP3   OH237598   4.294   4.413  10.827  0.5146 -0.6783  0.4743
 4468TIP3    H137599   4.213   4.464  10.813 -0.2691 -1.9332  0.2964
 4468TIP3    H237600   4.364   4.475  10.807 -0.4441 -0.3395 -2.3351
 4469TIP3   OH237601   6.156   3.808  11.210  0.3920 -0.0786  0.5066
 4469TIP3    H137602   6.085   3.793  11.273 -0.6684 -0.4908 -0.7315
 4469TIP3    H237603   6.157   3.902  11.196 -0.4996 -0.1546 -0.1109
 4470TIP3   OH237604   6.055   1.065  10.941 -0.5876  0.1277  0.1248
 4470TIP3    H137605   6.093   1.127  11.004  2.4284  0.8004 -2.1224
 4470TIP3    H237606   6.083   0.979  10.972 -2.8630 -0.0391  1.9978
 4471TIP3   OH237607   6.148   5.227  12.002 -0.6444 -0.1705 -0.5371
 4471TIP3    H137608   6.155   5.138  11.966 -0.9362  0.0200 -1.0730
 4471TIP3    H237609   6.146   5.284  11.925  1.2348  0.4384 -0.1786
 4472TIP3   OH237610   5.871   0.521   9.868  0.4145 -0.1134  0.4030
 4472TIP3    H137611   5.904   0.601   9.826  0.8774  0.7226  2.2617
 4472TIP3    H237612   5.897   0.450   9.809 -1.1361  1.1397 -1.9913
 4473TIP3   OH237613   1.505   0.075  10.310  0.2205  0.3405 -0.4813
 4473TIP3    H137614   1.574   0.113  10.364  0.7215  0.4576 -1.1967
 4473TIP3    H237615   1.523  -0.018  10.309  1.0183  0.4948 -1.5632
 4474TIP3   OH237616   4.608   4.244  10.739  0.6474 -0.3640  0.2626
 4474TIP3    H137617   4.645   4.156  10.738 -2.3455 -1.7996  1.7001
 4474TIP3    H237618   4.635   4.280  10.823  0.6691 -0.4894  0.3103
 4475TIP3   OH237619   1.850   5.405  11.921  0.0282  0.6295  0.8528
 4475TIP3    H137620   1.788   5.378  11.989  0.4995 -0.8539  0.7294
 4475TIP3    H237621   1.932   5.420  11.968  0.2233  0.0958  0.6918
 4476TIP3   OH237622   5.587   2.332  11.412  0.0633  0.4727  0.2861
 4476TIP3    H137623   5.503   2.300  11.445  0.0652  0.6304  0.4414
 4476TIP3    H237624   5.651   2.300  11.475  0.0566  0.8504  0.4891
 4477TIP3   OH237625   4.022   0.986  11.134  0.0008  0.6698  0.3587
 4477TIP3    H137626   4.057   1.014  11.049 -0.9103 -1.5297 -0.7984
 4477TIP3    H237627   3.981   1.065  11.169  3.4980  2.6551  0.5402
 4478TIP3   OH237628   1.988   0.701  10.674  0.3058 -0.1127  0.1625
 4478TIP3    H137629   1.907   0.751  10.686  1.5644  2.0818 -0.1739
 4478TIP3    H237630   1.978   0.658  10.589 -0.1605  0.8230 -0.2609
 4479TIP3   OH237631   5.757   4.206  10.925 -0.3696 -0.0868  0.1804
 4479TIP3    H137632   5.664   4.216  10.943 -0.2110 -0.4032  1.2580
 4479TIP3    H237633   5.766   4.116  10.893 -0.5184  0.1591 -0.5675
 4480TIP3   OH237634   4.741   5.370  11.259  0.3040 -0.4456  0.3102
 4480TIP3    H137635   4.794   5.402  11.185  0.9807 -0.3218  0.8306
 4480TIP3    H237636   4.802   5.370  11.333 -0.4056 -0.4201  0.9046
 4481TIP3   OH237637   2.009   4.006  10.891 -0.3962 -0.4671 -0.4991
 4481TIP3    H137638   1.948   3.943  10.930 -0.6844  0.0155 -0.1571
 4481TIP3    H237639   2.095   3.965  10.901 -0.4090 -0.1807  1.0357
 4482TIP3   OH237640   3.924   1.367  10.971 -0.1413 -0.5104  0.2243
 4482TIP3    H137641   3.928   1.412  10.887 -1.4296  0.2575  0.5407
 4482TIP3    H237642   3.980   1.290  10.960  1.3244  0.6207 -0.6560
 4483TIP3   OH237643   4.665   3.367  11.978  0.1846 -0.3792 -0.4167
 4483TIP3    H137644   4.600   3.426  12.017 -0.4526 -1.8662  0.8954
 4483TIP3    H237645   4.721   3.340  12.051  0.4238 -1.4223 -0.9569
 4484TIP3   OH237646   0.287   4.873   9.430  0.4918  0.3089  0.5105
 4484TIP3    H137647   0.237   4.949   9.459 -0.4625  0.8129 -2.1398
 4484TIP3    H237648   0.225   4.823   9.376  0.7186 -3.0500  3.0221
 4485TIP3   OH237649   6.555   3.559  10.192 -0.2332 -0.1887 -0.0891
 4485TIP3    H137650   6.626   3.604  10.238 -0.5010 -0.4129  0.5514
 4485TIP3    H237651   6.574   3.466  10.202  1.0591 -0.2556 -2.5735
 4486TIP3   OH237652   1.528   0.552  10.093 -0.0030  0.1150  0.1751
 4486TIP3    H137653   1.579   0.471  10.094 -0.3634 -0.1376  2.2313
 4486TIP3    H237654   1.552   0.594  10.011  2.3782 -0.7018  0.3829
 4487TIP3   OH237655   1.565   1.553   8.891 -1.1332 -0.6025  0.6982
 4487TIP3    H137656   1.577   1.470   8.845 -0.2717 -0.5807  0.8775
 4487TIP3    H237657   1.557   1.618   8.822 -1.9994 -0.8449  0.5522
 4488TIP3   OH237658   5.658   3.190  10.918 -0.1332 -0.4598  0.2889
 4488TIP3    H137659   5.620   3.105  10.943 -0.7314  0.4087  2.5198
 4488TIP3    H237660   5.751   3.182  10.938 -0.2704 -0.4288  0.9321
 4489TIP3   OH237661   5.123   5.138  10.695 -0.5054  0.0460  0.0788
 4489TIP3    H137662   5.087   5.051  10.715 -0.6688  0.0850 -0.0395
 4489TIP3    H237663   5.107   5.189  10.774  1.9315 -0.7471  1.1567
 4490TIP3   OH237664   5.783   1.700  10.223  0.1327 -0.7757 -0.6588
 4490TIP3    H137665   5.759   1.668  10.310 -0.3257 -0.2116 -0.5686
 4490TIP3    H237666   5.700   1.720  10.180  0.3849  0.9670 -0.4318
 4491TIP3   OH237667   2.079   6.249  10.180 -1.0440 -0.3365 -0.2269
 4491TIP3    H137668   2.138   6.179  10.152 -0.3981  0.5501 -1.1580
 4491TIP3    H237669   2.137   6.323  10.198 -1.8584  0.5970 -1.3011
 4492TIP3   OH237670   2.849   3.216   9.907  0.0209  0.3497 -0.1210
 4492TIP3    H137671   2.884   3.301   9.881  0.5059  0.0242 -0.5538
 4492TIP3    H237672   2.923   3.156   9.898 -1.1153 -0.7798 -3.1539
 4493TIP3   OH237673   6.655   0.289  12.028  0.5324 -0.1143  0.0371
 4493TIP3    H137674   6.735   0.331  11.999 -0.3461  0.4466 -1.7030
 4493TIP3    H237675   6.640   0.217  11.966 -0.6097  0.1622 -0.0421
 4494TIP3   OH237676   4.205   3.565  11.746 -0.1355  0.3201 -0.0910
 4494TIP3    H137677   4.236   3.618  11.672 -1.5476  0.2601 -0.7715
 4494TIP3    H237678   4.277   3.567  11.809  0.9741  0.6560 -1.3203
 4495TIP3   OH237679   2.105   3.761  11.609 -0.0499  0.2458  0.0514
 4495TIP3    H137680   2.092   3.696  11.678 -0.6915  1.2906  0.9359
 4495TIP3    H237681   2.194   3.746  11.579 -0.7945 -2.3889 -1.1995
 4496TIP3   OH237682   6.695   3.604  10.606 -0.0666  0.0036 -0.1276
 4496TIP3    H137683   6.778   3.563  10.629  1.0447  1.9155 -0.5493
 4496TIP3    H237684   6.677   3.665  10.678  0.0238  1.1575 -1.0540
 4497TIP3   OH237685   6.562   3.199   9.920 -0.4114 -0.3051  0.5771
 4497TIP3    H137686   6.585   3.110   9.893  0.3888 -0.6670  2.3530
 4497TIP3    H237687   6.644   3.247   9.918 -0.2640 -0.4167  2.5391
 4498TIP3   OH237688   2.887   1.728  11.918 -0.2963 -0.4848 -0.5981
 4498TIP3    H137689   2.843   1.812  11.930 -2.2120 -1.4757 -0.3425
 4498TIP3    H237690   2.905   1.724  11.824  0.3014  0.4208 -0.5354
 4499TIP3   OH237691   2.138   5.944  11.927 -0.7901 -0.3604  0.3571
 4499TIP3    H137692   2.056   5.969  11.883 -0.0689  3.7671  0.9317
 4499TIP3    H237693   2.111   5.916  12.014 -1.6961 -0.1033  0.1724
 4500TIP3   OH237694   1.463   3.997  12.166  0.0597  0.1059 -0.5033
 4500TIP3    H137695   1.535   3.986  12.105  0.0456 -0.6359 -0.4000
 4500TIP3    H237696   1.461   4.091  12.185  0.2831  0.2919 -1.3607
 4501TIP3   OH237697   3.212   4.598  10.567 -0.1583 -0.2631 -0.0096
 4501TIP3    H137698   3.128   4.582  10.610 -0.9868 -1.6423 -2.0187
 4501TIP3    H237699   3.215   4.693  10.554 -1.0884 -0.1367  0.6510
 4502TIP3   OH237700   3.607   1.235  11.659  0.1156  0.1615  0.2244
 4502TIP3    H137701   3.692   1.221  11.700 -0.0556 -0.2790  0.4366
 4502TIP3    H237702   3.573   1.313  11.701 -0.4950 -0.8346  1.6782
 4503TIP3   OH237703   4.713   1.358  10.763 -0.3956  0.6455  0.6161
 4503TIP3    H137704   4.737   1.447  10.787  1.0748  0.2687  0.6935
 4503TIP3    H237705   4.627   1.365  10.722  0.6649  2.4261 -1.4747
 4504TIP3   OH237706   4.472   6.669  11.585 -0.5411  0.2714 -0.0704
 4504TIP3    H137707   4.545   6.643  11.642 -1.7716 -1.3351  0.8518
 4504TIP3    H237708   4.422   6.589  11.572 -2.0785  1.3075 -0.7939
 4505TIP3   OH237709   5.361   0.512  10.069  0.2157  0.3492 -0.4633
 4505TIP3    H137710   5.404   0.428  10.088 -1.2118  0.1487  2.2601
 4505TIP3    H237711   5.269   0.489  10.054  0.2014  1.2374 -2.0703
 4506TIP3   OH237712   6.317   2.464   9.523  0.1695  0.0060 -0.2585
 4506TIP3    H137713   6.312   2.372   9.550 -0.2513 -0.9741 -3.2704
 4506TIP3    H237714   6.393   2.498   9.570 -0.1472 -1.6297  1.5632
 4507TIP3   OH237715   4.656   5.814  11.242  0.1540 -0.6632  0.1204
 4507TIP3    H137716   4.673   5.790  11.333 -1.9509 -3.5095 -0.0715
 4507TIP3    H237717   4.568   5.853  11.243  0.2567 -0.3847 -0.6449
 4508TIP3   OH237718   6.121   5.355  10.708 -0.6992 -0.4535  0.3435
 4508TIP3    H137719   6.057   5.353  10.637  0.3291 -0.1055 -0.6152
 4508TIP3    H237720   6.073   5.390  10.783 -1.3828  0.7827 -0.6367
 4509TIP3   OH237721   3.527   2.207   9.686  0.3666  0.3759  0.0031
 4509TIP3    H137722   3.547   2.300   9.688 -2.2766  1.0505 -0.5281
 4509TIP3    H237723   3.453   2.200   9.626  0.2168 -2.0173  0.3637
 4510TIP3   OH237724   0.246   5.511  11.385  0.2472  0.5711  0.4533
 4510TIP3    H137725   0.267   5.596  11.424 -1.1167  0.8473  0.6446
 4510TIP3    H237726   0.151   5.513  11.372 -0.1458 -1.6822  2.2894
 4511TIP3   OH237727   1.448   4.898   8.653  0.2951  0.1365  0.1451
 4511TIP3    H137728   1.521   4.839   8.635 -0.5579 -1.0855  0.5586
 4511TIP3    H237729   1.453   4.914   8.747  0.5764  0.8131  0.0199
 4512TIP3   OH237730   2.562   3.769   9.808  0.4092 -0.0249  0.0029
 4512TIP3    H137731   2.644   3.818   9.803 -0.1383  0.7881 -1.8080
 4512TIP3    H237732   2.567   3.706   9.737 -0.6608  0.2605 -0.3452
 4513TIP3   OH237733   2.629   4.446  12.377 -0.6031  0.2017  0.7162
 4513TIP3    H137734   2.636   4.444  12.281  0.6930  0.7290  0.7770
 4513TIP3    H237735   2.679   4.524  12.402  1.0689 -1.1912  1.9608
 4514TIP3   OH237736   0.286   1.332   9.760  0.5477  0.0860 -0.6236
 4514TIP3    H137737   0.363   1.375   9.797  0.2483 -0.2754  0.4474
 4514TIP3    H237738   0.253   1.277   9.831 -0.1362 -0.5079 -1.3859
 4515TIP3   OH237739   1.506   0.722   8.825 -0.4384 -0.4488 -0.3118
 4515TIP3    H137740   1.454   0.798   8.798 -0.7686 -0.2545  0.7946
 4515TIP3    H237741   1.596   0.754   8.828 -0.6991  0.2617  1.2512
 4516TIP3   OH237742   6.405   0.439  11.963  0.2935  0.1962  0.3713
 4516TIP3    H137743   6.446   0.515  12.004  0.2056 -0.6133  2.0463
 4516TIP3    H237744   6.445   0.363  12.007 -1.1282 -0.6644  0.2496
 4517TIP3   OH237745   3.654   5.215   9.654  0.1892  0.0517  0.1748
 4517TIP3    H137746   3.622   5.300   9.623 -1.3980 -0.9445 -1.1078
 4517TIP3    H237747   3.748   5.226   9.662  0.2183  1.4820 -1.5525
 4518TIP3   OH237748   5.490   4.152  11.004  0.3718 -0.4457 -0.3858
 4518TIP3    H137749   5.534   4.093  11.065 -1.6185 -0.5723  1.0208
 4518TIP3    H237750   5.468   4.098  10.929 -0.1432 -1.1328  0.2547
 4519TIP3   OH237751   3.598   0.069   9.102  0.0166 -0.0167  0.1202
 4519TIP3    H137752   3.537   0.133   9.138  0.6498  0.4099  0.4526
 4519TIP3    H237753   3.640   0.030   9.178  0.2824 -0.1890 -0.1104
 4520TIP3   OH237754   1.498   5.803   9.569 -0.6599 -0.1537  0.4639
 4520TIP3    H137755   1.520   5.712   9.548 -0.1606 -0.5153  2.3240
 4520TIP3    H237756   1.415   5.797   9.617 -0.2353  0.2580  1.2812
 4521TIP3   OH237757   1.021   3.102   9.541  0.3241  0.0911  0.5763
 4521TIP3    H137758   1.004   3.179   9.594  1.3540  0.7278  0.0111
 4521TIP3    H237759   0.940   3.089   9.491 -0.0016  0.5432  0.9740
 4522TIP3   OH237760   4.008   0.556  11.347  0.0594  0.1944 -0.2583
 4522TIP3    H137761   4.081   0.616  11.367 -0.6018  0.9468 -0.0510
 4522TIP3    H237762   3.937   0.614  11.320 -0.3567 -0.5587 -0.8037
 4523TIP3   OH237763   3.366   2.337   9.507  0.7463 -0.3142  0.3441
 4523TIP3    H137764   3.385   2.404   9.442 -1.8893 -0.1371 -0.3615
 4523TIP3    H237765   3.273   2.317   9.495  0.7880 -2.1415  2.3575
 4524TIP3   OH237766   5.854   3.271   9.636 -0.1440 -0.2759 -0.5319
 4524TIP3    H137767   5.902   3.344   9.675  1.0061 -1.9449  1.3254
 4524TIP3    H237768   5.891   3.262   9.548 -1.3150  2.2135 -1.3782
 4525TIP3   OH237769   6.702   1.915   9.196 -0.4188  0.5129 -0.0177
 4525TIP3    H137770   6.632   1.850   9.187 -1.0595  1.1528  0.2173
 4525TIP3    H237771   6.663   1.996   9.162 -0.4043  1.2845  1.7167
 4526TIP3   OH237772   4.203   6.074  11.270  0.3788 -0.2654 -0.0058
 4526TIP3    H137773   4.128   6.131  11.286  0.4990  0.2923 -1.3308
 4526TIP3    H237774   4.169   5.985  11.282  0.3533  0.0147  2.7601
 4527TIP3   OH237775   2.374   2.011  11.371  0.2973  0.6166  0.1493
 4527TIP3    H137776   2.306   2.023  11.437 -0.8306  1.6555 -1.1668
 4527TIP3    H237777   2.453   2.046  11.412 -0.2394  0.7073  1.1514
 4528TIP3   OH237778   3.269   5.879   9.970  0.2597 -0.1857  0.2081
 4528TIP3    H137779   3.362   5.899   9.967  0.2688 -0.2997 -0.3050
 4528TIP3    H237780   3.235   5.905   9.884 -0.4746  1.2299  0.8912
 4529TIP3   OH237781   4.100   1.060  11.453  0.1178  0.2893  0.2539
 4529TIP3    H137782   4.125   1.069  11.362 -0.1863  1.2426  0.2585
 4529TIP3    H237783   4.179   1.027  11.497 -0.1426 -1.5399 -0.5741
 4530TIP3   OH237784   4.404   4.424  12.244  0.7929 -0.0193 -0.2147
 4530TIP3    H137785   4.343   4.497  12.233  2.3486  1.1123 -1.8052
 4530TIP3    H237786   4.366   4.372  12.316 -0.7186  1.9581  0.5109
 4531TIP3   OH237787   0.706   3.574  11.096 -0.2184  0.5711  0.0187
 4531TIP3    H137788   0.786   3.579  11.148 -0.0200 -1.6456  0.0120
 4531TIP3    H237789   0.646   3.521  11.149 -2.5458  3.8535  0.9775
 4532TIP3   OH237790   2.756   2.963  11.338 -0.2775  0.2570 -0.0712
 4532TIP3    H137791   2.795   3.006  11.261 -1.6953  2.5481  0.4331
 4532TIP3    H237792   2.663   2.980  11.331 -0.3202  1.7149  2.8571
 4533TIP3   OH237793   4.757   3.999   9.580  0.0071  0.4890 -0.0156
 4533TIP3    H137794   4.846   4.002   9.546 -0.0883 -1.6535 -0.6129
 4533TIP3    H237795   4.750   4.077   9.636  2.6298  0.1044  0.9870
 4534TIP3   OH237796   0.109   5.553  10.404  0.9587 -0.3947 -0.3560
 4534TIP3    H137797   0.076   5.543  10.493  1.7325 -0.7039 -0.0953
 4534TIP3    H237798   0.114   5.648  10.390 -0.6837 -0.3293 -0.6613
 4535TIP3   OH237799   4.564   2.978   9.025  0.0982 -0.0842  0.0958
 4535TIP3    H137800   4.565   3.069   9.057  1.1486 -0.2151  0.4970
 4535TIP3    H237801   4.628   2.977   8.954  0.2187 -0.5532  0.2112
 4536TIP3   OH237802   1.879   4.479   9.239  0.2502 -0.4940  0.2601
 4536TIP3    H137803   1.955   4.532   9.216  0.9784 -0.6904  2.1074
 4536TIP3    H237804   1.836   4.461   9.155  1.8899  0.1331 -0.7487
 4537TIP3   OH237805   6.579   2.213  10.714  0.6595 -0.3184  0.3328
 4537TIP3    H137806   6.501   2.254  10.678  0.2640 -2.1239 -0.9787
 4537TIP3    H237807   6.547   2.160  10.787  0.2432 -2.6630 -1.4269
 4538TIP3   OH237808   6.696   2.568   9.924  0.2220 -0.2599  0.1008
 4538TIP3    H137809   6.648   2.610   9.852  0.5653  0.1316  0.0964
 4538TIP3    H237810   6.692   2.631   9.996  0.8725 -0.1492  0.0438
 4539TIP3   OH237811   2.469   4.655  10.155 -0.6039 -0.1701  0.3547
 4539TIP3    H137812   2.509   4.671  10.069 -0.1475 -0.5963  0.4802
 4539TIP3    H237813   2.507   4.723  10.211 -0.6547 -0.0903  0.2933
 4540TIP3   OH237814   6.697   1.027  10.954 -0.1965  0.5178 -0.4333
 4540TIP3    H137815   6.780   1.074  10.963 -0.1758  0.6882 -1.4155
 4540TIP3    H237816   6.681   1.024  10.860 -0.7507 -0.4944 -0.3211
 4541TIP3   OH237817   0.022   1.805  10.936 -0.1852 -0.4642 -0.4743
 4541TIP3    H137818   0.025   1.748  10.859 -0.6313 -0.6819 -0.3343
 4541TIP3    H237819   0.104   1.789  10.981 -0.4286 -1.2121 -0.2883
 4542TIP3   OH237820   6.169   6.634   9.579  0.1941 -0.0189 -0.0828
 4542TIP3    H137821   6.211   6.553   9.607  0.2138  0.2907  0.8353
 4542TIP3    H237822   6.097   6.647   9.641  0.5040  0.9151  0.1106
 4543TIP3   OH237823   0.373   3.828  11.982 -0.0377  0.6454 -0.3097
 4543TIP3    H137824   0.289   3.787  11.961  0.1697  0.3566 -0.5979
 4543TIP3    H237825   0.379   3.824  12.077  0.0432 -0.1279 -0.3446
 4544TIP3   OH237826   3.938   5.617  11.354  0.3262  0.6342 -0.4406
 4544TIP3    H137827   3.895   5.566  11.423  0.2465 -0.6998 -1.4344
 4544TIP3    H237828   3.866   5.642  11.295  0.5748  0.6032 -0.7580
 4545TIP3   OH237829   0.513   3.599  11.376  0.3196  0.3299 -0.1701
 4545TIP3    H137830   0.484   3.521  11.423 -2.2904  1.6652  0.6561
 4545TIP3    H237831   0.469   3.594  11.291  1.6231  0.0093 -0.8353
 4546TIP3   OH237832   0.010   4.139   9.525 -0.1328  0.2549 -0.4091
 4546TIP3    H137833  -0.064   4.145   9.585  0.9193 -1.7579  1.2307
 4546TIP3    H237834   0.086   4.162   9.579  0.5939  1.0810 -1.7256
 4547TIP3   OH237835   0.513   1.066  11.976  0.7919  0.4945 -0.0088
 4547TIP3    H137836   0.517   0.972  11.996 -0.2709 -0.7212 -4.3709
 4547TIP3    H237837   0.602   1.089  11.950  0.7952  0.3870 -0.0922
 4548TIP3   OH237838   1.111   4.585  10.924 -0.8990 -0.0473 -0.1922
 4548TIP3    H137839   1.025   4.554  10.953 -1.3044 -0.8180 -2.1236
 4548TIP3    H237840   1.112   4.677  10.949 -1.2723 -0.5910  2.0596
 4549TIP3   OH237841   5.215   1.961   8.211  0.1249 -0.4662  1.4555
 4549TIP3    H137842   5.216   2.038   8.155  0.3302 -1.6097 -0.1956
 4549TIP3    H237843   5.157   1.984   8.283 -0.6804  0.8422  0.4406
 4550TIP3   OH237844   5.182   3.670  11.974  0.0568 -0.0393 -0.2739
 4550TIP3    H137845   5.149   3.746  12.023  1.0569  0.2899 -0.1040
 4550TIP3    H237846   5.141   3.595  12.016  0.8342  0.2445  1.0322
 4551TIP3   OH237847   6.363   6.639  10.810  0.4626  0.2252  0.8942
 4551TIP3    H137848   6.340   6.600  10.895  1.4474 -0.5901  0.8095
 4551TIP3    H237849   6.332   6.575  10.746  1.2560  0.0177  0.7147
 4552TIP3   OH237850   1.122   1.058   9.629  0.4467 -0.0189 -0.3790
 4552TIP3    H137851   1.186   1.095   9.690 -0.6676  0.6840  0.3787
 4552TIP3    H237852   1.124   0.964   9.647 -2.1082  0.3888  3.0803
 4553TIP3   OH237853   1.682   3.230  12.208 -0.1864  0.2269  0.0779
 4553TIP3    H137854   1.767   3.238  12.165 -0.0206  0.8778  0.5155
 4553TIP3    H237855   1.633   3.307  12.180 -0.5279  0.0048  0.0617
 4554TIP3   OH237856   5.846   5.685  11.331  0.4278 -0.0336  0.6128
 4554TIP3    H137857   5.935   5.709  11.356  0.2458 -0.5290  1.8062
 4554TIP3    H237858   5.791   5.719  11.401 -0.1966 -0.7323  0.4758
 4555TIP3   OH237859   2.955   5.040  10.108  0.0351  0.4014 -0.6276
 4555TIP3    H137860   3.009   5.061  10.032  1.1207 -0.0134  0.0041
 4555TIP3    H237861   2.970   4.946  10.122 -1.3203  0.1407 -0.7862
 4556TIP3   OH237862   0.438   1.490  10.846 -0.3059  0.0654  0.0948
 4556TIP3    H137863   0.471   1.575  10.874  1.8448 -0.2385 -1.2936
 4556TIP3    H237864   0.423   1.499  10.752  0.5005 -1.2056 -0.1930
 4557TIP3   OH237865   4.245   5.725  10.242 -0.0937 -0.0679  0.3829
 4557TIP3    H137866   4.151   5.715  10.232  0.2780 -2.1160 -2.3389
 4557TIP3    H237867   4.275   5.639  10.272  0.9977  0.3494  0.5486
 4558TIP3   OH237868   5.831   1.123   9.403  0.2558 -0.6447 -1.1034
 4558TIP3    H137869   5.894   1.132   9.475 -1.9249 -0.5736  0.9162
 4558TIP3    H237870   5.886   1.120   9.324  2.6933  1.1001  0.3506
 4559TIP3   OH237871   1.688   6.481  10.059  0.2636  0.4630  0.6849
 4559TIP3    H137872   1.615   6.422  10.039  0.0660  1.2729 -1.2099
 4559TIP3    H237873   1.763   6.441  10.015  0.4967  0.7654  0.8026
 4560TIP3   OH237874   1.572   2.239  11.114 -0.9342 -0.2103  0.2171
 4560TIP3    H137875   1.591   2.198  11.199 -0.6502  0.8821  0.6990
 4560TIP3    H237876   1.612   2.326  11.120 -0.9517 -0.1079 -1.0260
 4561TIP3   OH237877   2.187   5.733  10.830  0.0957  0.3626  0.3793
 4561TIP3    H137878   2.136   5.676  10.772  1.6076 -0.7522  0.0918
 4561TIP3    H237879   2.178   5.694  10.917  0.4251  0.1774  0.3322
 4562TIP3   OH237880   6.327   3.661  12.101  0.7197 -0.0072 -0.0835
 4562TIP3    H137881   6.417   3.679  12.126  1.8297 -3.4220 -1.0153
 4562TIP3    H237882   6.321   3.688  12.010  0.7350  0.3739  0.0277
 4563TIP3   OH237883   5.958   6.011  10.342 -0.5796 -0.0424 -0.1648
 4563TIP3    H137884   5.894   6.022  10.272 -0.4772 -0.7680 -0.3815
 4563TIP3    H237885   6.042   6.032  10.301 -0.4051 -1.3847 -0.5320
 4564TIP3   OH237886   4.942   4.423  11.931 -0.4924 -0.4633  0.4627
 4564TIP3    H137887   4.863   4.476  11.944 -0.4865 -0.7325  1.7020
 4564TIP3    H237888   5.012   4.487  11.915 -0.8626 -0.2060 -0.1616
 4565TIP3   OH237889   4.812   5.892  12.019 -0.4396  0.0350 -0.2597
 4565TIP3    H137890   4.760   5.834  12.074 -0.5478  0.1570 -0.2328
 4565TIP3    H237891   4.879   5.836  11.981  0.6968  0.2529  1.3220
 4566TIP3   OH237892   4.115   3.610  11.008 -0.4017  0.2139 -0.0125
 4566TIP3    H137893   4.175   3.624  11.081  1.2563 -0.0078 -1.2853
 4566TIP3    H237894   4.096   3.516  11.010  0.7271 -0.0493 -0.6345
 4567TIP3   OH237895   3.222   6.168  11.194 -0.0467 -0.2268 -0.3590
 4567TIP3    H137896   3.306   6.142  11.158  0.4484 -1.1800  1.3940
 4567TIP3    H237897   3.224   6.139  11.285 -2.6027 -1.0696 -0.4790
 4568TIP3   OH237898   6.487   6.348   9.825  0.7822  0.8382  0.1142
 4568TIP3    H137899   6.526   6.426   9.786  0.3394  0.7941 -0.4262
 4568TIP3    H237900   6.554   6.280   9.816  0.7418  0.8658 -0.4481
 4569TIP3   OH237901   2.490   3.039  10.010 -0.1745  0.5602 -0.0952
 4569TIP3    H137902   2.420   3.069   9.952 -0.8426  0.9693  0.8904
 4569TIP3    H237903   2.536   3.119  10.035  0.3251  0.3473 -0.3238
 4570TIP3   OH237904   5.942   2.167  10.054 -0.2265  0.2280  0.1118
 4570TIP3    H137905   5.920   2.076  10.073 -1.2537  0.5210  0.3747
 4570TIP3    H237906   5.963   2.206  10.139  3.8819 -0.6292 -0.3085
 4571TIP3   OH237907   5.214   4.921  11.915  0.0498 -0.4748 -0.1755
 4571TIP3    H137908   5.158   4.996  11.938  0.3985  0.3386 -1.8015
 4571TIP3    H237909   5.277   4.915  11.987  0.6160  1.4629 -0.4291
 4572TIP3   OH237910   6.642   4.261  10.402  0.1090 -0.1228 -0.4777
 4572TIP3    H137911   6.722   4.242  10.451  0.2625  0.2559 -0.5804
 4572TIP3    H237912   6.611   4.175  10.373  0.7340 -0.2344 -0.8351
 4573TIP3   OH237913   5.633   3.676  11.014 -0.5999  0.6170  0.4002
 4573TIP3    H137914   5.634   3.580  11.013 -0.6049  0.5574  2.3660
 4573TIP3    H237915   5.561   3.700  10.956 -1.5803 -0.6277  1.0511
 4574TIP3   OH237916   0.318   0.563   9.997 -0.0374 -0.1664  0.2369
 4574TIP3    H137917   0.365   0.573   9.914  0.9104 -2.6178  0.3974
 4574TIP3    H237918   0.293   0.652  10.021  0.1946  0.6946 -2.3494
 4575TIP3   OH237919   1.159   2.225  10.079  0.7917 -0.7058 -0.6283
 4575TIP3    H137920   1.235   2.228  10.021  0.8695  0.5488 -0.4822
 4575TIP3    H237921   1.183   2.279  10.154 -0.0835 -0.6333 -0.3889
 4576TIP3   OH237922   4.176   4.597  12.183 -0.4373 -0.2566 -0.1654
 4576TIP3    H137923   4.179   4.683  12.141  0.7624 -0.0721  0.2643
 4576TIP3    H237924   4.087   4.566  12.165 -0.3118  0.2543 -1.9305
 4577TIP3   OH237925   6.692   0.647  10.818 -0.0331 -0.2639 -0.3310
 4577TIP3    H137926   6.723   0.719  10.764 -0.1733  0.0688  0.0290
 4577TIP3    H237927   6.633   0.598  10.761 -2.7065  1.8595  0.3714
 4578TIP3   OH237928   2.425   2.663   9.825 -0.2004  0.8048  0.1583
 4578TIP3    H137929   2.341   2.623   9.845 -0.3932  0.6097 -0.9521
 4578TIP3    H237930   2.476   2.653   9.905 -1.3282  1.2124  0.9601
 4579TIP3   OH237931   5.030   6.370  10.305 -0.5131  0.2501 -0.4462
 4579TIP3    H137932   4.985   6.324  10.235  0.8264  1.3303 -2.0867
 4579TIP3    H237933   4.977   6.449  10.320 -0.8313 -0.0101 -0.1933
 4580TIP3   OH237934   6.627   6.557  10.149  0.5145 -0.2932 -0.4605
 4580TIP3    H137935   6.538   6.579  10.175  0.4319 -0.4495 -0.6037
 4580TIP3    H237936   6.682   6.587  10.221  0.3091 -0.5344 -0.2028
 4581TIP3   OH237937   4.383   1.214   9.721  0.8771 -0.7104 -0.2778
 4581TIP3    H137938   4.295   1.186   9.694  0.8888  1.0000 -2.4080
 4581TIP3    H237939   4.369   1.289   9.778  0.8612  0.7449 -2.0705
 4582TIP3   OH237940   5.340   4.206  11.544 -0.0204  0.1888  0.4874
 4582TIP3    H137941   5.353   4.263  11.619  0.9888 -0.1224  0.5663
 4582TIP3    H237942   5.310   4.123  11.581  0.6601 -0.0256  0.5814
 4583TIP3   OH237943   0.745   3.727  10.515 -0.2530  0.3396 -0.0545
 4583TIP3    H137944   0.759   3.722  10.421  1.5856 -0.5021  0.2084
 4583TIP3    H237945   0.684   3.655  10.534  2.0428 -1.8086 -0.2399
 4584TIP3   OH237946   0.140   2.362   9.994  0.1864  0.4843 -0.4317
 4584TIP3    H137947   0.112   2.327  10.078  0.1063  2.8096  0.5771
 4584TIP3    H237948   0.078   2.431   9.974  1.3988  1.3568 -1.3755
 4585TIP3   OH237949   1.022   3.419  11.036  0.1364  0.0402 -0.3493
 4585TIP3    H137950   1.072   3.363  10.977 -0.7296 -1.1353  0.0071
 4585TIP3    H237951   0.930   3.402  11.013 -0.1669  0.5003  0.5030
 4586TIP3   OH237952   2.126   1.846   9.873 -0.7250  0.4111  0.4696
 4586TIP3    H137953   2.042   1.884   9.846 -0.7273 -0.5272 -0.9380
 4586TIP3    H237954   2.162   1.808   9.794  0.1211 -0.9398  1.4545
 4587TIP3   OH237955   4.985   6.202  10.546  0.6530 -0.6536  0.1627
 4587TIP3    H137956   5.028   6.161  10.471 -1.4536  0.3780 -1.7043
 4587TIP3    H237957   4.988   6.296  10.528 -1.1498 -0.4636  0.6153
 4588TIP3   OH237958   6.111   4.764  10.539 -0.2103  0.0393  0.8424
 4588TIP3    H137959   6.136   4.693  10.599 -0.1616 -0.8082 -0.1499
 4588TIP3    H237960   6.191   4.780  10.488 -0.3592  0.4875  0.7547
 4589TIP3   OH237961   3.070   0.497  10.164  0.5930  0.0157  0.0995
 4589TIP3    H137962   2.980   0.513  10.135 -0.0028 -0.9153  1.3546
 4589TIP3    H237963   3.077   0.544  10.248  1.3581  0.2796 -0.0996
 4590TIP3   OH237964   5.748   1.315  10.392  0.1695  0.1814  0.3760
 4590TIP3    H137965   5.768   1.239  10.446  0.0366 -0.7467 -0.8511
 4590TIP3    H237966   5.665   1.349  10.428 -1.6999 -2.3610 -1.1854
 4591TIP3   OH237967   4.575   4.648   9.714 -0.3565 -0.0091  0.0282
 4591TIP3    H137968   4.571   4.560   9.751 -0.5436 -0.2721 -0.5978
 4591TIP3    H237969   4.588   4.706   9.789 -2.2011 -0.3834  0.6718
 4592TIP3   OH237970   4.403   1.180  10.806  0.3628 -0.1868 -0.6242
 4592TIP3    H137971   4.440   1.124  10.738 -1.3754 -0.1325 -1.6460
 4592TIP3    H237972   4.423   1.269  10.777  2.4719 -0.1727  0.6304
 4593TIP3   OH237973   0.270   2.551   9.830 -0.1656  0.4380  0.0653
 4593TIP3    H137974   0.327   2.475   9.842 -1.6007 -0.7906 -0.6020
 4593TIP3    H237975   0.184   2.521   9.858 -0.8182  1.7515 -0.4495
 4594TIP3   OH237976   3.618   4.198  11.639  0.3434  0.2543  0.3859
 4594TIP3    H137977   3.690   4.135  11.645  0.9284  0.6681 -1.5719
 4594TIP3    H237978   3.594   4.198  11.546  0.1182  2.6266  0.3847
 4595TIP3   OH237979   4.067   5.873  11.404 -0.1305 -0.2984 -0.2605
 4595TIP3    H137980   3.979   5.903  11.427  0.0110 -0.3100  0.3062
 4595TIP3    H237981   4.052   5.789  11.360 -0.5079  0.4801 -1.6618
 4596TIP3   OH237982   5.833   6.680  10.004 -0.1237 -0.1467 -0.0674
 4596TIP3    H137983   5.832   6.586   9.984  0.0995  0.4291 -3.1371
 4596TIP3    H237984   5.780   6.720   9.936  0.7326  2.1095  0.4998
 4597TIP3   OH237985   0.439   5.312  11.390 -0.1164  0.6814 -0.0106
 4597TIP3    H137986   0.373   5.381  11.379  0.0044  1.1625  2.0304
 4597TIP3    H237987   0.499   5.346  11.455  0.7119 -0.8238  0.0417
 4598TIP3   OH237988   0.481   2.313  11.571  0.1851  0.0707  0.2270
 4598TIP3    H137989   0.470   2.404  11.545  0.8830  0.5146  1.3660
 4598TIP3    H237990   0.431   2.262  11.507 -0.0902  1.2397 -0.5056
 4599TIP3   OH237991   6.226   1.219  10.098  0.6391 -0.2190 -0.5576
 4599TIP3    H137992   6.192   1.141  10.053  0.7711 -0.0606 -0.9393
 4599TIP3    H237993   6.186   1.216  10.185  0.4489 -0.5805 -0.6536
 4600TIP3   OH237994   0.785   5.833  12.214 -0.2868  0.3206  0.1267
 4600TIP3    H137995   0.844   5.875  12.276 -0.1170  0.6526 -0.2538
 4600TIP3    H237996   0.718   5.791  12.269  0.3917 -0.2151  0.5664
 4601TIP3   OH237997   6.098   1.100  11.215  0.1242  0.0344 -0.2222
 4601TIP3    H137998   6.179   1.067  11.252  1.0814  1.4363 -0.9746
 4601TIP3    H237999   6.046   1.022  11.196  2.1074 -1.0333 -1.5478
 4602TIP3   OH238000   4.347   6.439  11.515 -0.2020  0.7123  0.1397
 4602TIP3    H138001   4.381   6.352  11.497 -1.1610 -0.1166  2.0145
 4602TIP3    H238002   4.284   6.455  11.445 -0.0549 -0.1322 -0.2006
 4603TIP3   OH238003   0.171   6.141   9.053  0.4613 -0.0210  0.0249
 4603TIP3    H138004   0.182   6.105   8.965  0.4488 -0.1939  0.0933
 4603TIP3    H238005   0.076   6.154   9.061  0.5582  0.9479 -0.3588
 4604TIP3   OH238006   0.832   0.705  10.103  0.2997 -0.4954 -0.3248
 4604TIP3    H138007   0.882   0.732  10.025  0.4680 -1.1480 -0.4468
 4604TIP3    H238008   0.899   0.686  10.169  0.2174 -1.2705 -0.4561
 4605TIP3   OH238009   6.582   3.773  12.114 -0.5521 -0.1632  0.2423
 4605TIP3    H138010   6.662   3.819  12.140  0.8726 -2.0012 -0.6204
 4605TIP3    H238011   6.529   3.840  12.071  0.7550  0.9999  0.3650
 4606TIP3   OH238012   3.444   3.693   9.101 -0.2386 -0.3507  0.3161
 4606TIP3    H138013   3.531   3.674   9.067 -0.7710  0.3055 -1.5199
 4606TIP3    H238014   3.392   3.616   9.077 -0.8240  0.4837 -1.1986
 4607TIP3   OH238015   4.252   2.507  10.646  0.6695  0.2647 -0.3924
 4607TIP3    H138016   4.189   2.449  10.690 -0.1236  1.4159  0.0688
 4607TIP3    H238017   4.198   2.563  10.590  1.2002  1.5770  0.3470
 4608TIP3   OH238018   5.871   3.027   9.754 -0.2575 -0.3883 -0.2790
 4608TIP3    H138019   5.947   3.038   9.811 -1.1583  0.0526  0.8741
 4608TIP3    H238020   5.838   3.116   9.739 -2.3881 -0.6832  1.8893
 4609TIP3   OH238021   3.058   2.040  10.426 -0.2193  0.1783 -0.5310
 4609TIP3    H138022   2.983   2.067  10.478 -0.6092  1.1412 -1.5523
 4609TIP3    H238023   3.127   2.101  10.451  0.7360 -1.5508  1.4502
 4610TIP3   OH238024   4.444   3.443  10.613  0.0301  0.1671  0.4251
 4610TIP3    H138025   4.363   3.489  10.634  1.4807  2.8953  0.5242
 4610TIP3    H238026   4.436   3.422  10.519 -0.4026  1.2828  0.1997
 4611TIP3   OH238027   5.351   4.526  12.120 -0.1492 -0.1672 -0.1448
 4611TIP3    H138028   5.445   4.523  12.103  0.0633  1.6125  0.4200
 4611TIP3    H238029   5.342   4.589  12.192 -1.8979  1.1647 -1.4253
 4612TIP3   OH238030   4.612   3.235   9.762 -0.0166 -0.1562 -0.1629
 4612TIP3    H138031   4.537   3.186   9.727  0.1681  0.3748 -1.3571
 4612TIP3    H238032   4.623   3.201   9.851 -2.4005  0.5848  0.4818
 4613TIP3   OH238033   2.961   0.788  10.731  0.0741 -0.3602  0.0868
 4613TIP3    H138034   3.003   0.740  10.660  3.9122  3.4401 -0.5914
 4613TIP3    H238035   2.915   0.860  10.688  0.8215  0.8684  1.2447
 4614TIP3   OH238036   1.219   1.558  11.819  0.3755 -0.0589 -0.0709
 4614TIP3    H138037   1.252   1.625  11.879 -1.2768 -0.3789  1.2660
 4614TIP3    H238038   1.130   1.586  11.797 -0.2604 -1.6291  0.3026
 4615TIP3   OH238039   6.532   6.696   8.700  0.1948  0.3898 -0.0467
 4615TIP3    H138040   6.543   6.791   8.690 -0.3205  0.5975  1.2310
 4615TIP3    H238041   6.439   6.681   8.682  0.2816  0.1067 -0.2823
 4616TIP3   OH238042   5.128   1.326  11.960  0.7846  0.4786 -0.1681
 4616TIP3    H138043   5.211   1.317  12.007  0.7814 -0.1246 -0.2714
 4616TIP3    H238044   5.117   1.421  11.949  0.6362  0.6582  1.3051
 4617TIP3   OH238045   5.776   2.590  10.424 -0.2605  0.0824  0.2849
 4617TIP3    H138046   5.796   2.513  10.478  0.3513  0.5820  0.7859
 4617TIP3    H238047   5.688   2.573  10.390  0.5109 -1.6551 -1.0235
 4618TIP3   OH238048   5.614   5.749  10.794  0.0558  0.0504  0.6928
 4618TIP3    H138049   5.573   5.775  10.876 -0.5750 -0.8960  0.6833
 4618TIP3    H238050   5.561   5.676  10.761 -1.8634  2.5371 -2.3320
 4619TIP3   OH238051   0.283   5.669   9.656  0.1846  1.3553 -0.3748
 4619TIP3    H138052   0.334   5.624   9.723 -0.4265  2.0496  0.5769
 4619TIP3    H238053   0.348   5.705   9.596  0.7458  0.8475 -0.0788
 4620TIP3   OH238054   0.364   1.419  12.186  0.0963 -0.0588  0.5319
 4620TIP3    H138055   0.329   1.509  12.183 -0.2104 -0.1976 -0.2519
 4620TIP3    H238056   0.289   1.366  12.212 -0.3298 -0.3581 -1.1552
 4621TIP3   OH238057   4.026   4.500  10.528  0.0800 -0.3695 -0.2452
 4621TIP3    H138058   3.992   4.438  10.464  0.0504 -1.1263  0.4780
 4621TIP3    H238059   4.121   4.487  10.528  0.5175  1.9433 -2.4726
 4622TIP3   OH238060   1.274   0.121   9.714 -0.8038  0.4360  0.3778
 4622TIP3    H138061   1.235   0.138   9.628 -2.5158  1.3275  1.2766
 4622TIP3    H238062   1.248   0.031   9.735  0.7964 -0.3028 -0.5797
 4623TIP3   OH238063   0.139   6.269  12.254 -0.0869 -0.4336 -0.2907
 4623TIP3    H138064   0.223   6.233  12.225  0.0880 -0.1583 -0.1312
 4623TIP3    H238065   0.137   6.253  12.348 -0.4293 -0.8717 -0.3727
 4624TIP3   OH238066   6.174   5.502  12.124  0.1603 -0.0898  0.3105
 4624TIP3    H138067   6.178   5.526  12.217  0.6994  0.1087  0.2354
 4624TIP3    H238068   6.129   5.417  12.124 -0.3960  0.1936  0.6971
 4625TIP3   OH238069   1.135   3.774  11.978  0.2761 -0.0762  0.1448
 4625TIP3    H138070   1.105   3.847  11.923 -0.5771 -0.0001  0.6815
 4625TIP3    H238071   1.157   3.815  12.062 -0.0669 -0.4067  0.4020
 4626TIP3   OH238072   5.292   6.034  10.662 -0.2292 -0.4426 -0.5366
 4626TIP3    H138073   5.268   6.077  10.745  0.7456  0.3062 -0.6250
 4626TIP3    H238074   5.217   6.049  10.605 -0.4028  0.1153 -0.1734
 4627TIP3   OH238075   6.618   0.868   9.751  0.4105  0.2415  0.3883
 4627TIP3    H138076   6.545   0.812   9.722  0.3102  0.2320  0.6557
 4627TIP3    H238077   6.609   0.871   9.846  0.3611  0.7879  0.3695
 4628TIP3   OH238078   1.072   5.200  10.838  0.5541 -0.5416  0.1591
 4628TIP3    H138079   1.003   5.186  10.903  1.0893 -2.5321  0.3522
 4628TIP3    H238080   1.143   5.242  10.887 -0.5685  1.8822 -0.1221
 4629TIP3   OH238081   2.983   5.319  11.260  0.8366  0.3268 -0.0991
 4629TIP3    H138082   2.919   5.362  11.204  2.8679  0.0729 -2.8385
 4629TIP3    H238083   2.978   5.366  11.343 -0.9804  2.0660 -1.1075
 4630TIP3   OH238084   2.377   3.721  11.951 -0.1124 -0.5700 -0.1740
 4630TIP3    H138085   2.469   3.747  11.952 -0.2079 -0.2383  0.1559
 4630TIP3    H238086   2.331   3.797  11.915 -0.2559 -0.7389 -0.3473
 4631TIP3   OH238087   1.300   4.775  12.026 -0.6634  0.6869  0.4623
 4631TIP3    H138088   1.325   4.717  12.098  1.0635 -1.8131 -1.9447
 4631TIP3    H238089   1.342   4.858  12.047  1.9967 -0.7057  1.2076
 4632TIP3   OH238090   5.415   3.170   9.094 -0.1609 -0.3824  0.1546
 4632TIP3    H138091   5.499   3.156   9.137  0.6049  1.2241 -0.7121
 4632TIP3    H238092   5.425   3.254   9.048 -0.9266 -1.9071 -3.0557
 4633TIP3   OH238093   6.048   6.014  11.012 -0.0532 -0.0234  0.7748
 4633TIP3    H138094   6.141   6.032  11.028  0.1164  0.3739 -0.5596
 4633TIP3    H238095   6.043   5.919  11.002  0.2555 -0.0225  0.6071
 4634TIP3   OH238096   0.542   6.451  12.019 -0.0853  0.0443 -0.1801
 4634TIP3    H138097   0.602   6.517  12.054  1.4369 -2.1053  1.5846
 4634TIP3    H238098   0.489   6.498  11.954  1.2570  2.8150  0.5829
 4635TIP3   OH238099   5.633   3.387   9.461 -0.1205  0.1053 -0.7820
 4635TIP3    H138100   5.596   3.466   9.501  1.2170  0.2998  0.1160
 4635TIP3    H238101   5.673   3.340   9.534  0.4406 -0.6323 -1.5546
 4636TIP3   OH238102   4.668   5.638  12.092 -0.2423 -0.0739  0.0001
 4636TIP3    H138103   4.574   5.655  12.089 -0.2269  0.0425  0.1606
 4636TIP3    H238104   4.677   5.549  12.057 -0.5367 -0.5571  1.1111
 4637TIP3   OH238105   3.373   3.419   9.991  0.4169 -0.1774 -0.0312
 4637TIP3    H138106   3.345   3.420   9.900  0.4219 -0.1654 -0.0324
 4637TIP3    H238107   3.456   3.371   9.990 -0.3764 -1.6086  0.1917
 4638TIP3   OH238108   0.648   0.895   9.899  0.0997  0.2108  0.0954
 4638TIP3    H138109   0.630   0.989   9.892  0.8185  0.3435 -0.1087
 4638TIP3    H238110   0.658   0.866   9.808 -0.5531 -0.1527  0.1403
 4639TIP3   OH238111   0.494   5.146  12.400  0.3895  0.5735  0.2173
 4639TIP3    H138112   0.444   5.125  12.321  1.2762 -0.9096  0.0026
 4639TIP3    H238113   0.447   5.104  12.471  0.1431  1.0548  0.3447
 4640TIP3   OH238114   1.154   1.187   9.328 -0.0090  0.0455  0.8261
 4640TIP3    H138115   1.215   1.251   9.292  0.7459 -0.2557  1.5417
 4640TIP3    H238116   1.103   1.237   9.392 -1.4929  0.6309 -0.7409
 4641TIP3   OH238117   4.682   1.476   9.055  0.5944 -0.2054 -0.0848
 4641TIP3    H138118   4.689   1.536   9.130 -1.9655 -2.3391  2.0591
 4641TIP3    H238119   4.597   1.494   9.017 -0.5862 -2.7959  1.0736
 4642TIP3   OH238120   1.130   3.864  10.009 -0.5133 -0.0015 -0.7199
 4642TIP3    H138121   1.148   3.934   9.945  0.7406 -1.1730 -1.7093
 4642TIP3    H238122   1.068   3.807   9.964 -1.5903  0.4812  0.1171
 4643TIP3   OH238123   1.946   6.481  10.953 -0.2863 -0.1784  0.0602
 4643TIP3    H138124   1.968   6.457  10.863 -0.6901 -0.2031 -0.0380
 4643TIP3    H238125   1.998   6.423  11.008 -0.8612 -0.9350 -0.1677
 4644TIP3   OH238126   6.452   1.716   8.677  0.1747 -0.1507 -0.3164
 4644TIP3    H138127   6.477   1.650   8.613  0.9131 -0.4305  0.2512
 4644TIP3    H238128   6.462   1.799   8.630  2.2623 -0.2296 -0.1328
 4645TIP3   OH238129   5.170   3.139  10.754 -0.2142  0.0076 -0.3652
 4645TIP3    H138130   5.233   3.198  10.794  0.2159 -0.7590  0.1249
 4645TIP3    H238131   5.116   3.109  10.828 -0.1239 -0.5647 -0.5284
 4646TIP3   OH238132   4.820   1.380  10.384 -0.9408  0.1704  0.2510
 4646TIP3    H138133   4.781   1.302  10.345  0.6836 -0.6687  0.2294
 4646TIP3    H238134   4.755   1.449  10.369 -2.2560 -1.0753 -0.0518
 4647TIP3   OH238135   3.383   3.798  10.217  0.0183 -0.2746 -0.5133
 4647TIP3    H138136   3.309   3.756  10.173 -1.6601  2.3022 -0.4156
 4647TIP3    H238137   3.392   3.883  10.173  1.4190  0.4103  0.9885
 4648TIP3   OH238138   0.495   1.201  10.424  0.2511 -0.0693  0.1276
 4648TIP3    H138139   0.543   1.191  10.342 -0.0688 -1.6302  0.0860
 4648TIP3    H238140   0.420   1.256  10.402 -1.1928 -2.4344 -1.2931
 4649TIP3   OH238141   2.247   0.251  10.919  0.3602  0.5171  0.4841
 4649TIP3    H138142   2.163   0.282  10.955  0.2137  0.1943  0.4288
 4649TIP3    H238143   2.313   0.307  10.958 -0.1264  3.2157 -2.1607
 4650TIP3   OH238144   5.256   3.412   8.993  0.3663  0.2344  0.0234
 4650TIP3    H138145   5.230   3.455   8.911  0.1330  1.9163  0.9322
 4650TIP3    H238146   5.351   3.414   8.992  0.5929 -3.2436 -1.9217
 4651TIP3   OH238147   2.464   2.389   9.268 -0.0308  0.0130  0.0804
 4651TIP3    H138148   2.424   2.396   9.354  0.7168  1.1551  0.3712
 4651TIP3    H238149   2.400   2.343   9.215 -1.1465  0.6104  0.8646
 4652TIP3   OH238150   3.853   5.406  10.649 -0.1209 -0.1895 -0.1978
 4652TIP3    H138151   3.874   5.489  10.606  0.0173 -1.2418 -2.3023
 4652TIP3    H238152   3.767   5.422  10.689  0.0146  1.0411 -0.3399
 4653TIP3   OH238153   1.393   2.991  12.088 -0.0780  0.2950 -0.7237
 4653TIP3    H138154   1.371   3.000  11.995 -3.6010 -0.0089 -0.0631
 4653TIP3    H238155   1.311   2.965  12.130  1.3818  0.3714  2.5142
 4654TIP3   OH238156   3.077   3.007  11.360 -0.0638 -0.5354  0.0739
 4654TIP3    H138157   3.047   3.001  11.270 -0.2190 -1.2166  0.1588
 4654TIP3    H238158   3.083   3.100  11.378  1.8030 -0.3426 -1.2521
 4655TIP3   OH238159   1.890   0.164  11.717  0.1088 -0.4926  0.3907
 4655TIP3    H138160   1.930   0.160  11.804 -1.0789  2.3300  1.1714
 4655TIP3    H238161   1.802   0.199  11.733 -0.1841 -0.0507 -1.9471
 4656TIP3   OH238162   1.817   5.566   9.568  0.3143 -0.5917 -0.1707
 4656TIP3    H138163   1.724   5.557   9.544  0.3313  0.8532 -0.8554
 4656TIP3    H238164   1.862   5.507   9.507  0.1282  1.2542 -2.2233
 4657TIP3   OH238165   4.968   5.981  10.159 -0.5187 -0.0047 -0.2160
 4657TIP3    H138166   4.965   6.071  10.127  0.7154 -0.6534 -2.3913
 4657TIP3    H238167   4.886   5.970  10.208  0.9436  3.3890  3.5513
 4658TIP3   OH238168   2.606   6.432  11.372 -0.2581 -0.1812 -0.3863
 4658TIP3    H138169   2.520   6.453  11.410 -0.4469  0.2988 -1.0687
 4658TIP3    H238170   2.661   6.414  11.448 -0.5236  1.1615  0.1547
 4659TIP3   OH238171   1.187   0.980   9.915 -0.1343 -0.0201  0.2893
 4659TIP3    H138172   1.092   0.980   9.927 -0.1312  1.4721  0.5597
 4659TIP3    H238173   1.218   1.049   9.973  1.1628 -0.7010  0.4307
 4660TIP3   OH238174   0.546   4.249  10.017  0.2377  0.9289 -0.0500
 4660TIP3    H138175   0.627   4.264  10.064  1.3570 -0.6607 -1.3687
 4660TIP3    H238176   0.572   4.239   9.926 -1.4102  0.2051 -0.4910
 4661TIP3   OH238177   1.458   2.199   9.255 -0.2979  0.4478  0.5102
 4661TIP3    H138178   1.489   2.230   9.340 -1.3746  0.1231  1.0392
 4661TIP3    H238179   1.500   2.257   9.191  1.3367  0.0377  1.1881
 4662TIP3   OH238180   3.313   3.304   9.246  0.5236 -0.0309 -0.1220
 4662TIP3    H138181   3.310   3.229   9.187 -2.0866 -0.4124  0.3963
 4662TIP3    H238182   3.315   3.380   9.188 -0.1856 -0.4437 -0.7049
 4663TIP3   OH238183   2.865   5.452   9.637  0.0466  0.1894 -0.5553
 4663TIP3    H138184   2.826   5.506   9.568  0.2797  0.6011 -0.3644
 4663TIP3    H238185   2.943   5.414   9.596 -0.5171 -0.5969 -0.9228
 4664TIP3   OH238186   1.685   1.478  11.193  0.3126 -0.1349  0.3937
 4664TIP3    H138187   1.629   1.418  11.144  0.7220 -0.3204  0.1555
 4664TIP3    H238188   1.766   1.430  11.208  0.0624 -0.2088  1.5648
 4665TIP3   OH238189   5.928   0.081  11.313  0.2676 -0.0934 -0.2851
 4665TIP3    H138190   5.935   0.016  11.243 -3.7606 -1.0288 -0.0885
 4665TIP3    H238191   5.875   0.038  11.380  0.6091  2.1635  1.5377
 4666TIP3   OH238192   5.673   1.184   9.013 -0.4941 -0.0424 -0.1197
 4666TIP3    H138193   5.639   1.265   8.973 -1.6598 -0.5843 -0.2612
 4666TIP3    H238194   5.711   1.136   8.940 -0.5066  0.0226 -0.1705
 4667TIP3   OH238195   2.729   1.028  10.056  0.4999  0.1859  0.0355
 4667TIP3    H138196   2.698   0.938  10.058 -1.3809  0.6613 -2.2821
 4667TIP3    H238197   2.804   1.026   9.996  2.1679 -0.1935  2.0308
 4668TIP3   OH238198   6.311   5.110   9.753 -0.6957 -0.2919  0.3415
 4668TIP3    H138199   6.285   5.136   9.841 -3.2981  2.3548 -1.0399
 4668TIP3    H238200   6.271   5.024   9.740  2.1139 -2.1277  2.5696
 4669TIP3   OH238201   3.605   4.290  11.988 -0.3286 -0.1671 -0.4272
 4669TIP3    H138202   3.517   4.291  12.027 -0.6762  0.1488 -1.2067
 4669TIP3    H238203   3.638   4.201  12.005  0.2962  0.4809  2.2345
 4670TIP3   OH238204   1.138   0.163  11.407  0.1151  0.1290  0.0337
 4670TIP3    H138205   1.066   0.145  11.467  0.9867  1.9775  1.7734
 4670TIP3    H238206   1.192   0.084  11.409 -0.4682 -0.2632  0.8223
 4671TIP3   OH238207   1.750   5.695  11.645  0.1899  0.1908  0.5905
 4671TIP3    H138208   1.769   5.734  11.559 -1.3654 -1.6292 -0.6594
 4671TIP3    H238209   1.810   5.739  11.705  0.7139  2.1596 -1.2636
 4672TIP3   OH238210   0.430   5.785   8.476  0.2124  0.1462 -0.0047
 4672TIP3    H138211   0.421   5.872   8.436  1.8995  0.9744  1.2858
 4672TIP3    H238212   0.386   5.793   8.560  1.0643  0.0230  0.4673
 4673TIP3   OH238213   6.174   0.248   8.814  0.1913 -0.0251  0.1590
 4673TIP3    H138214   6.168   0.154   8.827  1.0523 -0.1273 -0.1463
 4673TIP3    H238215   6.262   0.263   8.780 -0.2494  0.7778 -0.6994
 4674TIP3   OH238216   1.676   0.563  11.615  0.0012 -0.1159  0.0468
 4674TIP3    H138217   1.599   0.620  11.610  0.4757  0.4945 -0.4710
 4674TIP3    H238218   1.721   0.577  11.532 -0.0536 -1.5183 -0.2495
 4675TIP3   OH238219   0.030   1.333   9.925 -0.0640 -0.3988 -0.1609
 4675TIP3    H138220  -0.025   1.405   9.895  1.9721  0.6044 -1.6970
 4675TIP3    H238221  -0.027   1.256   9.921 -2.1342  0.9701  1.0128
 4676TIP3   OH238222   3.752   3.033   9.722 -0.0832  0.0496 -0.3792
 4676TIP3    H138223   3.801   3.001   9.647  1.6816 -2.0568  1.5136
 4676TIP3    H238224   3.661   3.009   9.704  0.2491 -0.1064 -1.9591
 4677TIP3   OH238225   6.202   1.962  10.134 -0.1484  0.6805  0.0030
 4677TIP3    H138226   6.227   2.053  10.122  1.8971  0.3218  1.1195
 4677TIP3    H238227   6.216   1.922  10.048 -1.6249  1.4760 -0.6594
 4678TIP3   OH238228   3.267   2.475  11.788  0.1882  0.2250  0.2558
 4678TIP3    H138229   3.265   2.469  11.883 -1.8430 -0.7717  0.2137
 4678TIP3    H238230   3.212   2.551  11.768  0.9799  0.7108 -0.1309
 4679TIP3   OH238231   5.080   5.861   9.358 -0.3614 -1.0398 -0.3110
 4679TIP3    H138232   5.034   5.878   9.276 -0.9280 -0.6122  0.0908
 4679TIP3    H238233   5.069   5.941   9.409  0.3291 -1.1540  0.0247
 4680TIP3   OH238234   2.220   6.016  10.093 -0.0998  0.6062  0.2358
 4680TIP3    H138235   2.302   5.977  10.122  0.1616  0.8324 -0.1822
 4680TIP3    H238236   2.155   5.945  10.101  0.5509 -0.2523 -1.4179
 4681TIP3   OH238237   4.218   5.974   9.605 -0.0397 -0.2391 -0.2382
 4681TIP3    H138238   4.133   5.931   9.611 -0.6714  0.7536 -1.4426
 4681TIP3    H238239   4.250   5.954   9.517  0.5428  0.1682 -0.1303
 4682TIP3   OH238240   5.209   4.820  11.647  0.0931  0.5206 -0.8770
 4682TIP3    H138241   5.134   4.781  11.602 -0.0134  0.5499 -0.7238
 4682TIP3    H238242   5.175   4.847  11.732  0.4414 -0.0761 -0.5443
 4683TIP3   OH238243   2.631   3.588  11.337  0.1747  0.6962  0.4217
 4683TIP3    H138244   2.673   3.502  11.330 -0.4483  0.3150  1.2058
 4683TIP3    H238245   2.669   3.639  11.265 -0.2518 -0.5746 -0.7531
 4684TIP3   OH238246   4.246   0.294  10.370  0.3086 -0.5825 -0.4039
 4684TIP3    H138247   4.324   0.265  10.322  1.8416 -0.1104  1.6419
 4684TIP3    H238248   4.202   0.214  10.396  0.3323 -0.8635 -1.1964
 4685TIP3   OH238249   4.477   5.616   9.008 -0.2502 -0.6185  0.4058
 4685TIP3    H138250   4.402   5.588   9.061 -1.1504  0.0003 -0.5035
 4685TIP3    H238251   4.438   5.648   8.927  1.1638 -3.0291 -1.3559
 4686TIP3   OH238252   1.277   2.459  10.761 -0.2246  0.3673 -0.0143
 4686TIP3    H138253   1.248   2.373  10.732  0.2698  0.2467 -0.1622
 4686TIP3    H238254   1.199   2.514  10.755 -0.7464 -0.2427  0.8118
 4687TIP3   OH238255   6.657   6.435  10.770 -0.2812 -0.1317 -0.1341
 4687TIP3    H138256   6.696   6.522  10.778 -0.2618 -0.2709  1.6525
 4687TIP3    H238257   6.578   6.439  10.825  0.7698 -1.7836  1.6457
 4688TIP3   OH238258   1.961   1.397  10.249 -0.1431  0.4303 -0.5935
 4688TIP3    H138259   1.920   1.372  10.167  1.1799 -0.8766 -0.9005
 4688TIP3    H238260   2.042   1.442  10.224 -1.1451  2.7350  0.0007
 4689TIP3   OH238261   6.630   5.521  10.657  0.7338  0.2159 -0.2271
 4689TIP3    H138262   6.630   5.430  10.628  0.3404  0.7404 -2.0015
 4689TIP3    H238263   6.554   5.528  10.715  0.9236 -0.6324  0.1385
 4690TIP3   OH238264   4.938   6.452  11.246  0.0933  0.2846 -0.3100
 4690TIP3    H138265   4.949   6.360  11.226  1.7866  0.3467  0.1945
 4690TIP3    H238266   5.013   6.495  11.205 -1.0861  1.5658 -1.2189
 4691TIP3   OH238267   2.980   5.832  10.498  0.3199  0.6228  0.1925
 4691TIP3    H138268   2.890   5.814  10.524  0.0320  1.5020 -0.1488
 4691TIP3    H238269   3.013   5.893  10.565  1.6367 -1.8624  1.9616
 4692TIP3   OH238270   0.234   3.542  11.659  0.0364 -0.4172 -0.1865
 4692TIP3    H138271   0.181   3.470  11.693  2.1256 -1.6245  0.6940
 4692TIP3    H238272   0.226   3.535  11.564 -0.2419 -1.4803 -0.0992
 4693TIP3   OH238273   2.720   4.182   9.382 -0.3114 -0.0646  0.2337
 4693TIP3    H138274   2.751   4.101   9.423 -0.5972 -0.5220 -0.4304
 4693TIP3    H238275   2.629   4.190   9.412 -1.5836 -2.0366 -2.5661
 4694TIP3   OH238276   5.394   4.303   8.948  0.7179  0.6750 -0.4995
 4694TIP3    H138277   5.313   4.346   8.921  0.2513 -1.3363 -2.5529
 4694TIP3    H238278   5.435   4.276   8.866  0.7294 -3.1782  0.6003
 4695TIP3   OH238279   4.427   0.049  10.882  0.6391  0.0192 -0.4227
 4695TIP3    H138280   4.426   0.127  10.938 -0.0356 -0.0419 -0.3449
 4695TIP3    H238281   4.462   0.081  10.799  0.6791  0.3348 -0.2896
 4696TIP3   OH238282   2.427   3.951   8.580 -0.4445  0.3992 -0.0303
 4696TIP3    H138283   2.412   3.883   8.645 -0.3369  0.9415  0.5706
 4696TIP3    H238284   2.348   3.951   8.526 -1.1976  0.9692  1.0410
 4697TIP3   OH238285   5.629   1.661  11.656  0.1740 -0.0246 -0.2910
 4697TIP3    H138286   5.546   1.618  11.634 -0.3205  1.3583 -1.2638
 4697TIP3    H238287   5.693   1.590  11.660 -1.0272 -1.0985  0.3395
 4698TIP3   OH238288   6.639   3.889   8.945 -0.3057 -0.0971 -0.2072
 4698TIP3    H138289   6.708   3.930   8.892 -0.2597  1.1294  0.7453
 4698TIP3    H238290   6.557   3.922   8.908 -0.2650  1.0816  0.6690
 4699TIP3   OH238291   0.296   0.509   8.992 -0.0161  0.0641 -0.3822
 4699TIP3    H138292   0.216   0.557   8.971 -0.2785 -0.1098  0.1855
 4699TIP3    H238293   0.267   0.418   9.003  0.5174 -0.2881 -1.7246
 4700TIP3   OH238294   0.434   3.042  12.375 -0.2522 -0.3913 -0.4198
 4700TIP3    H138295   0.520   3.074  12.402 -0.5380 -0.2800  0.3900
 4700TIP3    H238296   0.397   3.113  12.323  0.1502 -0.4502 -0.7933
 4701TIP3   OH238297   2.827   1.969  11.756 -0.3967  0.0682 -0.3205
 4701TIP3    H138298   2.843   2.062  11.736 -0.7541  0.1418 -0.2585
 4701TIP3    H238299   2.915   1.931  11.763 -0.2500  0.3881 -0.4132
 4702TIP3   OH238300   0.682   1.734  11.719 -0.0532  0.2021  0.1141
 4702TIP3    H138301   0.607   1.794  11.729  0.9454  1.3910  0.8382
 4702TIP3    H238302   0.736   1.751  11.796 -0.3869 -2.6743  1.1044
 4703TIP3   OH238303   2.263   4.042  11.368  0.1269 -0.1437  0.0984
 4703TIP3    H138304   2.222   4.124  11.340 -0.2639 -0.6476 -0.8414
 4703TIP3    H238305   2.256   3.985  11.292 -1.7731 -1.8882  1.4982
 4704TIP3   OH238306   5.583   6.353  11.821  0.3147 -0.3019  0.2831
 4704TIP3    H138307   5.510   6.291  11.833  0.3518 -0.9255 -2.1721
 4704TIP3    H238308   5.652   6.301  11.781 -0.0376  1.4401 -2.9243
 4705TIP3   OH238309   0.440   6.386  12.327 -0.1640  0.0548  0.6615
 4705TIP3    H138310   0.534   6.402  12.341 -0.0289  0.9440 -0.9607
 4705TIP3    H238311   0.435   6.297  12.293 -0.0487 -0.4216  1.8443
 4706TIP3   OH238312   2.634   5.708  10.317 -0.2250 -0.2246 -0.5402
 4706TIP3    H138313   2.705   5.645  10.306  0.3799  0.4364 -0.5274
 4706TIP3    H238314   2.563   5.675  10.262 -0.5692 -1.8484  0.8082
 4707TIP3   OH238315   2.612   5.113  11.532  0.2449 -0.0507 -0.7124
 4707TIP3    H138316   2.665   5.073  11.462 -0.1031 -0.9758 -0.4636
 4707TIP3    H238317   2.563   5.183  11.488  1.8262  0.9753 -0.8952
 4708TIP3   OH238318   5.702   4.404  10.597  0.0152 -0.1774 -0.4541
 4708TIP3    H138319   5.746   4.480  10.561  0.6690 -0.9189 -1.2476
 4708TIP3    H238320   5.610   4.415  10.571 -0.2146  1.1111  0.7775
 4709TIP3   OH238321   4.525   3.386  10.886  0.5175  0.1046  0.0636
 4709TIP3    H138322   4.615   3.417  10.897  0.9873 -1.0068 -0.5354
 4709TIP3    H238323   4.520   3.357  10.795 -0.2959 -0.3063  0.2320
 4710TIP3   OH238324   6.504   1.160  11.749 -0.2930  0.6985  0.0654
 4710TIP3    H138325   6.511   1.198  11.661  1.2383  0.5250  0.0995
 4710TIP3    H238326   6.577   1.197  11.798 -0.2870 -0.3086  0.8513
 4711TIP3   OH238327   2.327   0.024  11.443  0.2725  0.1183 -0.0778
 4711TIP3    H138328   2.322   0.104  11.495  2.8535  0.6235 -0.4474
 4711TIP3    H238329   2.363   0.053  11.359 -1.4323 -1.0511 -1.2731
 4712TIP3   OH238330   3.851   3.123  10.103  0.0535 -0.2245 -0.0224
 4712TIP3    H138331   3.935   3.088  10.131  0.5227 -1.2108 -2.3983
 4712TIP3    H238332   3.835   3.082  10.018 -1.9195  1.3997 -0.5280
 4713TIP3   OH238333   5.356   3.357   9.788  0.5464  0.0807 -0.1454
 4713TIP3    H138334   5.311   3.351   9.703  1.4395  2.1838 -0.8235
 4713TIP3    H238335   5.427   3.292   9.782 -1.1792 -1.9556  0.2357
 4714TIP3   OH238336   3.265   2.192  10.555  0.0616  0.3522  0.5868
 4714TIP3    H138337   3.289   2.246  10.479 -0.0593  0.2219  0.4553
 4714TIP3    H238338   3.314   2.230  10.627 -1.0761  1.4976  0.7869
 4715TIP3   OH238339   2.881   6.275   9.649  0.2820  0.3652 -0.2332
 4715TIP3    H138340   2.908   6.311   9.564 -1.3364 -0.4436 -1.1372
 4715TIP3    H238341   2.944   6.204   9.665  1.9279  1.8771  0.3422
 4716TIP3   OH238342   5.513   1.457  10.224 -0.2662 -0.1278 -0.6227
 4716TIP3    H138343   5.604   1.437  10.200  0.0615 -0.2711  0.6475
 4716TIP3    H238344   5.507   1.433  10.317 -0.9279  2.0894 -0.0257
 4717TIP3   OH238345   6.656   2.193   9.193 -0.2412  0.2865 -0.3129
 4717TIP3    H138346   6.604   2.249   9.135 -1.1445 -0.1825  0.0345
 4717TIP3    H238347   6.603   2.183   9.272  0.4986  0.0161  0.1679
 4718TIP3   OH238348   2.602   3.408  11.807  0.2537  0.4049  0.4473
 4718TIP3    H138349   2.563   3.475  11.750  1.4065  1.4496  0.8289
 4718TIP3    H238350   2.653   3.353  11.747  0.0234  0.4179  0.2391
 4719TIP3   OH238351   3.387   3.140   9.832 -0.1138 -0.4680  0.4127
 4719TIP3    H138352   3.423   3.124   9.919  0.5313 -0.0094  0.2314
 4719TIP3    H238353   3.433   3.079   9.774 -0.4236 -0.6566  0.3620
 4720TIP3   OH238354   5.116   1.590  11.220  0.0881 -0.6574 -1.1066
 4720TIP3    H138355   5.189   1.552  11.268 -1.1681 -0.5259  1.0894
 4720TIP3    H238356   5.058   1.516  11.201 -1.0608 -0.3072  0.7575
 4721TIP3   OH238357   3.316   5.264  11.515 -0.3151  0.4144  0.4502
 4721TIP3    H138358   3.338   5.343  11.465  1.2978  0.4873  1.2165
 4721TIP3    H238359   3.283   5.296  11.598 -0.8874  0.2775  0.2793
 4722TIP3   OH238360   3.536   4.568  12.284  0.2732 -0.1838  0.2742
 4722TIP3    H138361   3.488   4.488  12.265  0.4767 -0.5663  1.2962
 4722TIP3    H238362   3.615   4.539  12.330  1.7023  0.3977 -1.6504
 4723TIP3   OH238363   3.818   0.737  11.258  0.1034  0.0351  0.1833
 4723TIP3    H138364   3.775   0.819  11.283  0.2199 -0.0992  0.8359
 4723TIP3    H238365   3.789   0.721  11.169  0.8650  1.3152 -0.3263
 4724TIP3   OH238366   6.436   4.663   9.221  0.1909 -0.2489 -0.4221
 4724TIP3    H138367   6.408   4.710   9.300  0.0827  1.4300 -1.4306
 4724TIP3    H238368   6.359   4.664   9.164  1.1376  1.1933 -1.7343
 4725TIP3   OH238369   0.004   5.885  10.131 -0.2484  0.1032  0.6449
 4725TIP3    H138370   0.083   5.916  10.088 -1.1804  0.0455 -1.1891
 4725TIP3    H238371  -0.013   5.799  10.093 -1.9706  0.7256 -0.1093
 4726TIP3   OH238372   3.898   0.483   9.985 -0.4328  0.3012  0.2745
 4726TIP3    H138373   3.946   0.479   9.902 -2.3930 -0.0879 -0.9151
 4726TIP3    H238374   3.955   0.441  10.048  1.4923  1.3685 -0.6592
 4727TIP3   OH238375   3.030   1.129  10.552 -0.6117 -0.0162 -0.4119
 4727TIP3    H138376   2.967   1.065  10.584  2.1133 -1.6219  2.2097
 4727TIP3    H238377   3.098   1.077  10.509 -0.0021  1.4376 -1.2834
 4728TIP3   OH238378   6.084   6.389  11.067 -0.1882 -0.3653  0.2479
 4728TIP3    H138379   6.124   6.338  11.137  0.4909 -0.1822  0.0095
 4728TIP3    H238380   6.145   6.462  11.053 -1.6208  1.1272  1.2850
 4729TIP3   OH238381   6.302   2.305  11.559  0.3046 -0.6954 -0.4613
 4729TIP3    H138382   6.292   2.227  11.613  0.8670 -0.6091 -0.2314
 4729TIP3    H238383   6.320   2.271  11.471  0.8085 -0.8207 -0.3093
 4730TIP3   OH238384   4.691   1.091   9.084 -0.1941 -0.5619 -0.1991
 4730TIP3    H138385   4.691   1.183   9.058 -0.8035 -0.1780  1.0502
 4730TIP3    H238386   4.700   1.043   9.002  0.4169  0.6104 -0.8491
 4731TIP3   OH238387   5.681   1.160  11.157  0.6149  0.4905  0.0513
 4731TIP3    H138388   5.746   1.124  11.217  1.3882  0.0778 -1.0012
 4731TIP3    H238389   5.600   1.160  11.207  1.2797  0.4017  1.1790
 4732TIP3   OH238390   5.854   3.441  11.333  0.3222  0.1292 -0.6930
 4732TIP3    H138391   5.911   3.455  11.258  1.1477 -2.6160 -0.7083
 4732TIP3    H238392   5.884   3.358  11.370 -1.6299  0.1944  1.2427
 4733TIP3   OH238393   0.805   5.145  11.529  0.2962 -0.0073 -0.1162
 4733TIP3    H138394   0.881   5.171  11.581  0.2403  0.0162 -0.0478
 4733TIP3    H238395   0.839   5.080  11.468  0.2053 -0.5751  0.4342
 4734TIP3   OH238396   4.695   1.072  12.106 -0.1318 -0.3418 -0.0704
 4734TIP3    H138397   4.695   1.145  12.168 -0.3981 -1.4423  1.2747
 4734TIP3    H238398   4.786   1.066  12.075 -0.5988  2.2195 -2.3255
 4735TIP3   OH238399   3.419   3.036  10.089 -0.9218  0.5483 -0.4250
 4735TIP3    H138400   3.421   2.983  10.169  0.6803 -1.0381 -1.4636
 4735TIP3    H238401   3.350   3.101  10.106 -0.1264  0.7795  2.5429
 4736TIP3   OH238402   5.260   2.873  11.957  0.2537  0.0949  0.0732
 4736TIP3    H138403   5.193   2.811  11.928  0.9835 -0.4713 -0.4237
 4736TIP3    H238404   5.210   2.949  11.988 -0.5996  0.0094 -1.0177
 4737TIP3   OH238405   6.698   1.041   8.612 -0.3905  0.1325  0.3198
 4737TIP3    H138406   6.609   1.020   8.583 -0.3720  0.6602 -0.1256
 4737TIP3    H238407   6.699   1.016   8.704 -1.1408  0.5548  0.4519
 4738TIP3   OH238408   2.935   2.276   8.779  0.0955  0.1967  0.1077
 4738TIP3    H138409   2.982   2.229   8.711 -0.5208 -0.8904  0.3972
 4738TIP3    H238410   2.853   2.304   8.738 -0.0734 -0.0559  0.2673
 4739TIP3   OH238411   6.662   1.088   9.586  0.4949 -1.1002  0.2694
 4739TIP3    H138412   6.570   1.115   9.586  0.6918 -0.3938  0.5624
 4739TIP3    H238413   6.663   1.005   9.632  0.0535 -0.9159  0.6160
 4740TIP3   OH238414   1.515   4.892  11.129  0.1308  0.4478 -0.6353
 4740TIP3    H138415   1.456   4.886  11.054 -1.2641  0.0901  0.4429
 4740TIP3    H238416   1.568   4.812  11.124 -0.8438 -0.2262 -0.5482
 4741TIP3   OH238417   6.633   4.517   8.729 -0.1215  0.0503 -0.2010
 4741TIP3    H138418   6.705   4.577   8.709  0.0845 -0.1142  0.0252
 4741TIP3    H238419   6.674   4.450   8.784 -0.4474 -0.0531 -0.0841
 4742TIP3   OH238420   2.552   4.983  10.479 -0.2114 -0.9378 -0.2710
 4742TIP3    H138421   2.641   4.958  10.456  0.2184 -0.1758  0.5438
 4742TIP3    H238422   2.561   5.062  10.532 -1.5487  1.8327 -3.7583
 4743TIP3   OH238423   2.223   4.090  12.103  0.3453  0.1138  0.8619
 4743TIP3    H138424   2.225   3.999  12.133 -1.0049 -0.3009 -0.1917
 4743TIP3    H238425   2.304   4.128  12.137  0.9631 -1.4842  1.2909
 4744TIP3   OH238426   5.762   5.347   9.259  0.1286  0.2358  0.0662
 4744TIP3    H138427   5.822   5.422   9.258  0.6043 -0.1205  1.0367
 4744TIP3    H238428   5.784   5.299   9.339 -1.2238 -0.0833  0.2787
 4745TIP3   OH238429   0.045   0.326  11.449  0.4421 -0.4857  0.1642
 4745TIP3    H138430   0.010   0.239  11.471 -1.1730 -0.0429 -0.4874
 4745TIP3    H238431   0.005   0.347  11.365  1.6014  0.4829 -0.1695
 4746TIP3   OH238432   0.291   4.192   9.945 -0.2079 -0.3785 -0.2095
 4746TIP3    H138433   0.239   4.163  10.020  0.5949  1.2728  1.0245
 4746TIP3    H238434   0.376   4.214   9.981  0.5120 -0.4351 -1.7788
 4747TIP3   OH238435   5.486   5.593  10.164 -0.5027  0.0893  0.1220
 4747TIP3    H138436   5.488   5.621  10.073  0.0207  1.0044  0.3968
 4747TIP3    H238437   5.499   5.673  10.214 -0.0076 -0.5042  0.9802
 4748TIP3   OH238438   5.729   4.819  10.816 -1.3459 -0.3622  0.2471
 4748TIP3    H138439   5.641   4.792  10.843 -1.7146 -0.3187 -0.8572
 4748TIP3    H238440   5.773   4.737  10.795 -2.3319 -0.2451 -2.7058
 4749TIP3   OH238441   4.842   5.441  10.452 -0.1073 -0.1773 -0.0443
 4749TIP3    H138442   4.755   5.415  10.482 -0.1543 -0.7952 -0.6928
 4749TIP3    H238443   4.833   5.533  10.429 -0.3713 -0.0171  0.6621
 4750TIP3   OH238444   1.583   1.234  11.736 -0.0235  0.0130 -0.7327
 4750TIP3    H138445   1.567   1.317  11.782 -0.7250 -0.5449  0.0667
 4750TIP3    H238446   1.523   1.172  11.778  2.0839 -1.4787  0.2882
 4751TIP3   OH238447   0.059   4.441   9.065  0.0127 -0.3862  0.0298
 4751TIP3    H138448   0.045   4.376   8.997  0.4549 -0.2278 -0.2111
 4751TIP3    H238449   0.153   4.457   9.066 -0.1834  1.0042 -0.6182
 4752TIP3   OH238450   1.229   2.336  11.644 -0.5182  0.0775 -0.1007
 4752TIP3    H138451   1.285   2.372  11.713 -0.2084  0.4651 -0.5450
 4752TIP3    H238452   1.278   2.262  11.608 -0.3530  0.3256 -0.3909
 4753TIP3   OH238453   5.617   0.928  11.928 -0.3949  0.0067  0.0267
 4753TIP3    H138454   5.564   0.926  12.008 -0.1458  1.2396  0.2419
 4753TIP3    H238455   5.563   0.886  11.862 -1.0345 -0.0785  0.5961
 4754TIP3   OH238456   5.343   6.565  10.312  0.0563 -0.4405 -0.0449
 4754TIP3    H138457   5.269   6.613  10.276  0.6663 -0.2721 -1.1101
 4754TIP3    H238458   5.314   6.539  10.400 -0.4618  1.4248  0.3701
 4755TIP3   OH238459   5.120   5.608  10.921  0.1747  0.1569  0.0714
 4755TIP3    H138460   5.143   5.671  10.989 -1.9177  0.5746  0.4608
 4755TIP3    H238461   5.102   5.662  10.844 -0.9735 -0.0065  0.2164
 4756TIP3   OH238462   0.463   0.035  11.945 -0.5077  0.7197  0.4974
 4756TIP3    H138463   0.499   0.080  11.869 -1.4158 -2.0909 -1.8046
 4756TIP3    H238464   0.540   0.003  11.993  0.2278 -1.3175 -1.8336
 4757TIP3   OH238465   1.642   5.672  10.503  0.0008  0.1860  0.4392
 4757TIP3    H138466   1.696   5.597  10.530  1.6332  0.3686 -1.9919
 4757TIP3    H238467   1.646   5.732  10.578  0.3570 -1.2587  1.6381
 4758TIP3   OH238468   2.427   5.621   8.895  0.7410 -0.1981 -0.2018
 4758TIP3    H138469   2.486   5.562   8.847  1.1453 -0.7901  0.9877
 4758TIP3    H238470   2.340   5.588   8.876  0.5576  1.7390 -3.4237
 4759TIP3   OH238471   4.790   3.100  10.620  0.2091  0.4043 -0.1940
 4759TIP3    H138472   4.699   3.100  10.590  0.2874 -1.9436 -0.6434
 4759TIP3    H238473   4.783   3.101  10.716 -0.2957  0.2961 -0.2236
 4760TIP3   OH238474   4.005   4.557  11.580  0.0512 -0.4068 -0.6549
 4760TIP3    H138475   3.983   4.583  11.669  0.1607  1.1622 -1.0459
 4760TIP3    H238476   3.947   4.610  11.525  0.9130 -0.3454 -1.5299
 4761TIP3   OH238477   0.584   6.062   9.708  0.3960 -0.1359 -0.6210
 4761TIP3    H138478   0.511   6.081   9.649  0.2985  1.7406  0.0509
 4761TIP3    H238479   0.622   6.147   9.727  1.7331 -0.9293  0.3704
 4762TIP3   OH238480   0.573   4.656   9.126 -0.3519  0.3110  0.2612
 4762TIP3    H138481   0.597   4.651   9.034 -0.0554  0.4907  0.3264
 4762TIP3    H238482   0.656   4.672   9.172 -0.0763 -2.1797  0.7930
 4763TIP3   OH238483   4.375   5.606  10.687 -0.4475 -0.0570  0.1861
 4763TIP3    H138484   4.389   5.597  10.592 -0.4071 -2.9441  0.3651
 4763TIP3    H238485   4.331   5.525  10.712 -2.4191  1.5701  2.3457
 4764TIP3   OH238486   5.708   5.254  11.917  0.5033  0.0298  1.0675
 4764TIP3    H138487   5.629   5.233  11.968 -0.7081 -0.8431 -1.0364
 4764TIP3    H238488   5.750   5.170  11.901  0.2362  0.1354 -0.2955
 4765TIP3   OH238489   1.739   5.746  10.263 -0.3926  0.0506 -0.5832
 4765TIP3    H138490   1.712   5.729  10.354 -0.1869  1.3789 -0.2548
 4765TIP3    H238491   1.779   5.664  10.235 -0.3118 -0.3376  0.5872
 4766TIP3   OH238492   2.970   3.208  10.895  0.4787  0.3761  0.3412
 4766TIP3    H138493   2.908   3.281  10.897  0.4202  0.3284  1.9300
 4766TIP3    H238494   2.949   3.159  10.816 -2.1324 -0.1530  1.2728
 4767TIP3   OH238495   6.290   6.071   8.335 -0.4451 -0.4771  0.0244
 4767TIP3    H138496   6.237   6.139   8.295  1.1088  1.6808  1.4247
 4767TIP3    H238497   6.377   6.081   8.296  0.2463 -0.4695  1.4950
 4768TIP3   OH238498   0.707   3.875   9.001 -0.3437 -0.0522  0.0482
 4768TIP3    H138499   0.726   3.881   8.907  0.2174 -0.0038  0.1641
 4768TIP3    H238500   0.735   3.959   9.037  0.4246 -0.4639  0.4285
 4769TIP3   OH238501   4.159   1.928   9.157  0.1239 -0.1843  0.0297
 4769TIP3    H138502   4.244   1.918   9.198 -0.6171  1.7877  2.2975
 4769TIP3    H238503   4.124   1.839   9.151  1.6745 -0.8559  0.4870
 4770TIP3   OH238504   0.790   5.922  11.258  0.2921  0.1374  0.1869
 4770TIP3    H138505   0.700   5.945  11.234  0.8019  0.5027 -1.4595
 4770TIP3    H238506   0.813   5.851  11.198  2.0348  1.9020 -1.3442
 4771TIP3   OH238507   1.997   1.001  10.991  0.2357 -0.0841 -0.7382
 4771TIP3    H138508   2.033   1.039  10.910  1.3660 -0.1529 -0.2823
 4771TIP3    H238509   1.917   0.958  10.962 -0.9018  2.2534 -1.3543
 4772TIP3   OH238510   2.081   2.448  10.589 -0.5010 -0.1721  0.0215
 4772TIP3    H138511   2.060   2.429  10.498 -1.7230  0.7612  0.0683
 4772TIP3    H238512   2.001   2.425  10.637 -0.2625  0.3728  0.6966
 4773TIP3   OH238513   4.470   5.010   9.745  0.1544 -0.2395 -0.2427
 4773TIP3    H138514   4.530   5.025   9.671 -0.8392  3.7410 -0.4807
 4773TIP3    H238515   4.509   5.059   9.817 -0.6189 -1.2815  0.9294
 4774TIP3   OH238516   4.824   0.890   9.374 -0.3917  0.5145  0.2555
 4774TIP3    H138517   4.869   0.843   9.444 -1.1770 -0.8561 -0.1084
 4774TIP3    H238518   4.892   0.941   9.330  0.4377 -0.0507  0.8802
 4775TIP3   OH238519   2.214   2.992  12.078  0.0525 -0.0834 -0.6051
 4775TIP3    H138520   2.212   2.937  11.999 -1.2438 -1.6937  0.4868
 4775TIP3    H238521   2.124   3.025  12.086  0.4759  1.0649 -0.4477
 4776TIP3   OH238522   0.320   4.015  11.777 -0.7658 -0.1040  0.4769
 4776TIP3    H138523   0.350   3.970  11.856  0.2711  0.4582  0.4255
 4776TIP3    H238524   0.342   3.955  11.705  0.8452  0.5491  0.3847
 4777TIP3   OH238525   1.809   5.871  11.007 -0.6716  0.2802  0.0010
 4777TIP3    H138526   1.847   5.805  11.066 -1.2166 -2.2895 -2.3468
 4777TIP3    H238527   1.875   5.940  11.003  2.7078 -2.7201 -1.7452
 4778TIP3   OH238528   1.080   1.933  11.881  0.4701  0.1701 -0.1373
 4778TIP3    H138529   1.095   2.028  11.885 -0.8358  0.4177 -0.4172
 4778TIP3    H238530   1.091   1.911  11.788  0.2633  0.1444 -0.1556
 4779TIP3   OH238531   0.653   2.241  10.864 -0.3030  0.6632  0.6897
 4779TIP3    H138532   0.736   2.281  10.891 -0.1588  1.4721 -0.8152
 4779TIP3    H238533   0.627   2.291  10.787 -1.2473 -0.8010  0.0253
 4780TIP3   OH238534   2.387   2.013  11.646  0.1419  0.3719 -0.1267
 4780TIP3    H138535   2.312   1.998  11.702  0.5809  0.9312  0.6281
 4780TIP3    H238536   2.458   1.963  11.687  0.3702  0.4726 -0.3943
 4781TIP3   OH238537   1.821   2.733  11.641  0.0497  0.8257 -0.5548
 4781TIP3    H138538   1.885   2.667  11.666 -0.4371  1.2085  1.9044
 4781TIP3    H238539   1.765   2.744  11.718 -2.9177  0.6355 -2.4990
 4782TIP3   OH238540   5.682   2.550   8.912  0.2252 -0.2315  0.1820
 4782TIP3    H138541   5.613   2.487   8.932 -0.8041  0.4299 -1.0816
 4782TIP3    H238542   5.639   2.635   8.917  1.1449  0.2526  0.1212
 4783TIP3   OH238543   0.564   6.277   9.311 -0.4578  0.0345  0.2160
 4783TIP3    H138544   0.610   6.361   9.308 -1.1553  0.4620  0.9488
 4783TIP3    H238545   0.490   6.288   9.252  1.8097 -1.6236 -3.2570
 4784TIP3   OH238546   2.092   2.751  10.951 -0.3775  0.4684 -0.4428
 4784TIP3    H138547   2.048   2.672  10.919  0.3733  0.7144 -2.1829
 4784TIP3    H238548   2.181   2.722  10.970 -0.1892  0.8223 -0.7798
 4785TIP3   OH238549   3.950   0.806  10.924 -0.5983  0.0639 -0.2334
 4785TIP3    H138550   3.918   0.837  11.008 -0.7624 -1.3188  0.2449
 4785TIP3    H238551   4.043   0.830  10.923  0.0093 -1.9315  1.3985
 4786TIP3   OH238552   6.489   2.008   8.940  0.0931 -0.0869  0.3481
 4786TIP3    H138553   6.466   2.033   9.030  0.1134 -0.4590  0.4585
 4786TIP3    H238554   6.454   2.079   8.886  0.2056  0.2115  0.6615
 4787TIP3   OH238555   6.221   0.934   9.628  0.1971 -0.1411  0.0149
 4787TIP3    H138556   6.283   1.006   9.616  0.1458  0.0458  0.8286
 4787TIP3    H238557   6.181   0.951   9.713 -0.5091 -0.6121 -0.2197
 4788TIP3   OH238558   3.163   3.502  11.547  0.3908 -0.4102  0.1478
 4788TIP3    H138559   3.176   3.562  11.620  0.9890  0.6425 -0.7786
 4788TIP3    H238560   3.070   3.506  11.528  0.6953  1.9289 -1.2383
 4789TIP3   OH238561   5.172   5.759  10.693 -0.4478  0.1606  0.5461
 4789TIP3    H138562   5.232   5.711  10.636 -1.5574 -0.3376 -0.2197
 4789TIP3    H238563   5.192   5.852  10.677 -1.6751  0.0792 -1.7047
 4790TIP3   OH238564   4.669   0.355  10.359 -0.2144 -0.2920  0.3097
 4790TIP3    H138565   4.651   0.269  10.321 -0.2408 -0.3477  0.4485
 4790TIP3    H238566   4.656   0.416  10.286  0.4021 -0.4575  0.0542
 4791TIP3   OH238567   0.249   0.753  11.708  0.0950  0.1788 -0.1810
 4791TIP3    H138568   0.283   0.841  11.724  1.5935 -0.4930  0.4980
 4791TIP3    H238569   0.225   0.721  11.796 -0.7692  0.0288 -0.4621
 4792TIP3   OH238570   2.233   3.817  12.173 -0.1686 -0.0509  0.1582
 4792TIP3    H138571   2.313   3.798  12.222  1.3253  1.3247 -1.6147
 4792TIP3    H238572   2.251   3.786  12.085 -2.3706 -1.4402  0.1295
 4793TIP3   OH238573   5.914   4.391  12.201  0.0421  0.2565  0.1357
 4793TIP3    H138574   5.870   4.333  12.264  0.6255 -0.4414 -0.0736
 4793TIP3    H238575   5.895   4.479  12.232 -0.7202 -0.0497  0.5727
 4794TIP3   OH238576   6.618   5.843  10.845 -0.6853 -0.3259 -0.0543
 4794TIP3    H138577   6.607   5.934  10.873 -0.4658 -0.2703 -0.1476
 4794TIP3    H238578   6.673   5.848  10.767 -0.5507 -0.5509  0.0270
 4795TIP3   OH238579   1.472   3.867   9.799  0.4322 -0.2213  0.9656
 4795TIP3    H138580   1.520   3.880   9.717  0.1299 -1.4160  0.5711
 4795TIP3    H238581   1.534   3.891   9.868  1.4761 -1.3432  0.4487
 4796TIP3   OH238582   5.610   2.731   9.638  0.5134 -0.1740  0.0182
 4796TIP3    H138583   5.612   2.637   9.653  0.5420 -0.5094 -1.8487
 4796TIP3    H238584   5.534   2.762   9.686  0.8579 -1.0443  1.1462
 4797TIP3   OH238585   1.739   2.287  10.438 -0.6581  0.2611  0.3126
 4797TIP3    H138586   1.676   2.221  10.466  0.3953 -0.4588  1.1016
 4797TIP3    H238587   1.779   2.319  10.519  0.3644  0.2888 -0.1736
 4798TIP3   OH238588   1.091   2.569  11.597  0.3707  0.8184 -0.0263
 4798TIP3    H138589   1.047   2.504  11.651  0.6264  0.2383 -0.5141
 4798TIP3    H238590   1.180   2.537  11.588  0.3001  0.8506 -0.8842
 4799TIP3   OH238591   6.152   5.963  11.959 -1.0299  0.2444 -0.3282
 4799TIP3    H138592   6.070   5.964  11.908  0.0094 -1.5507 -2.2123
 4799TIP3    H238593   6.170   5.870  11.972  0.6459  0.6121  0.1817
 4800TIP3   OH238594   3.750   4.705  10.261 -0.2666  0.2359 -0.0479
 4800TIP3    H138595   3.842   4.679  10.261 -0.7567 -1.7310  1.1728
 4800TIP3    H238596   3.730   4.720  10.353 -1.4226 -0.4448 -0.1728
 4801TIP3   OH238597   0.380   2.021  12.430 -0.6214  0.1003  0.0624
 4801TIP3    H138598   0.368   1.997  12.522 -1.2630  1.6668  0.4177
 4801TIP3    H238599   0.342   2.108  12.423 -1.4421 -0.3652 -1.9211
 4802TIP3   OH238600   4.229   2.161  10.738  0.0268  0.0442 -0.6109
 4802TIP3    H138601   4.157   2.104  10.712 -0.2448 -0.8976  2.0034
 4802TIP3    H238602   4.188   2.245  10.756 -0.4772 -0.4911  0.8757
 4803TIP3   OH238603   0.450   1.520  11.423 -0.1555 -0.3140 -0.1113
 4803TIP3    H138604   0.369   1.481  11.457 -1.6571  1.4387 -1.4578
 4803TIP3    H238605   0.451   1.494  11.330  0.4929  0.1935 -0.2471
 4804TIP3   OH238606   6.111   0.431  10.042  0.4075  0.2724 -0.5156
 4804TIP3    H138607   6.094   0.354   9.989 -0.8276 -0.2292  0.5754
 4804TIP3    H238608   6.174   0.401  10.108 -1.3009 -0.3104  0.9318
 4805TIP3   OH238609   3.967   6.408  10.495 -0.8615  0.1127  0.3478
 4805TIP3    H138610   3.960   6.367  10.581 -0.4240 -1.5144 -0.3765
 4805TIP3    H238611   3.915   6.353  10.437  1.4914 -0.7243 -1.0957
 4806TIP3   OH238612   3.159   5.025   9.915  0.2056 -0.0896  0.2831
 4806TIP3    H138613   3.153   5.086   9.842  2.9599  0.6144  0.5372
 4806TIP3    H238614   3.198   4.946   9.878 -0.5503 -0.6045  0.5588
 4807TIP3   OH238615   2.143   1.288   9.082 -0.7235 -0.9660  0.1586
 4807TIP3    H138616   2.105   1.212   9.038 -1.0864 -0.6448 -0.0940
 4807TIP3    H238617   2.075   1.355   9.077 -0.5951 -0.7796  0.8170
 4808TIP3   OH238618   5.216   6.160  11.202  0.1812  0.5039  0.4522
 4808TIP3    H138619   5.194   6.110  11.280  1.5256 -0.3359  0.3124
 4808TIP3    H238620   5.132   6.170  11.156 -0.6619  1.1828  2.0682
 4809TIP3   OH238621   0.077   2.051  10.639  0.0894 -0.7519  0.1384
 4809TIP3    H138622   0.033   2.111  10.701  0.0979 -3.6480  3.2565
 4809TIP3    H238623   0.005   2.011  10.590 -0.1575 -0.2512  0.0888
 4810TIP3   OH238624   5.272   3.767   9.350 -0.1486  0.5443  0.0824
 4810TIP3    H138625   5.199   3.713   9.381  1.0725 -0.9267  0.5266
 4810TIP3    H238626   5.309   3.804   9.431 -0.1516  0.9760 -0.1111
 4811TIP3   OH238627   4.681   2.702   7.960 -0.3709 -0.3799 -0.3366
 4811TIP3    H138628   4.750   2.769   7.954 -1.2368  0.6898  0.8747
 4811TIP3    H238629   4.605   2.750   7.994 -0.7431 -2.1532  1.5210
 4812TIP3   OH238630   5.253   3.499  10.642  0.0113 -0.8977  0.2471
 4812TIP3    H138631   5.268   3.480  10.549 -2.4606 -2.7851  0.1468
 4812TIP3    H238632   5.338   3.480  10.683  1.2016  0.0813 -1.5881
 4813TIP3   OH238633   0.445   6.671  10.489 -0.3438 -0.3358 -0.0812
 4813TIP3    H138634   0.412   6.701  10.574 -1.4176  1.5418 -1.0799
 4813TIP3    H238635   0.398   6.589  10.474  0.9232 -1.4717  1.7139
 4814TIP3   OH238636   5.094   5.281  10.452  0.0156 -0.1337  0.1418
 4814TIP3    H138637   5.010   5.326  10.461  0.5523  0.8123  0.5967
 4814TIP3    H238638   5.110   5.243  10.539  0.8563  1.1789  0.6013
 4815TIP3   OH238639   1.364   6.130  11.786  0.4487 -0.6311 -0.1898
 4815TIP3    H138640   1.396   6.116  11.697 -0.4460  1.5519 -0.9062
 4815TIP3    H238641   1.285   6.183  11.776 -0.4016 -1.3916  1.8510
 4816TIP3   OH238642   3.540   0.966  12.015 -0.1717 -0.2729  0.4152
 4816TIP3    H138643   3.570   0.944  12.104 -0.8039 -0.4662  0.5859
 4816TIP3    H238644   3.608   0.930  11.958 -1.1081 -2.7069  0.6887
 4817TIP3   OH238645   0.175   4.328  11.214 -0.3254 -0.3073  0.2684
 4817TIP3    H138646   0.204   4.386  11.285 -2.1862  0.2840  0.5957
 4817TIP3    H238647   0.232   4.350  11.140  0.9215 -0.1640  1.2429
 4818TIP3   OH238648   0.050   4.780   9.309 -0.5631  0.1932 -0.4339
 4818TIP3    H138649   0.033   4.686   9.308 -0.4835  0.1233 -3.0346
 4818TIP3    H238650  -0.015   4.816   9.249  0.5843  1.5280 -0.9381
 4819TIP3   OH238651   2.951   4.715  11.448  0.0887 -0.1815  0.2984
 4819TIP3    H138652   3.004   4.710  11.368  1.6004  1.0103  1.1547
 4819TIP3    H238653   3.015   4.733  11.517 -1.5029  2.3215  1.2681
 4820TIP3   OH238654   2.706   0.428  11.008 -0.1711 -0.2266 -0.4269
 4820TIP3    H138655   2.760   0.502  10.980 -1.8409  0.5060 -1.8337
 4820TIP3    H238656   2.742   0.404  11.094  2.0832  0.4925 -1.0936
 4821TIP3   OH238657   5.227   3.028   9.217 -0.7030  0.0035  0.8936
 4821TIP3    H138658   5.290   3.084   9.171  0.1268 -1.0424  0.7341
 4821TIP3    H238659   5.259   3.025   9.307 -1.3881  0.6827  1.1756
 4822TIP3   OH238660   1.665   2.559  10.913  0.0617 -0.0382 -0.3124
 4822TIP3    H138661   1.705   2.625  10.856 -0.2632 -0.1655 -0.7008
 4822TIP3    H238662   1.609   2.610  10.972  0.2225  0.0781 -0.2602
 4823TIP3   OH238663   3.758   3.039  11.727 -0.0280 -0.0536  0.4430
 4823TIP3    H138664   3.781   3.068  11.816  1.9014 -0.6260  0.1914
 4823TIP3    H238665   3.703   3.108  11.693 -0.3257  0.4657  1.8915
 4824TIP3   OH238666   2.239   4.084   9.498 -0.2699 -0.2725 -0.4505
 4824TIP3    H138667   2.195   3.999   9.494 -2.0515  0.6314 -1.1716
 4824TIP3    H238668   2.184   4.142   9.446  0.8803  1.3577  0.0675
 4825TIP3   OH238669   4.075   2.375  10.816  0.2281 -0.3759 -0.4041
 4825TIP3    H138670   4.099   2.446  10.876 -1.0393  0.5746 -0.9797
 4825TIP3    H238671   4.015   2.320  10.867  0.5246 -0.5543 -0.2437
 4826TIP3   OH238672   3.153   3.999   9.214 -0.2432  0.3272  0.3099
 4826TIP3    H138673   3.224   4.003   9.150 -0.0107 -2.2456  0.3038
 4826TIP3    H238674   3.127   4.090   9.226  1.5728  1.1463 -1.3341
 4827TIP3   OH238675   0.509   5.234  11.825  0.2601 -0.2639  0.0063
 4827TIP3    H138676   0.558   5.213  11.905  1.2016 -0.4504 -0.6073
 4827TIP3    H238677   0.448   5.303  11.852  2.8102  2.0915  0.1995
 4828TIP3   OH238678   0.012   4.487   9.343 -0.4639 -0.0066 -0.6830
 4828TIP3    H138679  -0.012   4.467   9.253  0.8229  3.3974 -1.9810
 4828TIP3    H238680   0.106   4.470   9.346 -0.6724 -1.0455  0.3599
 4829TIP3   OH238681   5.633   0.491  11.140  0.4002  0.7011 -0.3476
 4829TIP3    H138682   5.649   0.535  11.057  1.3546  0.7031 -0.1645
 4829TIP3    H238683   5.692   0.416  11.140 -1.2916 -0.7233 -0.7232
 4830TIP3   OH238684   2.353   1.726   9.607 -0.0496 -0.0779  0.2264
 4830TIP3    H138685   2.335   1.633   9.595  0.2638 -0.1251  0.1125
 4830TIP3    H238686   2.276   1.770   9.573 -0.1342 -0.2895  0.1425
 4831TIP3   OH238687   4.698   5.452   9.368 -0.0859 -0.3431  0.2281
 4831TIP3    H138688   4.631   5.437   9.434 -0.1136 -1.0370  0.0493
 4831TIP3    H238689   4.655   5.428   9.285 -0.4044  1.4994 -0.1913
 4832TIP3   OH238690   0.390   3.282  12.232 -0.3890 -0.0328  0.1652
 4832TIP3    H138691   0.299   3.311  12.222  0.0736  1.5521  0.3238
 4832TIP3    H238692   0.440   3.363  12.241  1.0210 -0.8933  0.3079
 4833TIP3   OH238693   5.990   2.511   8.887 -0.0372 -0.3267  0.6805
 4833TIP3    H138694   5.942   2.430   8.906  0.5862 -0.3026  2.6144
 4833TIP3    H238695   5.924   2.580   8.894 -0.5907 -0.6438 -1.0587
 4834TIP3   OH238696   5.363   2.289  10.253  0.4270  0.0024  0.0716
 4834TIP3    H138697   5.318   2.214  10.291  0.8283 -1.3198 -1.8959
 4834TIP3    H238698   5.439   2.252  10.208  1.1827  1.7123 -0.1504
 4835TIP3   OH238699   5.061   3.098  10.142  0.5468  0.3063 -0.3793
 4835TIP3    H138700   5.063   3.006  10.167  1.0534  0.2800 -0.5074
 4835TIP3    H238701   5.044   3.145  10.224 -0.4776  0.0579 -0.4361
 4836TIP3   OH238702   3.914   1.557  11.180  0.1526 -0.0128  0.0046
 4836TIP3    H138703   3.910   1.512  11.096  1.3083  1.9473 -1.1725
 4836TIP3    H238704   3.889   1.490  11.244 -3.2932 -0.9214 -2.0510
 4837TIP3   OH238705   2.629   1.609  10.220 -0.0297 -0.5118 -0.1614
 4837TIP3    H138706   2.599   1.545  10.155  1.0144  0.2313 -1.4307
 4837TIP3    H238707   2.561   1.609  10.287 -0.6629 -2.0286 -0.7577
 4838TIP3   OH238708   2.174   4.882  11.624 -0.8040  0.2038  0.7907
 4838TIP3    H138709   2.258   4.876  11.669 -0.7309 -1.2007  0.5377
 4838TIP3    H238710   2.118   4.932  11.683 -0.2341 -0.1797  1.6819
 4839TIP3   OH238711   5.875   4.282  11.553 -0.5242 -0.2421  0.0417
 4839TIP3    H138712   5.789   4.247  11.530 -0.9928  0.6918  0.3185
 4839TIP3    H238713   5.918   4.211  11.601 -1.4537 -0.4490  0.5945
 4840TIP3   OH238714   6.309   5.599  11.595 -0.2840  0.7001  0.1747
 4840TIP3    H138715   6.224   5.562  11.570 -0.2943  0.8962 -0.0939
 4840TIP3    H238716   6.329   5.660  11.524  0.7898 -0.4396 -0.5452
 4841TIP3   OH238717   6.397   1.065  10.412  0.1277  0.0954 -0.0061
 4841TIP3    H138718   6.310   1.027  10.397  0.6266 -0.8434 -0.6396
 4841TIP3    H238719   6.390   1.109  10.497 -0.4655 -1.5413  0.8448
 4842TIP3   OH238720   6.231   0.000  11.466 -0.2119  0.8118 -0.0711
 4842TIP3    H138721   6.198   0.037  11.384 -0.7714  1.8928  0.6100
 4842TIP3    H238722   6.320   0.036  11.475  0.3825 -0.3942 -0.8494
 4843TIP3   OH238723   1.535   1.555  11.839  0.3032  0.4276 -0.0739
 4843TIP3    H138724   1.440   1.561  11.830  0.3769  0.9728 -0.5356
 4843TIP3    H238725   1.555   1.606  11.918  0.2346  0.5311 -0.1229
 4844TIP3   OH238726   0.842   4.692   9.220 -0.1562 -0.0473 -0.4083
 4844TIP3    H138727   0.824   4.729   9.307 -1.9496 -1.9783  0.1158
 4844TIP3    H238728   0.888   4.762   9.174 -0.1560  1.4580  1.7028
 4845TIP3   OH238729   2.805   4.512  11.585 -0.2998 -0.0947 -0.0417
 4845TIP3    H138730   2.769   4.488  11.500  0.0998  0.6542 -0.4323
 4845TIP3    H238731   2.840   4.600  11.572  0.3765 -0.2425  0.7129
 4846TIP3   OH238732   1.138   6.428   9.252 -0.2743  0.3918  0.3431
 4846TIP3    H138733   1.070   6.443   9.187 -1.2769 -1.4546  0.9267
 4846TIP3    H238734   1.149   6.333   9.256  1.5163  0.5775  1.1109
 4847TIP3   OH238735   5.535   0.226  11.888 -0.8986  0.0547  0.0279
 4847TIP3    H138736   5.478   0.265  11.822 -1.6592  0.9615  1.1842
 4847TIP3    H238737   5.491   0.145  11.914 -0.8298 -0.0728 -0.2582
 4848TIP3   OH238738   0.934   5.458  10.066  0.5426  0.8623 -0.3565
 4848TIP3    H138739   0.906   5.549  10.053  1.6998  1.5036  1.2465
 4848TIP3    H238740   0.855   5.413  10.095 -0.0600  1.3227 -1.2270
 4849TIP3   OH238741   2.525   3.099  11.913  0.1203  0.5733 -0.2494
 4849TIP3    H138742   2.440   3.103  11.871  0.6854  1.5526 -1.3621
 4849TIP3    H238743   2.573   3.174  11.878  1.9185 -0.7067 -0.6853
 4850TIP3   OH238744   0.844   1.035   9.411 -0.4150 -1.0007  0.1362
 4850TIP3    H138745   0.898   1.104   9.450  0.3859 -0.6795 -1.4826
 4850TIP3    H238746   0.904   0.985   9.356 -1.0687 -2.7565  0.9322
 4851TIP3   OH238747   1.360   3.290   9.107  0.2077  0.6944 -0.1168
 4851TIP3    H138748   1.422   3.303   9.178  0.8241  1.1485 -0.7284
 4851TIP3    H238749   1.413   3.290   9.027 -0.6014  1.3923 -0.6763
 4852TIP3   OH238750   2.439   4.454   8.832  0.3769  0.5473 -0.0860
 4852TIP3    H138751   2.368   4.499   8.877 -0.7896  0.8451 -2.0886
 4852TIP3    H238752   2.422   4.361   8.847 -1.4691  0.5236 -1.8511
 4853TIP3   OH238753   1.079   4.539  11.955 -0.2663  0.1367 -0.2526
 4853TIP3    H138754   1.155   4.568  11.904 -0.0931  0.6147  0.2547
 4853TIP3    H238755   1.044   4.620  11.992 -0.2937 -0.2134  0.5036
 4854TIP3   OH238756   0.113   2.066   8.897 -0.3092  0.0765 -0.2680
 4854TIP3    H138757   0.084   1.978   8.872  1.7748 -0.7507  0.0504
 4854TIP3    H238758   0.199   2.075   8.857 -0.0028  1.5279  0.6623
 4855TIP3   OH238759   5.513   6.136   9.215 -0.6840  0.0388  0.0946
 4855TIP3    H138760   5.451   6.065   9.229 -0.5499 -0.4271 -1.4859
 4855TIP3    H238761   5.597   6.101   9.245 -0.7682 -0.1423  0.1197
 4856TIP3   OH238762   3.633   2.484  10.852 -0.0878  0.3949  0.2713
 4856TIP3    H138763   3.556   2.475  10.907  0.9160  1.9225  2.0274
 4856TIP3    H238764   3.692   2.414  10.882 -0.2547  0.0608 -0.1642
 4857TIP3   OH238765   4.353   2.120  11.344 -0.2183  0.1543 -0.1939
 4857TIP3    H138766   4.286   2.081  11.288  0.5513 -1.5638  0.0341
 4857TIP3    H238767   4.304   2.162  11.415 -1.1387  1.2276 -1.4133
 4858TIP3   OH238768   3.792   0.797   8.803  0.0737 -0.0052  0.1281
 4858TIP3    H138769   3.857   0.860   8.772 -0.0400  0.4031  0.7069
 4858TIP3    H238770   3.810   0.717   8.752  1.5143 -0.1437  0.7950
 4859TIP3   OH238771   2.786   4.007  10.141 -0.0588 -0.0641  0.1427
 4859TIP3    H138772   2.815   4.043  10.058 -0.4970 -0.7722 -0.3231
 4859TIP3    H238773   2.697   4.042  10.153 -1.1220 -2.1627 -1.0800
 4860TIP3   OH238774   2.759   0.906  10.926  0.8626 -0.1712 -0.5530
 4860TIP3    H138775   2.790   0.820  10.898  0.8275 -0.6108  0.6883
 4860TIP3    H238776   2.744   0.954  10.845 -0.4163 -1.7926 -1.3288
 4861TIP3   OH238777   3.648   6.443  10.992  0.3302 -0.0193  0.2732
 4861TIP3    H138778   3.609   6.404  11.070  0.7833  0.8388  0.9498
 4861TIP3    H238779   3.598   6.524  10.978  0.6805  0.1672  0.0767
 4862TIP3   OH238780   4.479   0.616   9.627  0.7908  0.2787 -0.0761
 4862TIP3    H138781   4.532   0.690   9.658  0.3137  0.9181 -0.7404
 4862TIP3    H238782   4.440   0.578   9.706  2.0687 -0.0834  0.4074
 4863TIP3   OH238783   0.887   1.003  11.699 -0.0586  0.4935 -0.2506
 4863TIP3    H138784   0.917   1.044  11.618  0.1159  1.6924  0.3909
 4863TIP3    H238785   0.829   1.069  11.739  0.4112  0.2189  0.9319
 4864TIP3   OH238786   2.022   5.808  10.327 -0.0160  0.0616  0.1005
 4864TIP3    H138787   2.116   5.789  10.329 -0.4933 -2.6512  0.9862
 4864TIP3    H238788   2.002   5.822  10.235  1.0830 -0.2642 -0.2023
 4865TIP3   OH238789   0.109   6.629  10.913 -0.3508 -0.5200 -0.1083
 4865TIP3    H138790   0.090   6.718  10.883 -0.5241  0.0809  1.6667
 4865TIP3    H238791   0.168   6.641  10.987  0.1847 -1.9361 -0.2844
 4866TIP3   OH238792   3.967   3.102  11.915 -0.2460 -0.0132  0.2241
 4866TIP3    H138793   3.971   3.141  12.002 -0.9517  1.9529 -0.5639
 4866TIP3    H238794   4.022   3.158  11.861 -0.0906 -0.9989 -0.6732
 4867TIP3   OH238795   5.177   4.385   9.201 -0.3993  0.3384 -0.0666
 4867TIP3    H138796   5.151   4.392   9.109 -0.0561 -1.4467 -0.3445
 4867TIP3    H238797   5.269   4.410   9.202 -0.0021 -1.0150 -0.4937
 4868TIP3   OH238798   4.603   0.334   9.890 -0.3716 -0.1962 -0.3421
 4868TIP3    H138799   4.538   0.282   9.843 -1.3569 -0.9062  1.6919
 4868TIP3    H238800   4.670   0.353   9.825 -0.8390 -2.5489 -1.6329
 4869TIP3   OH238801   2.955   1.939  10.858 -0.0061  1.0489  0.0411
 4869TIP3    H138802   3.017   2.002  10.894  0.2151 -0.6723  2.9687
 4869TIP3    H238803   2.941   1.875  10.928 -2.6706 -0.4128 -1.6186
 4870TIP3   OH238804   0.106   2.514   9.232  0.2050 -0.0587 -0.2765
 4870TIP3    H138805   0.194   2.478   9.247 -0.4023 -1.5512 -0.0468
 4870TIP3    H238806   0.098   2.585   9.295  0.4112 -1.4384  1.3703
 4871TIP3   OH238807   0.461   0.302  10.937  0.5596  0.0702 -0.3178
 4871TIP3    H138808   0.411   0.305  11.018 -1.3523  0.0628 -1.4390
 4871TIP3    H238809   0.458   0.392  10.903 -0.6583 -0.3634 -1.4813
 4872TIP3   OH238810   0.938   5.940  12.422  0.8841  0.1266 -0.0090
 4872TIP3    H138811   0.943   5.898  12.508 -0.1720 -1.0584 -0.4830
 4872TIP3    H238812   1.022   5.985  12.412  0.1742  2.3062  2.6030
 4873TIP3   OH238813   1.715   4.527  11.974 -0.2221 -0.4790 -0.3970
 4873TIP3    H138814   1.789   4.521  12.035  0.9127 -0.9156 -1.7619
 4873TIP3    H238815   1.690   4.620  11.976 -1.3312 -0.7614  1.9520
 4874TIP3   OH238816   6.602   2.837  10.100  0.0318  0.3539 -0.1888
 4874TIP3    H138817   6.526   2.797  10.059  0.0267  2.1447 -2.1028
 4874TIP3    H238818   6.566   2.887  10.174 -0.2311 -1.1365  0.7323
 4875TIP3   OH238819   3.705   2.308  11.874  0.0609  0.6353 -0.1236
 4875TIP3    H138820   3.638   2.309  11.805  0.2600  0.5779 -0.3199
 4875TIP3    H238821   3.655   2.303  11.955 -0.1594 -0.1373 -0.2980
 4876TIP3   OH238822   3.158   1.976  11.417  0.1923  0.2926  0.2074
 4876TIP3    H138823   3.245   1.943  11.436  0.0655  0.3280  0.8988
 4876TIP3    H238824   3.169   2.031  11.340  0.6553 -0.2422 -0.1113
 4877TIP3   OH238825   0.986   1.752  10.815 -0.0440 -0.3354 -0.4400
 4877TIP3    H138826   0.990   1.757  10.910  0.0855 -0.5999 -0.4313
 4877TIP3    H238827   0.903   1.708  10.797 -0.8428  1.1348 -0.4960
 4878TIP3   OH238828   6.269   2.319  10.978  0.1707 -0.1297  0.5136
 4878TIP3    H138829   6.321   2.387  10.934  0.2368  0.8611  2.0525
 4878TIP3    H238830   6.227   2.364  11.051 -2.1583 -1.1099 -0.1330
 4879TIP3   OH238831   6.297   6.372  10.649  0.2479 -0.7604 -0.8280
 4879TIP3    H138832   6.313   6.332  10.563 -1.2131 -1.1231 -0.9591
 4879TIP3    H238833   6.203   6.391  10.650  0.1695 -1.0385  0.7962
 4880TIP3   OH238834   4.179   1.212  10.981  0.3894 -0.4631  0.5888
 4880TIP3    H138835   4.185   1.236  11.073 -0.2166  1.3825  0.2046
 4880TIP3    H238836   4.269   1.191  10.955  0.7628  0.1918  1.3150
 4881TIP3   OH238837   6.562   2.927   9.372  0.1563  0.2244  0.3973
 4881TIP3    H138838   6.497   2.986   9.333 -0.2248 -0.1959  0.3865
 4881TIP3    H238839   6.641   2.980   9.379  0.3082  0.2519 -1.1849
 4882TIP3   OH238840   2.204   1.876  10.655 -0.1144 -0.2169 -0.1060
 4882TIP3    H138841   2.136   1.927  10.699 -1.7289 -0.9810 -1.6170
 4882TIP3    H238842   2.176   1.871  10.564  0.7929 -2.4469 -0.3262
 4883TIP3   OH238843   3.090   4.905  12.000 -0.3859  0.2147 -0.3826
 4883TIP3    H138844   3.004   4.939  12.024  0.2163  1.7660 -0.3283
 4883TIP3    H238845   3.100   4.825  12.053 -1.7786 -0.0087 -0.4131
 4884TIP3   OH238846   1.881   3.298   8.809 -0.3362 -0.7803 -0.2066
 4884TIP3    H138847   1.931   3.257   8.879  1.2049 -1.3215 -1.5624
 4884TIP3    H238848   1.834   3.226   8.767  0.5587 -0.8397 -1.1458
 4885TIP3   OH238849   2.854   0.207  10.933 -0.6480 -0.1020 -0.4911
 4885TIP3    H138850   2.942   0.239  10.951 -0.2240 -1.9050  0.8622
 4885TIP3    H238851   2.798   0.283  10.949  0.5226  0.6922 -0.0211
 4886TIP3   OH238852   2.019   6.405   8.879 -0.1512 -0.5174  0.1101
 4886TIP3    H138853   2.046   6.439   8.964 -0.9680 -0.2464  0.2735
 4886TIP3    H238854   1.953   6.467   8.849  0.1987 -0.5620 -0.7707
 4887TIP3   OH238855   2.860   1.468  10.535 -0.3971 -0.2566  0.4534
 4887TIP3    H138856   2.895   1.556  10.520 -1.3909  0.3206  1.3569
 4887TIP3    H238857   2.766   1.477  10.519 -0.3215 -1.5335 -0.9606
 4888TIP3   OH238858   5.734   4.140  10.643 -0.6399 -0.4446 -0.6026
 4888TIP3    H138859   5.733   4.221  10.695  0.4922 -0.0480 -1.1774
 4888TIP3    H238860   5.744   4.169  10.553  3.3766 -1.2450 -0.5772
 4889TIP3   OH238861   4.918   4.224  11.762  0.2644 -0.6234  0.0098
 4889TIP3    H138862   4.905   4.301  11.817  0.8969 -0.5335  0.0415
 4889TIP3    H238863   4.978   4.168  11.811  0.2214 -0.8984 -0.2428
 4890TIP3   OH238864   3.232   4.547  11.828  0.2014  0.2450  0.6442
 4890TIP3    H138865   3.259   4.507  11.745 -0.6843 -0.1088  0.5157
 4890TIP3    H238866   3.314   4.565  11.873  0.6674 -3.2411  1.4647
 4891TIP3   OH238867   2.666   3.510  10.623  0.0331 -0.3651 -0.4477
 4891TIP3    H138868   2.742   3.568  10.618  0.4674 -0.9537 -0.7174
 4891TIP3    H238869   2.660   3.471  10.536 -0.7333 -0.1366 -0.5041
 4892TIP3   OH238870   1.750   4.235  11.548 -0.2937  0.1949 -0.0531
 4892TIP3    H138871   1.749   4.146  11.513  0.5916 -0.0289  0.4635
 4892TIP3    H238872   1.660   4.266  11.536 -0.3139 -0.3029 -1.3918
 4893TIP3   OH238873   6.291   3.293   9.885 -0.4290 -0.3991 -0.1760
 4893TIP3    H138874   6.314   3.362   9.947  1.7954 -0.2242 -1.0917
 4893TIP3    H238875   6.369   3.238   9.880 -1.1745 -1.4064 -1.5205
 4894TIP3   OH238876   5.256   2.103  11.907  0.2069 -0.4595 -0.1245
 4894TIP3    H138877   5.164   2.121  11.925  0.4716  0.9349 -0.0958
 4894TIP3    H238878   5.305   2.162  11.965  1.1210 -1.1701 -0.1485
 4895TIP3   OH238879   6.479   3.394   9.042  0.0688  0.0718 -0.2892
 4895TIP3    H138880   6.522   3.391   8.957  0.7290  2.1527 -0.0892
 4895TIP3    H238881   6.533   3.454   9.094 -1.1928  0.0776  1.0831
 4896TIP3   OH238882   5.397   3.774  10.837 -0.0823  0.5963  0.1517
 4896TIP3    H138883   5.460   3.737  10.776 -0.7678 -0.6169  0.1381
 4896TIP3    H238884   5.421   3.866  10.844 -0.3978  0.9688 -2.4965
 4897TIP3   OH238885   5.224   1.883  10.568  0.4424 -0.3207 -0.0282
 4897TIP3    H138886   5.130   1.868  10.577 -0.0010  2.5106  0.8552
 4897TIP3    H238887   5.254   1.902  10.657  0.9932  2.8033 -0.7698
 4898TIP3   OH238888   3.041   0.734  11.128 -0.5589 -0.1294  0.1610
 4898TIP3    H138889   3.032   0.787  11.207  0.3641 -0.4228  0.4728
 4898TIP3    H238890   3.082   0.652  11.159  0.9845  0.2474 -0.8029
 4899TIP3   OH238891   6.095   5.685   9.627  0.3277 -0.0210 -0.1792
 4899TIP3    H138892   6.183   5.684   9.662  0.4408 -0.1527 -0.4620
 4899TIP3    H238893   6.103   5.645   9.540 -0.6898 -4.0844  1.3703
 4900TIP3   OH238894   6.236   2.753  10.498  0.6084  0.4582  0.2500
 4900TIP3    H138895   6.277   2.827  10.543  0.0658  1.0406 -0.2080
 4900TIP3    H238896   6.151   2.744  10.540  1.9284 -2.1468  2.7427
 4901TIP3   OH238897   6.095   1.244  11.925  0.0704 -0.2203  0.0908
 4901TIP3    H138898   6.014   1.194  11.913  0.5249 -0.8978 -0.2567
 4901TIP3    H238899   6.129   1.215  12.009  0.0215 -0.0453  0.1708
 4902TIP3   OH238900   2.203   6.565   9.978  0.0686  0.7170 -0.1003
 4902TIP3    H138901   2.191   6.648   9.931 -0.6077  1.0344  0.6048
 4902TIP3    H238902   2.150   6.502   9.929 -0.9103  1.1211  0.4062
 4903TIP3   OH238903   3.632   3.902  11.152 -0.3316 -0.4940 -0.3586
 4903TIP3    H138904   3.624   3.961  11.077 -0.4940 -0.8199 -0.5980
 4903TIP3    H238905   3.549   3.911  11.199 -0.4485 -0.7063 -0.5237
 4904TIP3   OH238906   0.003   1.919  11.603  0.3303  0.1289 -1.0377
 4904TIP3    H138907   0.009   1.939  11.696 -1.2708 -0.2903 -0.7993
 4904TIP3    H238908  -0.028   1.828  11.601 -0.7315  0.4838 -1.9282
 4905TIP3   OH238909   6.234   4.111  10.223  0.6773 -0.3275  0.5578
 4905TIP3    H138910   6.266   4.131  10.311  1.0010 -0.4282  0.4647
 4905TIP3    H238911   6.228   4.196  10.179  2.5276 -0.4322 -0.0001
 4906TIP3   OH238912   5.160   4.766  10.148  0.1852  0.4188 -0.2812
 4906TIP3    H138913   5.210   4.717  10.083 -1.1238 -1.3003 -0.0567
 4906TIP3    H238914   5.175   4.858  10.126  0.7712 -0.1081 -2.2358
 4907TIP3   OH238915   1.523   1.930   9.009 -0.3783 -0.0590  0.3873
 4907TIP3    H138916   1.441   1.978   8.996 -0.0400  0.7070  1.0334
 4907TIP3    H238917   1.588   1.998   9.026  0.2067 -0.7250  0.8418
 4908TIP3   OH238918   1.035   5.785  10.331  0.7015 -0.5434 -0.5592
 4908TIP3    H138919   1.087   5.865  10.345  0.7437 -0.8566  1.3838
 4908TIP3    H238920   1.101   5.715  10.325  0.6093 -0.9881  2.2452
 4909TIP3   OH238921   1.927   0.850  11.316 -0.0134 -0.4737 -0.3798
 4909TIP3    H138922   1.983   0.803  11.254 -0.2215  0.7229 -1.5127
 4909TIP3    H238923   1.925   0.940  11.284 -1.5359 -0.1956  0.3697
 4910TIP3   OH238924   5.514   0.557  10.334  0.7195 -0.1058 -0.5435
 4910TIP3    H138925   5.515   0.620  10.262 -2.4334  1.2621  0.4642
 4910TIP3    H238926   5.433   0.508  10.322  1.4744 -1.7177  0.5867
 4911TIP3   OH238927   3.968   3.022  10.549 -0.2593  0.3596  0.1497
 4911TIP3    H138928   3.902   3.043  10.483  1.1706  2.1650 -0.8199
 4911TIP3    H238929   3.959   3.090  10.615 -0.2955 -0.2262  0.7602
 4912TIP3   OH238930   5.168   1.144   8.591  0.0201 -0.0840  0.1614
 4912TIP3    H138931   5.141   1.185   8.509  0.3861  0.8046  0.4806
 4912TIP3    H238932   5.093   1.153   8.649  0.2443  0.4890  0.3609
 4913TIP3   OH238933   0.056   3.756   9.684 -0.2234 -0.2981  0.0121
 4913TIP3    H138934   0.092   3.828   9.735 -1.0657 -0.3100  0.6599
 4913TIP3    H238935   0.132   3.711   9.647  0.2805  1.4330 -1.1472
 4914TIP3   OH238936   1.056   1.635  11.060 -0.8598  0.3328 -0.1436
 4914TIP3    H138937   1.092   1.579  11.129 -1.3149 -2.2344 -1.8474
 4914TIP3    H238938   0.962   1.637  11.078 -0.9888 -0.4005 -0.6906
 4915TIP3   OH238939   0.401   4.833  11.478  0.1270 -0.3754 -0.4081
 4915TIP3    H138940   0.378   4.742  11.458 -0.3370 -0.4258  0.3282
 4915TIP3    H238941   0.347   4.885  11.419  1.1347 -0.5809 -1.5630
 4916TIP3   OH238942   0.516   1.267  10.976  0.0708  0.0771 -0.3084
 4916TIP3    H138943   0.494   1.191  10.922 -0.9556 -1.2373  1.8304
 4916TIP3    H238944   0.502   1.342  10.919  0.1968 -1.2748 -2.2030
 4917TIP3   OH238945   4.797   1.598   8.804  0.1800 -0.2434 -0.0368
 4917TIP3    H138946   4.800   1.504   8.786 -0.3313 -0.2768  0.0313
 4917TIP3    H238947   4.777   1.603   8.898  1.0319 -0.0683  0.1426
 4918TIP3   OH238948   4.934   5.808  11.574  0.1387 -0.0291  0.8696
 4918TIP3    H138949   4.963   5.730  11.527 -0.3876  0.3321 -0.0799
 4918TIP3    H238950   5.015   5.856  11.593  0.2634  0.7428 -1.3587
 4919TIP3   OH238951   1.196   4.453  11.397  0.5239 -0.0361  0.2715
 4919TIP3    H138952   1.186   4.396  11.473 -0.8431  0.8529  0.7842
 4919TIP3    H238953   1.277   4.502  11.416  0.4814 -0.1929  0.8962
 4920TIP3   OH238954   4.578   2.657  11.171 -0.5040 -0.0900  0.6764
 4920TIP3    H138955   4.617   2.654  11.084 -1.4437 -1.5720  0.2728
 4920TIP3    H238956   4.549   2.567  11.187 -0.6181  0.2280  2.4000
 4921TIP3   OH238957   2.191   3.519  10.798 -0.0382  0.2651 -0.0559
 4921TIP3    H138958   2.273   3.469  10.800 -0.0229  0.2990  1.0264
 4921TIP3    H238959   2.218   3.608  10.775  0.3090  0.3905  0.7873
 4922TIP3   OH238960   6.681   0.528   9.057  0.3103  0.3742  0.5498
 4922TIP3    H138961   6.722   0.599   9.008 -1.4951  0.2733 -1.2276
 4922TIP3    H238962   6.654   0.465   8.990 -0.0118 -1.0090  1.9167
 4923TIP3   OH238963   6.386   3.403  11.978  0.3295 -0.1856  0.2028
 4923TIP3    H138964   6.337   3.378  11.900  1.3547 -0.2853 -0.4314
 4923TIP3    H238965   6.327   3.461  12.026  0.0061  0.6201 -1.1141
 4924TIP3   OH238966   2.456   1.025   9.983  0.5172 -0.4606 -0.4454
 4924TIP3    H138967   2.433   0.933   9.997  0.7506 -0.2471  1.8077
 4924TIP3    H238968   2.545   1.032  10.018  0.5488  0.6011 -0.7185
 4925TIP3   OH238969   0.066   4.133  10.968  0.1458 -0.2158  0.0428
 4925TIP3    H138970   0.067   4.227  10.953  0.5069 -0.2772 -0.3506
 4925TIP3    H238971   0.139   4.117  11.028 -1.3497  0.0397  1.9973
 4926TIP3   OH238972   0.180   3.793  11.109 -0.6104 -0.2266 -0.1533
 4926TIP3    H138973   0.123   3.769  11.182 -2.0174 -0.6848 -1.3383
 4926TIP3    H238974   0.173   3.888  11.103 -2.4968 -0.3819 -1.1890
 4927TIP3   OH238975   2.349   3.432  11.918 -0.3594 -0.0564  0.1972
 4927TIP3    H138976   2.379   3.510  11.965 -0.1254 -0.7123  1.1574
 4927TIP3    H238977   2.427   3.397  11.877 -0.1103 -0.7928  1.2688
 4928TIP3   OH238978   2.265   3.240  10.972 -1.3179  0.0461 -0.2307
 4928TIP3    H138979   2.233   3.258  11.061 -0.6304 -1.3286  0.3275
 4928TIP3    H238980   2.204   3.176  10.937 -1.4074  0.3525 -0.6404
 4929TIP3   OH238981   4.183   2.276  11.822  0.4885  0.6871 -0.3288
 4929TIP3    H138982   4.156   2.328  11.746  1.1188  0.8088 -0.4734
 4929TIP3    H238983   4.143   2.320  11.897  0.9572  1.3409 -0.4565
 4930TIP3   OH238984   6.314   0.585  11.751  0.1461  0.3991 -0.1952
 4930TIP3    H138985   6.268   0.652  11.802  0.7170  0.8238 -0.2378
 4930TIP3    H238986   6.343   0.521  11.817 -2.0388 -0.8455 -0.3197
 4931TIP3   OH238987   2.296   0.640  12.293  0.6085  0.3540  0.2703
 4931TIP3    H138988   2.320   0.669  12.206  0.1467 -1.7576 -0.6353
 4931TIP3    H238989   2.292   0.720  12.346  0.9078  1.6735 -1.6259
 4932TIP3   OH238990   5.986   0.485  11.250 -0.1619 -0.3743  0.0299
 4932TIP3    H138991   6.015   0.517  11.165  0.1668  1.4860  0.8080
 4932TIP3    H238992   5.924   0.415  11.229  2.0550 -1.9894 -1.6990
 4933TIP3   OH238993   2.690   5.638  11.858 -0.0317 -0.0720  0.1434
 4933TIP3    H138994   2.627   5.673  11.796  0.4809 -1.6011 -1.3181
 4933TIP3    H238995   2.651   5.556  11.888  1.6947 -1.6930 -1.7348
 4934TIP3   OH238996   0.752   2.822  11.698 -0.4966  0.0009  0.0268
 4934TIP3    H138997   0.707   2.751  11.743 -0.6128 -0.6179 -1.0216
 4934TIP3    H238998   0.831   2.836  11.749  0.5649 -2.2910 -0.8269
 4935TIP3   OH238999   2.989   4.240   8.959  0.0393  0.2187  1.1781
 4935TIP3    H139000   2.951   4.322   8.926 -0.4422 -1.2332 -2.3918
 4935TIP3    H239001   3.082   4.260   8.970  0.4825  0.7574 -2.2623
 4936TIP3   OH239002   5.691   1.569  11.235  0.1576  0.2671  0.1315
 4936TIP3    H139003   5.705   1.543  11.144 -0.5606 -0.9071  0.3349
 4936TIP3    H239004   5.724   1.659  11.239  2.5288 -0.4771 -0.6727
 4937TIP3   OH239005   6.469   2.879  10.841  0.3917 -0.0785  0.0699
 4937TIP3    H139006   6.439   2.847  10.926  3.0441  0.6723  1.3996
 4937TIP3    H239007   6.479   2.973  10.852  2.1669 -0.1469 -0.5328
 4938TIP3   OH239008   5.503   1.950  11.199 -0.0881 -0.6247  0.2438
 4938TIP3    H139009   5.595   1.943  11.172 -0.0407  0.8128 -0.0384
 4938TIP3    H239010   5.496   1.892  11.275  1.6810  1.0274  1.7838
 4939TIP3   OH239011   0.707   0.431  11.096 -0.1685 -0.6102  0.2649
 4939TIP3    H139012   0.770   0.364  11.123 -0.0757 -0.3160  0.8084
 4939TIP3    H239013   0.736   0.458  11.009  2.3289  1.6789  1.6321
 4940TIP3   OH239014   4.698   2.295  11.964  0.4253  0.1892  0.1595
 4940TIP3    H139015   4.656   2.274  11.880  1.7333  0.5539 -0.6059
 4940TIP3    H239016   4.653   2.374  11.994 -0.7925 -0.5538  0.3579
 4941TIP3   OH239017   1.571   2.228   9.527 -0.1545  0.2195 -0.5983
 4941TIP3    H139018   1.652   2.277   9.514  0.1718 -0.1852 -0.1323
 4941TIP3    H239019   1.597   2.151   9.578 -0.7694 -0.1012 -0.7555
 4942TIP3   OH239020   0.189   2.072   9.955  0.4323  0.0940 -0.1420
 4942TIP3    H139021   0.173   2.092  10.047 -0.2635 -0.0245 -0.2334
 4942TIP3    H239022   0.113   2.108   9.909 -0.0977 -1.3802 -0.4711
 4943TIP3   OH239023   0.529   0.530   8.857 -0.2181  0.2515  0.2386
 4943TIP3    H139024   0.437   0.525   8.883 -0.4553 -0.4129 -0.6677
 4943TIP3    H239025   0.577   0.536   8.939 -1.0710  0.5661  0.7224
 4944TIP3   OH239026   2.318   5.238  11.511 -0.1787 -0.1522 -0.1329
 4944TIP3    H139027   2.223   5.245  11.499 -0.2020 -1.7918 -1.2798
 4944TIP3    H239028   2.333   5.260  11.602 -1.7885 -0.7626  0.3047
 4945TIP3   OH239029   0.936   6.137  11.085 -0.0083 -0.3655  0.4903
 4945TIP3    H139030   0.967   6.053  11.118 -0.2788 -1.3828 -1.6421
 4945TIP3    H239031   0.899   6.117  10.999  1.6079  2.2125 -0.9591
 4946TIP3   OH239032   0.683   4.078   8.480 -0.0525 -0.3321 -0.2519
 4946TIP3    H139033   0.704   3.986   8.464  1.8445 -0.2781  1.5136
 4946TIP3    H239034   0.730   4.126   8.411  1.3912 -0.5440  0.5566
 4947TIP3   OH239035   6.478   1.324  10.338  0.0301 -0.9678  0.1311
 4947TIP3    H139036   6.388   1.330  10.370 -0.7286 -3.2093 -1.3826
 4947TIP3    H239037   6.498   1.231  10.338  2.9396 -0.4798  1.7997
 4948TIP3   OH239038   0.613   3.768   9.669  0.3545  0.9921 -0.0261
 4948TIP3    H139039   0.643   3.786   9.758  0.7958 -0.2728  0.1044
 4948TIP3    H239040   0.519   3.756   9.676  0.7093 -2.4702  0.9572
 4949TIP3   OH239041   5.423   2.995  10.920  0.0346  0.4961 -0.1789
 4949TIP3    H139042   5.337   2.956  10.903  0.9180 -1.3277 -0.6493
 4949TIP3    H239043   5.418   3.027  11.010 -1.7255  2.1275 -0.7848
 4950TIP3   OH239044   3.233   0.484   9.953  0.1180  0.1601 -0.4183
 4950TIP3    H139045   3.182   0.504  10.031 -0.3230  0.3714 -0.7552
 4950TIP3    H239046   3.173   0.502   9.880  0.7337  0.6040 -0.8271
 4951TIP3   OH239047   1.335   0.659   8.379  0.7131 -0.2365  0.8029
 4951TIP3    H139048   1.281   0.723   8.333 -1.8553 -1.5526  1.8111
 4951TIP3    H239049   1.419   0.660   8.332 -0.0061  2.1922 -0.5799
 4952TIP3   OH239050   2.795   4.557   9.974  0.7523  0.0187 -0.3788
 4952TIP3    H139051   2.768   4.503   9.900 -0.4086 -0.9716  0.7153
 4952TIP3    H239052   2.888   4.575   9.959  0.5278 -0.1257 -2.0734
 4953TIP3   OH239053   5.549   3.858  10.065 -0.1525 -0.4106 -0.7855
 4953TIP3    H139054   5.598   3.857  10.147  2.2617 -3.3257 -2.1046
 4953TIP3    H239055   5.567   3.944  10.028  1.6905 -0.3707  0.0993
 4954TIP3   OH239056   1.355   1.362   8.557 -0.5926  0.4002  0.5905
 4954TIP3    H139057   1.304   1.322   8.627 -0.1847 -0.6955  0.2745
 4954TIP3    H239058   1.353   1.298   8.486 -0.7747  1.3816 -0.3052
 4955TIP3   OH239059   0.498   6.383  11.429  0.1211 -0.0348  0.2663
 4955TIP3    H139060   0.487   6.359  11.521  2.0040  0.0592  0.5567
 4955TIP3    H239061   0.583   6.427  11.426 -0.0646  0.2738 -1.4711
 4956TIP3   OH239062   0.567   0.773  10.198 -0.1610  0.0283 -0.3562
 4956TIP3    H139063   0.641   0.756  10.140 -1.8242 -2.5424 -1.9251
 4956TIP3    H239064   0.584   0.720  10.276  0.2119  0.4382 -0.1517
 4957TIP3   OH239065   5.408   1.671  11.076 -0.0922  0.6899  0.0578
 4957TIP3    H139066   5.493   1.634  11.054 -0.8681 -1.3220  0.1861
 4957TIP3    H239067   5.403   1.664  11.172 -0.2198  1.2415  0.0952
 4958TIP3   OH239068   5.215   2.513  10.360  0.4467  0.1033 -0.0325
 4958TIP3    H139069   5.289   2.470  10.317 -0.6217 -1.6537 -0.2062
 4958TIP3    H239070   5.191   2.453  10.431 -0.8749  0.5800 -0.0478
 4959TIP3   OH239071   4.179   0.946   8.963  0.6635  0.5646  0.2321
 4959TIP3    H139072   4.115   0.888   9.005  0.5512  0.0626 -0.6193
 4959TIP3    H239073   4.126   1.007   8.911  0.8173  0.9765  0.5511
 4960TIP3   OH239074   2.534   4.158   8.872  0.2111 -0.1654  0.2259
 4960TIP3    H139075   2.581   4.075   8.867  0.0629 -0.2466  0.1914
 4960TIP3    H239076   2.520   4.173   8.965  0.2722 -0.1591  0.2341
 4961TIP3   OH239077   6.397   4.641   8.739 -0.5894  0.9607 -0.3242
 4961TIP3    H139078   6.333   4.571   8.732 -0.9944  0.7352  3.4537
 4961TIP3    H239079   6.481   4.597   8.741 -0.7583  0.6489  0.6238
 4962TIP3   OH239080   0.144   3.910   9.383  1.1348 -1.0424  0.1746
 4962TIP3    H139081   0.115   3.988   9.430  3.1463 -0.9348  1.3738
 4962TIP3    H239082   0.071   3.888   9.326 -0.4071  0.3482  1.4918
 4963TIP3   OH239083   1.977   4.374  10.454  0.6369 -0.0085  0.3042
 4963TIP3    H139084   1.913   4.373  10.383  2.3091  2.0998 -1.3458
 4963TIP3    H239085   1.940   4.315  10.520 -1.7399 -0.8286 -1.6193
 4964TIP3   OH239086   4.359   4.393  11.958  0.3783  0.4406 -0.2074
 4964TIP3    H139087   4.374   4.422  12.048 -0.5632  0.2722  0.0135
 4964TIP3    H239088   4.267   4.370  11.955  0.7309 -1.0095 -0.8041
 4965TIP3   OH239089   3.691   1.855  10.991  0.2179 -0.5204  0.2522
 4965TIP3    H139090   3.725   1.872  11.079  0.2585  0.5109  0.0415
 4965TIP3    H239091   3.761   1.805  10.948  1.0106  0.6183  0.1893
 4966TIP3   OH239092   1.245   3.768   9.134  0.0099 -0.1307 -0.0387
 4966TIP3    H139093   1.312   3.704   9.109 -1.6386 -1.1655 -2.1250
 4966TIP3    H239094   1.263   3.845   9.079  0.2059  0.0542  0.2833
 4967TIP3   OH239095   0.630   3.858  10.248  0.3250 -0.5334  0.0515
 4967TIP3    H139096   0.586   3.943  10.246 -1.6656 -1.5374 -1.3935
 4967TIP3    H239097   0.708   3.871  10.194 -0.5821  0.0788 -1.1530
 4968TIP3   OH239098   3.178   2.157   9.162 -0.0480  0.0498  0.0417
 4968TIP3    H139099   3.138   2.073   9.183 -1.1788  0.6437  0.3062
 4968TIP3    H239100   3.105   2.218   9.152  0.7752  1.1511  0.4629
 4969TIP3   OH239101   5.517   6.420  11.027  0.0837  0.1837 -0.3455
 4969TIP3    H139102   5.575   6.371  11.086  0.6313 -0.8633 -1.6879
 4969TIP3    H239103   5.499   6.502  11.074 -0.6724 -1.1533  1.8864
 4970TIP3   OH239104   5.007   3.124  11.638  0.3681  0.0924 -0.0541
 4970TIP3    H139105   4.948   3.193  11.608  1.4873  1.7972  1.4149
 4970TIP3    H239106   5.045   3.159  11.719  2.9361 -1.1303 -0.6256
 4971TIP3   OH239107   4.465   1.752  12.366 -0.0948 -0.3570  0.0580
 4971TIP3    H139108   4.416   1.671  12.378  1.1951 -0.7201  5.2358
 4971TIP3    H239109   4.421   1.816  12.422  3.3269  0.0524  2.6671
 4972TIP3   OH239110   1.919   2.602   9.713  0.1692 -0.5227 -0.3367
 4972TIP3    H139111   1.955   2.667   9.773 -2.0991  1.6358 -1.1425
 4972TIP3    H239112   1.994   2.549   9.688  2.2591  2.0027  0.0955
 4973TIP3   OH239113   4.673   6.289  10.553  0.2096  0.5838 -0.0130
 4973TIP3    H139114   4.736   6.333  10.611 -0.4502  0.2874  0.9481
 4973TIP3    H239115   4.648   6.210  10.601 -0.5064  0.4388 -0.6143
 4974TIP3   OH239116   6.217   5.295  11.733  0.6820 -0.0633 -0.3600
 4974TIP3    H139117   6.295   5.243  11.715  1.0578 -0.2890  1.6203
 4974TIP3    H239118   6.144   5.241  11.703  1.2315 -0.2756 -1.3343
 4975TIP3   OH239119   0.485   2.792   9.189 -0.2304  0.0553 -0.1824
 4975TIP3    H139120   0.523   2.798   9.276 -0.0870 -3.5132  0.1539
 4975TIP3    H239121   0.559   2.767   9.133 -0.9553 -1.2244 -0.6031
 4976TIP3   OH239122   1.390   2.229  10.616  0.3445  0.2376 -0.2742
 4976TIP3    H139123   1.384   2.299  10.681 -1.7264 -1.3992  1.4507
 4976TIP3    H239124   1.467   2.178  10.642  0.7899  0.8004 -0.4577
 4977TIP3   OH239125   2.740   1.881   9.616 -0.7072 -0.1037 -0.1006
 4977TIP3    H139126   2.675   1.885   9.686  1.3753  0.6097  1.9269
 4977TIP3    H239127   2.771   1.790   9.618 -0.4713 -0.0198  0.0839
 4978TIP3   OH239128   3.945   5.752  10.242 -0.6436  0.2925 -0.3562
 4978TIP3    H139129   3.966   5.820  10.306  1.5346 -0.0322 -0.6319
 4978TIP3    H239130   3.875   5.702  10.282 -1.7690  2.2019  0.1973
 4979TIP3   OH239131   6.168   3.755   8.588  0.2942 -0.7036 -0.2899
 4979TIP3    H139132   6.147   3.780   8.678 -1.6017 -1.7768 -0.3659
 4979TIP3    H239133   6.223   3.678   8.597  2.7275  0.9338 -0.0964
 4980TIP3   OH239134   3.976   6.601  11.320 -0.6095  0.0678  0.0633
 4980TIP3    H139135   4.070   6.606  11.340 -0.4811  0.9057 -0.6973
 4980TIP3    H239136   3.973   6.576  11.227 -1.1522 -0.4114  0.2042
 4981TIP3   OH239137   4.497   5.102  10.498 -0.1989  0.2824 -0.0537
 4981TIP3    H139138   4.407   5.093  10.530  0.5850 -1.4459  1.8341
 4981TIP3    H239139   4.488   5.148  10.415 -2.9293 -0.8294 -0.4679
 4982TIP3   OH239140   4.872   2.189  10.164  0.3707 -0.0348 -0.5298
 4982TIP3    H139141   4.783   2.214  10.191  0.3191  0.8359 -1.4553
 4982TIP3    H239142   4.926   2.204  10.242  0.1643  2.0629 -0.7377
 4983TIP3   OH239143   5.727   3.306   8.224 -0.3152 -0.4961 -0.2272
 4983TIP3    H139144   5.805   3.276   8.270 -0.5393 -0.3111  0.2822
 4983TIP3    H239145   5.664   3.234   8.234 -0.5526 -0.2251  0.2335
 4984TIP3   OH239146   1.682   4.069  11.122  0.0208  0.2237  0.0239
 4984TIP3    H139147   1.660   3.976  11.121  0.4083  0.1354 -0.9988
 4984TIP3    H239148   1.680   4.096  11.031  1.5817  0.8137  0.1226
 4985TIP3   OH239149   2.993   1.292   9.180  0.5842  0.0068  0.0647
 4985TIP3    H139150   3.058   1.353   9.143  1.9537 -1.6111 -0.3300
 4985TIP3    H239151   2.914   1.345   9.191  1.3446  1.5491 -1.4063
 4986TIP3   OH239152   4.606   2.361  11.535  0.2345  0.2178  0.0021
 4986TIP3    H139153   4.553   2.328  11.607 -0.9040  0.5335 -0.6509
 4986TIP3    H239154   4.542   2.401  11.475  0.9892 -0.9490 -1.6858
 4987TIP3   OH239155   6.205   4.483   9.395 -0.2093 -0.0249  0.1553
 4987TIP3    H139156   6.121   4.438   9.404 -0.0087 -0.4684 -0.1041
 4987TIP3    H239157   6.187   4.557   9.338 -0.6222  0.4466  0.8707
 4988TIP3   OH239158   0.985   3.720  10.688  0.2217 -0.1450 -0.5751
 4988TIP3    H139159   1.017   3.804  10.653  0.5794 -0.3946 -0.8619
 4988TIP3    H239160   0.897   3.711  10.650  0.4807 -0.2594 -1.1660
 4989TIP3   OH239161   0.451   4.834  11.044  0.0875  0.3533  0.6132
 4989TIP3    H139162   0.370   4.819  11.093 -1.5979  2.8127 -1.1288
 4989TIP3    H239163   0.479   4.922  11.070  1.3467  0.1395  0.0503
 4990TIP3   OH239164   5.072   2.756   9.829  0.8521  0.1461 -0.0141
 4990TIP3    H139165   5.115   2.737   9.912  0.3830 -3.3362 -0.3943
 4990TIP3    H239166   5.030   2.673   9.804 -1.7980  1.9482 -2.1464
 4991TIP3   OH239167   0.159   5.801  11.144 -0.3922  0.1857  0.3672
 4991TIP3    H139168   0.218   5.726  11.159  1.0212  1.3407  0.8405
 4991TIP3    H239169   0.114   5.813  11.227  0.6925  0.9286  0.8698
 4992TIP3   OH239170   5.404   0.447   9.187  0.1235 -0.3207  0.3195
 4992TIP3    H139171   5.393   0.514   9.255  0.7152  0.0567  0.0503
 4992TIP3    H239172   5.326   0.392   9.195 -1.5179  1.6562 -0.8609
 4993TIP3   OH239173   4.404   6.380  10.524 -0.3239 -0.8302  0.3066
 4993TIP3    H139174   4.404   6.440  10.599 -0.1341 -0.7696  0.2591
 4993TIP3    H239175   4.493   6.343  10.523 -0.0586 -0.1884 -0.4000
 4994TIP3   OH239176   5.141   4.837   9.242  0.4743 -0.0140  0.2229
 4994TIP3    H139177   5.055   4.877   9.229  0.7014  1.2227  2.1290
 4994TIP3    H239178   5.123   4.761   9.298  0.4340 -0.7706 -0.7971
 4995TIP3   OH239179   0.111   1.724  11.893 -0.1698 -0.7170  0.0030
 4995TIP3    H139180   0.048   1.685  11.832  2.0907 -2.3037 -1.4569
 4995TIP3    H239181   0.107   1.818  11.875 -0.6385 -1.0052 -1.5599
 4996TIP3   OH239182   3.959   6.495   9.638 -0.4517 -0.1808 -0.2342
 4996TIP3    H139183   3.917   6.537   9.713 -0.3056  0.8648 -0.7180
 4996TIP3    H239184   3.894   6.431   9.607 -0.8987  0.0604  0.1902
 4997TIP3   OH239185   1.148   4.346  12.151  0.2058  0.4823  0.3684
 4997TIP3    H139186   1.060   4.312  12.167 -0.1896 -0.7232 -3.3875
 4997TIP3    H239187   1.134   4.422  12.094  1.5767  1.8574  1.7460
 4998TIP3   OH239188   3.686   0.461  12.038 -0.0797 -0.2114  0.2105
 4998TIP3    H139189   3.778   0.453  12.065  0.0690 -1.3231 -0.5740
 4998TIP3    H239190   3.638   0.414  12.106 -0.2544  1.6367  1.4475
 4999TIP3   OH239191   1.238   3.330  10.855  0.3815 -0.6105 -0.3763
 4999TIP3    H139192   1.189   3.367  10.783 -0.6031 -0.5807  0.2896
 4999TIP3    H239193   1.330   3.342  10.831  0.0729  0.4102 -1.1013
 5000TIP3   OH239194   2.171   0.783   9.986 -0.4317 -0.5169  0.0487
 5000TIP3    H139195   2.101   0.731   9.947 -0.1914  0.4095 -1.7362
 5000TIP3    H239196   2.240   0.782   9.919 -0.3189  1.8390  0.0725
 5001TIP3   OH239197   2.175   5.498  11.497 -0.3843 -0.3905 -0.2636
 5001TIP3    H139198   2.253   5.532  11.541 -1.4432  0.8261  0.7850
 5001TIP3    H239199   2.111   5.489  11.567 -1.7855  0.4930 -1.3851
 5002TIP3   OH239200   2.777   3.328  11.406 -0.4277  0.3519  0.1194
 5002TIP3    H139201   2.689   3.320  11.368 -0.0625  2.6870 -1.4928
 5002TIP3    H239202   2.833   3.279  11.346 -0.3971  0.4384  0.0774
 5003TIP3   OH239203   1.070   2.856  11.278  0.1580 -0.0403  0.2702
 5003TIP3    H139204   1.039   2.939  11.242  1.8621  0.1843 -0.8006
 5003TIP3    H239205   1.154   2.841  11.235 -0.7901 -3.1531 -0.8468
 5004TIP3   OH239206   2.011   5.826  10.052  0.1986 -0.8947 -0.2865
 5004TIP3    H139207   1.923   5.857  10.031  0.7997  0.4302 -0.9674
 5004TIP3    H239208   2.043   5.788   9.970  1.4970  1.7506 -1.1311
 5005TIP3   OH239209   4.958   4.121  10.562  0.1664  0.2097 -0.3946
 5005TIP3    H139210   5.050   4.105  10.540 -0.2033 -2.2023 -0.3700
 5005TIP3    H239211   4.962   4.176  10.641  1.5721 -0.0004 -0.2932
 5006TIP3   OH239212   3.607   1.114   9.170  0.1107  0.8668  0.8858
 5006TIP3    H139213   3.529   1.109   9.226  0.5834 -0.1369  1.4927
 5006TIP3    H239214   3.633   1.023   9.157  0.8265  1.1622  0.1774
 5007TIP3   OH239215   6.336   2.062  11.984  0.4712 -0.2384  0.2976
 5007TIP3    H139216   6.418   2.112  11.985  1.3883 -1.6310 -0.9267
 5007TIP3    H239217   6.289   2.094  11.908  0.5481 -0.4383  0.1639
 5008TIP3   OH239218   5.450   6.376   9.868 -0.0262  0.3613 -1.2359
 5008TIP3    H139219   5.510   6.311   9.905 -0.5432 -0.1085 -1.2176
 5008TIP3    H239220   5.386   6.325   9.819 -1.1131  0.7576 -0.2876
 5009TIP3   OH239221   4.403   0.737  11.111  0.6824 -0.2326  0.1679
 5009TIP3    H139222   4.436   0.821  11.143 -1.8534  1.1641 -0.6284
 5009TIP3    H239223   4.336   0.711  11.174 -1.8896  0.8095 -1.9207
 5010TIP3   OH239224   1.079   5.616   9.541  0.4557  0.0885 -0.0816
 5010TIP3    H139225   1.049   5.617   9.632  0.5406  0.8544 -0.0587
 5010TIP3    H239226   1.039   5.694   9.502  0.5037 -0.1814 -0.6741
 5011TIP3   OH239227   0.861   3.035  10.138 -0.0040  0.0646  0.0782
 5011TIP3    H139228   0.930   3.098  10.160  1.4703 -0.6230 -2.2409
 5011TIP3    H239229   0.868   3.024  10.043 -3.6160  0.2691 -0.3781
 5012TIP3   OH239230   0.280   2.795   9.027  0.6900 -0.0654 -0.9215
 5012TIP3    H139231   0.358   2.791   9.082  0.0772 -1.5158 -0.1230
 5012TIP3    H239232   0.219   2.849   9.076  0.4264 -0.7090 -0.5353
 5013TIP3   OH239233   6.261   3.226   8.987  0.8216  0.4420 -0.3310
 5013TIP3    H139234   6.335   3.285   8.974  0.8914  0.3525 -0.3378
 5013TIP3    H239235   6.231   3.206   8.898  2.4182 -1.6078 -0.4871
 5014TIP3   OH239236   6.232   4.150  12.478 -0.3124 -0.0692 -0.3885
 5014TIP3    H139237   6.263   4.237  12.453  2.9216 -1.3655 -1.4299
 5014TIP3    H239238   6.268   4.136  12.566 -2.5777  0.3635  0.6657
 5015TIP3   OH239239   1.571   3.316   8.923  0.3853  0.1870  0.0581
 5015TIP3    H139240   1.579   3.260   8.846  0.8884 -0.7057  0.7387
 5015TIP3    H239241   1.661   3.329   8.954  0.2132  0.7506  0.3443
 5016TIP3   OH239242   0.904   1.252  10.041 -0.4222 -0.0014 -0.0689
 5016TIP3    H139243   0.868   1.310  10.107  1.4604  0.5919  0.5110
 5016TIP3    H239244   0.943   1.310   9.975  0.4898 -0.5807 -0.0651
 5017TIP3   OH239245   3.054   4.301   9.706  0.4002  0.0313 -0.2980
 5017TIP3    H139246   3.049   4.298   9.611  1.9146 -0.2000 -0.4046
 5017TIP3    H239247   3.148   4.292   9.725 -0.0730 -2.2291  1.3074
 5018TIP3   OH239248   1.096   3.444  10.641  0.1234 -0.5444  0.7449
 5018TIP3    H139249   1.140   3.526  10.617  0.5708 -0.9146  0.3133
 5018TIP3    H239250   1.018   3.473  10.690  0.8406  0.1122  1.5240
 5019TIP3   OH239251   0.306   1.944  10.819  0.5777  0.3937  0.9616
 5019TIP3    H139252   0.218   1.938  10.783  0.2135  0.0681  1.8744
 5019TIP3    H239253   0.340   2.028  10.787 -1.0158  1.7563  2.6444
 5020TIP3   OH239254   1.767   2.731  10.687 -0.2626  0.0422 -0.3115
 5020TIP3    H139255   1.677   2.761  10.701 -0.5103 -0.0378 -1.6072
 5020TIP3    H239256   1.820   2.811  10.687 -0.4475  0.1649 -0.3772
 5021TIP3   OH239257   1.320   6.279  10.989  1.3062  0.5176 -0.5325
 5021TIP3    H139258   1.297   6.188  10.968 -0.6384  0.5152  1.2520
 5021TIP3    H239259   1.312   6.325  10.905 -1.5727 -0.2936 -0.8225
 5022TIP3   OH239260   0.819   0.530  10.761 -0.2331  0.2102  0.1667
 5022TIP3    H139261   0.911   0.519  10.736  0.6118  0.2691  2.9080
 5022TIP3    H239262   0.814   0.619  10.796 -1.1612 -0.0240  0.6665
 5023TIP3   OH239263   0.793   4.760   9.513  0.1362  0.1197 -0.3485
 5023TIP3    H139264   0.839   4.840   9.489  0.3531 -0.3601 -1.5845
 5023TIP3    H239265   0.713   4.790   9.555  0.4897  0.9697 -0.2576
 5024TIP3   OH239266   3.323   2.177   9.867 -0.0752 -0.0960  0.1974
 5024TIP3    H139267   3.403   2.193   9.817 -0.5185  1.3849 -0.0915
 5024TIP3    H239268   3.333   2.228   9.947 -0.3547 -0.6268  0.5838
 5025TIP3   OH239269   0.200   3.199  10.684 -0.6316  0.4304  0.0889
 5025TIP3    H139270   0.210   3.159  10.598  1.2275  0.3404  0.2945
 5025TIP3    H239271   0.148   3.136  10.734 -1.1872  0.1883 -0.7775
 5026TIP3   OH239272   1.188   1.211  10.663 -0.6695 -0.5221  0.0078
 5026TIP3    H139273   1.118   1.166  10.614  1.4520 -1.9763 -1.9202
 5026TIP3    H239274   1.233   1.141  10.710 -0.6649  0.4308  1.4766
 5027TIP3   OH239275   4.898   4.848  12.200  0.7279 -0.1375 -0.1492
 5027TIP3    H139276   4.892   4.881  12.110 -2.3583  0.6890  0.2572
 5027TIP3    H239277   4.865   4.758  12.194 -0.9025  0.3981  0.3207
 5028TIP3   OH239278   5.647   2.828   9.264  0.3465 -0.5614 -0.6128
 5028TIP3    H139279   5.607   2.745   9.291 -0.5266 -0.0627 -0.3278
 5028TIP3    H239280   5.727   2.835   9.316  0.4835 -1.2748 -0.7221
 5029TIP3   OH239281   1.647   2.050  10.635  0.2567 -0.1049  1.2987
 5029TIP3    H139282   1.631   2.069  10.728 -2.6885 -0.4495  0.9697
 5029TIP3    H239283   1.595   1.972  10.618 -1.7675  1.6484 -1.2866
 5030TIP3   OH239284   2.894   0.120   9.777 -0.1062  0.5142  0.2139
 5030TIP3    H139285   2.912   0.038   9.729 -1.1016  0.8539 -0.7674
 5030TIP3    H239286   2.857   0.091   9.860  3.5107 -0.1814  1.8045
 5031TIP3   OH239287   3.838   6.442  11.717 -0.2131  0.2628  0.4078
 5031TIP3    H139288   3.841   6.430  11.812 -0.6661 -0.3813  0.3488
 5031TIP3    H239289   3.852   6.355  11.681  0.1363  0.5334 -0.1252
 5032TIP3   OH239290   6.105   5.720  11.015  0.2036  0.2530 -0.6216
 5032TIP3    H139291   6.049   5.670  10.955  0.2514 -1.2044  0.4857
 5032TIP3    H239292   6.193   5.712  10.977  0.6180 -2.5200  0.6541
 5033TIP3   OH239293   3.626   3.305  10.046 -0.2385 -0.0522 -0.6187
 5033TIP3    H139294   3.674   3.245  10.102  1.8615  1.4394 -0.6709
 5033TIP3    H239295   3.686   3.324   9.974 -0.6298  2.3832 -0.3883
 5034TIP3   OH239296   3.655   4.912  12.036  0.1945 -0.0386 -0.0107
 5034TIP3    H139297   3.606   4.896  12.117 -0.5000  0.9093 -0.2181
 5034TIP3    H239298   3.590   4.947  11.976  1.2335  1.8410 -0.1118
 5035TIP3   OH239299   3.322   1.618  11.949 -0.4462 -0.4530 -0.0625
 5035TIP3    H139300   3.228   1.600  11.944 -0.4324 -0.6074  0.1753
 5035TIP3    H239301   3.339   1.624  12.043  0.0915 -2.1550 -0.0085
 5036TIP3   OH239302   5.420   3.680   9.156 -0.0915  0.5681  0.5112
 5036TIP3    H139303   5.368   3.707   9.232  0.0105  0.6593  0.5490
 5036TIP3    H239304   5.364   3.702   9.081 -0.5183 -0.2388  0.5879
 5037TIP3   OH239305   3.049   4.601  12.031 -0.4414  0.1595  0.3194
 5037TIP3    H139306   3.088   4.547  12.101 -0.5463 -0.8997 -0.4185
 5037TIP3    H239307   3.103   4.583  11.954 -1.1509  0.2672 -0.2130
 5038TIP3   OH239308   4.574   4.793  11.842 -0.5357  0.5812  0.6665
 5038TIP3    H139309   4.533   4.859  11.786  0.2016  1.3919  1.0824
 5038TIP3    H239310   4.644   4.839  11.888  0.9771 -0.8023 -0.1342
 5039TIP3   OH239311   1.756   5.929  10.033  0.4139  0.2073  0.0747
 5039TIP3    H139312   1.698   5.867   9.990 -0.7178  2.5207 -2.0017
 5039TIP3    H239313   1.741   5.914  10.126 -2.0961 -0.6082 -0.3606
 5040TIP3   OH239314   2.684   0.592   9.492  0.5508 -0.1107  0.5123
 5040TIP3    H139315   2.594   0.562   9.480  1.2886 -1.9804 -0.8355
 5040TIP3    H239316   2.712   0.618   9.404  1.4368  0.1950  0.8725
 5041TIP3   OH239317   3.920   6.038   8.801 -0.2887 -0.3885  0.0240
 5041TIP3    H139318   3.871   6.101   8.854  2.2952  0.6797  1.3471
 5041TIP3    H239319   3.923   5.959   8.855  2.2960  0.6821  1.6196
 5042TIP3   OH239320   6.307   5.068   8.643 -0.8153  0.0137 -0.2038
 5042TIP3    H139321   6.258   5.019   8.708 -2.2572 -0.3384 -1.4955
 5042TIP3    H239322   6.350   5.001   8.589 -0.0953  0.2850  0.0123
 5043TIP3   OH239323   5.123   1.269  10.925  0.2632  0.0156 -0.5062
 5043TIP3    H139324   5.151   1.296  10.837 -1.2968 -0.8866 -1.3264
 5043TIP3    H239325   5.044   1.321  10.942  1.4332  1.3858  1.0951
 5044TIP3   OH239326   2.261   5.364  10.430  0.6123 -0.0158 -0.4956
 5044TIP3    H139327   2.307   5.299  10.378  0.2593  0.4696 -1.4311
 5044TIP3    H239328   2.181   5.383  10.380 -0.0606 -0.0275  0.5447
 5045TIP3   OH239329   5.721   6.236   8.299  0.6641  0.4794  0.6104
 5045TIP3    H139330   5.657   6.225   8.369 -0.2377  1.0894 -0.0916
 5045TIP3    H239331   5.795   6.181   8.324 -0.4622 -0.8774  1.0425
 5046TIP3   OH239332   3.656   5.418  10.856  0.0172 -0.8514 -0.0901
 5046TIP3    H139333   3.719   5.489  10.866  0.0260 -0.6070 -1.6748
 5046TIP3    H239334   3.622   5.403  10.945 -0.2919  1.4106  0.2265
 5047TIP3   OH239335   0.497   4.232  12.213 -0.9343 -0.4885 -0.0622
 5047TIP3    H139336   0.478   4.220  12.120 -1.1501 -0.4653 -0.0240
 5047TIP3    H239337   0.513   4.326  12.222 -2.6154 -0.1927  0.2078
 5048TIP3   OH239338   1.925   1.935  11.198  0.9564 -0.1445  0.2366
 5048TIP3    H139339   2.019   1.950  11.188  1.2278 -0.9751  1.3158
 5048TIP3    H239340   1.911   1.848  11.162  0.5982 -0.0296  0.0984
 5049TIP3   OH239341   6.318   6.235  11.116  0.1115 -0.0145  0.2697
 5049TIP3    H139342   6.275   6.218  11.032  2.2185  2.0370 -1.3579
 5049TIP3    H239343   6.336   6.148  11.151 -1.1034 -0.9294 -1.2502
 5050TIP3   OH239344   0.824   0.183  11.247 -0.8875 -0.1695  0.7200
 5050TIP3    H139345   0.886   0.110  11.240 -0.1218  0.3981  1.3363
 5050TIP3    H239346   0.748   0.155  11.197 -0.5256 -1.3089  0.7769
 5051TIP3   OH239347   2.455   0.272   9.952 -0.0727  0.1929  0.0332
 5051TIP3    H139348   2.474   0.253  10.044  1.5863 -0.7111 -0.4618
 5051TIP3    H239349   2.401   0.352   9.954 -1.6876 -0.8629  1.8645
 5052TIP3   OH239350   4.708   2.531  10.133 -0.1107 -0.3072 -0.0885
 5052TIP3    H139351   4.768   2.479  10.187  0.3427  0.0666 -0.2284
 5052TIP3    H239352   4.644   2.467  10.102 -1.1394 -0.3154  1.9011
 5053TIP3   OH239353   2.087   4.553  11.700 -0.2389 -0.3187  0.1908
 5053TIP3    H139354   2.042   4.593  11.624 -1.1997 -2.1243 -0.2500
 5053TIP3    H239355   2.021   4.495  11.738  1.5745 -2.8584 -0.2893
 5054TIP3   OH239356   2.844   4.057   9.096  0.4194 -0.3390 -0.1278
 5054TIP3    H139357   2.774   4.099   9.147  1.6391  1.0191  0.4824
 5054TIP3    H239358   2.888   4.130   9.052  0.7566 -1.2935 -1.4282
 5055TIP3   OH239359   0.284   6.648  11.099  0.1795  0.1096 -0.6611
 5055TIP3    H139360   0.326   6.701  11.165 -0.0115 -0.7825  0.2026
 5055TIP3    H239361   0.235   6.582  11.148  1.1113 -1.4094 -1.6961
 5056TIP3   OH239362   6.112   2.088   8.934  0.3173  0.2040  0.7096
 5056TIP3    H139363   6.068   2.080   9.019 -1.2485  0.0159 -0.0754
 5056TIP3    H239364   6.063   2.028   8.877  1.3802  0.2810 -0.3136
 5057TIP3   OH239365   4.526   0.130  10.621  0.1354 -0.0811 -0.0455
 5057TIP3    H139366   4.540   0.081  10.540  1.2144 -0.1499  0.1725
 5057TIP3    H239367   4.488   0.213  10.592  1.9372  0.5201 -0.7894
 5058TIP3   OH239368   4.068   6.072  10.789  0.1328 -0.0432  0.8676
 5058TIP3    H139369   3.974   6.081  10.772  0.3428  0.5254 -0.1218
 5058TIP3    H239370   4.107   6.147  10.743  1.0866 -0.4124  1.0601
 5059TIP3   OH239371   3.454   5.007  11.221 -0.1785 -0.3322 -0.2866
 5059TIP3    H139372   3.458   5.044  11.310  0.9926 -0.2678 -0.3476
 5059TIP3    H239373   3.370   4.961  11.218 -1.3267  1.6317  0.0538
 5060TIP3   OH239374   6.348   5.291   8.309 -0.4594  0.0597  0.1140
 5060TIP3    H139375   6.303   5.214   8.276 -1.7493  0.6738  0.3671
 5060TIP3    H239376   6.378   5.337   8.230 -2.6990  1.0378 -0.2368
 5061TIP3   OH239377   4.435   3.848   9.471  0.0772 -0.5276 -0.6635
 5061TIP3    H139378   4.448   3.941   9.484  0.7074 -0.7691  0.5347
 5061TIP3    H239379   4.360   3.825   9.525 -0.1535 -0.7066 -1.0470
 5062TIP3   OH239380   1.989   5.232  11.544  0.2414 -0.7390  0.2622
 5062TIP3    H139381   1.989   5.307  11.603 -0.3590 -0.4136 -0.1388
 5062TIP3    H239382   1.929   5.169  11.585 -0.9224 -0.1350 -0.4402
 5063TIP3   OH239383   3.180   1.097  11.477 -0.4102  0.0377  0.0206
 5063TIP3    H139384   3.244   1.058  11.537  0.1433 -0.5379 -0.9254
 5063TIP3    H239385   3.232   1.132  11.405 -1.0802  0.5524 -0.2218
 5064TIP3   OH239386   0.017   0.162  10.245  0.4974  0.4136  0.2399
 5064TIP3    H139387  -0.018   0.214  10.173 -2.5296 -0.1092  1.2005
 5064TIP3    H239388  -0.048   0.170  10.314  2.5142 -0.4122  2.3684
 5065TIP3   OH239389   2.516   0.213  10.223  0.1804 -0.0350  0.1234
 5065TIP3    H139390   2.605   0.216  10.258  0.7148  0.3498 -1.1960
 5065TIP3    H239391   2.478   0.297  10.249  0.6521  0.3520 -0.4117
 5066TIP3   OH239392   5.515   0.350   9.487 -0.1170  0.2428  0.3734
 5066TIP3    H139393   5.524   0.426   9.545 -2.8882  0.2431  0.9533
 5066TIP3    H239394   5.461   0.288   9.537  1.3611 -1.7901 -0.4181
 5067TIP3   OH239395   5.504   3.699  11.609 -0.0348  0.0981 -0.4388
 5067TIP3    H139396   5.427   3.645  11.595  0.4451 -0.2031 -2.0513
 5067TIP3    H239397   5.494   3.732  11.698 -1.4583 -0.8268 -0.2306
 5068TIP3   OH239398   3.401   4.297  12.278 -0.3066  0.2480  0.1519
 5068TIP3    H139399   3.446   4.258  12.353 -0.6471 -0.0676  0.1951
 5068TIP3    H239400   3.386   4.223  12.218 -0.2554  0.4534 -0.1185
 5069TIP3   OH239401   1.399   2.492  11.828  0.2529  0.4220 -0.4250
 5069TIP3    H139402   1.372   2.500  11.919  1.6627 -2.1840  0.3331
 5069TIP3    H239403   1.400   2.582  11.795  0.0539  1.4799  2.2114
 5070TIP3   OH239404   5.865   6.232  10.971  0.4333  0.7283 -0.3973
 5070TIP3    H139405   5.914   6.151  10.983  0.1502  0.4431 -1.1158
 5070TIP3    H239406   5.930   6.301  10.985  1.1013  0.3537 -1.5446
 5071TIP3   OH239407   3.703   5.709  11.248 -0.2579  0.0396  0.2826
 5071TIP3    H139408   3.654   5.628  11.231 -0.9015  0.8938 -2.6406
 5071TIP3    H239409   3.641   5.766  11.293 -0.1644 -0.6824  1.3542
 5072TIP3   OH239410   1.551   6.567  11.853 -0.2648 -0.3014  0.1493
 5072TIP3    H139411   1.494   6.524  11.788  0.3712  0.2417 -0.7955
 5072TIP3    H239412   1.627   6.510  11.859 -0.5477 -0.6158  0.8176
 5073TIP3   OH239413   3.203   3.263  10.656 -0.0280 -0.2460  0.1993
 5073TIP3    H139414   3.212   3.319  10.733 -1.8757 -0.0276  0.3047
 5073TIP3    H239415   3.120   3.217  10.670 -0.2502 -0.4230 -1.5028
 5074TIP3   OH239416   0.059   5.489  11.074 -0.1665 -0.1214  0.1522
 5074TIP3    H139417   0.011   5.417  11.115  1.8169 -0.9291  1.1719
 5074TIP3    H239418   0.135   5.447  11.034  0.6270  1.3151  0.0911
 5075TIP3   OH239419   0.547   5.743  10.878  0.0712 -0.3145 -0.3017
 5075TIP3    H139420   0.534   5.837  10.874 -0.4253 -0.3962 -0.6202
 5075TIP3    H239421   0.524   5.711  10.791 -0.8257 -0.8596  0.1278
 5076TIP3   OH239422   5.558   2.349  10.478  0.3954  0.0805 -0.2206
 5076TIP3    H139423   5.502   2.405  10.423  2.7562 -0.1097 -3.1002
 5076TIP3    H239424   5.550   2.262  10.439  0.6230 -0.5230  1.0450
 5077TIP3   OH239425   4.782   4.974  10.218  0.0441  0.3088 -0.3772
 5077TIP3    H139426   4.808   4.882  10.218 -0.1858  0.2392 -0.7468
 5077TIP3    H239427   4.864   5.023  10.218  0.1692  0.1091  0.3575
 5078TIP3   OH239428   5.345   1.390  12.394  0.3322 -0.5921  0.1061
 5078TIP3    H139429   5.283   1.440  12.447 -0.0169 -0.2274 -0.6235
 5078TIP3    H239430   5.381   1.454  12.332  0.7933 -0.9847 -0.0418
 5079TIP3   OH239431   4.576   2.835   9.807 -0.1286 -0.2546 -0.5636
 5079TIP3    H139432   4.585   2.740   9.804 -0.0387 -0.2354 -2.1788
 5079TIP3    H239433   4.666   2.867   9.817 -0.1384 -0.3353 -0.2209
 5080TIP3   OH239434   1.655   1.145  10.636 -0.1458 -0.5278 -0.0034
 5080TIP3    H139435   1.585   1.080  10.623 -0.6610  0.1374 -0.6674
 5080TIP3    H239436   1.621   1.225  10.595  0.0003  0.4902  1.7523
 5081TIP3   OH239437   5.475   1.594  12.204  0.3017  0.1085 -0.2243
 5081TIP3    H139438   5.439   1.682  12.204 -1.0554 -0.3804  1.6107
 5081TIP3    H239439   5.565   1.605  12.236 -0.0859  0.7877  0.6864
 5082TIP3   OH239440   0.957   0.030   8.926  0.1359 -0.2839  0.4855
 5082TIP3    H139441   0.995   0.118   8.915 -0.7995  0.3401  1.9139
 5082TIP3    H239442   0.890   0.025   8.858  1.4445 -0.6620 -0.8298
 5083TIP3   OH239443   6.431   3.634   8.801  1.0083  0.6860 -0.3280
 5083TIP3    H139444   6.485   3.568   8.756 -1.0691 -0.8723 -0.6558
 5083TIP3    H239445   6.409   3.696   8.732  0.3863 -0.0096 -0.7691
 5084TIP3   OH239446   5.490   5.740   9.929 -0.2530  0.0178 -0.3461
 5084TIP3    H139447   5.424   5.678   9.897 -2.5431  1.8690  0.4318
 5084TIP3    H239448   5.461   5.824   9.894  3.1725  0.6582 -2.0101
 5085TIP3   OH239449   4.970   3.037   9.284  0.5472 -0.0351 -0.1347
 5085TIP3    H139450   5.064   3.043   9.269  0.6603  0.5981  0.7701
 5085TIP3    H239451   4.931   3.053   9.198  1.2557 -0.0303 -0.4592
 5086TIP3   OH239452   4.994   2.492   8.483 -0.2881  0.2349 -0.0748
 5086TIP3    H139453   5.017   2.399   8.484  2.0864  0.7590 -0.4528
 5086TIP3    H239454   4.930   2.500   8.412  0.8824 -0.8373 -1.3001
 5087TIP3   OH239455   4.896   2.563   9.902  0.4976 -0.4013  0.0922
 5087TIP3    H139456   4.811   2.540   9.940 -0.3503 -0.3719 -1.7094
 5087TIP3    H239457   4.960   2.529   9.965 -0.8186 -1.2841  1.0058
 5088TIP3   OH239458   4.959   1.125  12.044  0.3609  0.1734 -0.0979
 5088TIP3    H139459   4.948   1.098  11.953  0.4732 -0.9503  0.2111
 5088TIP3    H239460   4.984   1.217  12.039  1.6649 -0.2141 -1.2781
 5089TIP3   OH239461   3.901   0.510  10.469 -0.5489  0.6043 -0.2280
 5089TIP3    H139462   3.825   0.482  10.418 -0.0198 -0.8970 -0.2417
 5089TIP3    H239463   3.880   0.486  10.559 -0.7460  1.6645  0.0261
 5090TIP3   OH239464   6.693   5.544   8.267  0.2524  0.4043 -0.0117
 5090TIP3    H139465   6.667   5.635   8.284 -0.5113  0.1044  0.5030
 5090TIP3    H239466   6.743   5.519   8.344  0.6078  0.4356 -0.2300
 5091TIP3   OH239467   0.491   3.175   9.638  0.2180  0.9958  0.2991
 5091TIP3    H139468   0.500   3.269   9.654 -2.7780  1.3179  0.8233
 5091TIP3    H239469   0.482   3.137   9.725 -0.6818  0.5746  0.0413
 5092TIP3   OH239470   4.951   2.103  11.749  0.5891 -1.0366  0.2296
 5092TIP3    H139471   4.926   2.040  11.817 -2.4651 -0.1662  0.0267
 5092TIP3    H239472   4.938   2.056  11.667  1.4886 -1.1549  0.1448
 5093TIP3   OH239473   5.352   6.512   8.382  0.0690  0.5158  0.4437
 5093TIP3    H139474   5.392   6.524   8.468 -0.3177 -1.5947  0.9838
 5093TIP3    H239475   5.417   6.464   8.332  0.9262  3.0441 -1.0341
 5094TIP3   OH239476   6.340   2.184   8.801 -0.0556 -0.4231  0.4931
 5094TIP3    H139477   6.314   2.218   8.716 -0.5256 -0.5790  0.5686
 5094TIP3    H239478   6.258   2.180   8.851  0.1253 -0.8589  0.7659
 5095TIP3   OH239479   2.223   5.514  11.854  0.4878  0.2687 -0.1619
 5095TIP3    H139480   2.255   5.603  11.848 -1.2357  0.9468  0.1102
 5095TIP3    H239481   2.143   5.513  11.802  0.8439 -1.3101 -0.7374
 5096TIP3   OH239482   2.505   1.755  11.634 -0.1888 -0.1157  0.0464
 5096TIP3    H139483   2.478   1.664  11.624 -0.2964 -0.1186  0.3463
 5096TIP3    H239484   2.559   1.773  11.557 -0.7450 -0.2202 -0.3739
 5097TIP3   OH239485   0.358   3.799  11.596 -0.2256  0.4978  0.2269
 5097TIP3    H139486   0.400   3.749  11.526 -2.1661  0.3765 -0.9392
 5097TIP3    H239487   0.304   3.734  11.642  1.7172  0.3738  2.5105
 5098TIP3   OH239488   3.968   0.574  11.690 -0.1163  0.3348 -0.0726
 5098TIP3    H139489   4.023   0.498  11.673 -0.5366  0.2910 -1.3987
 5098TIP3    H239490   3.944   0.606  11.603 -0.9855  1.2252  0.4680
 5099TIP3   OH239491   2.676   0.331  10.549  0.3443 -0.2457 -0.1968
 5099TIP3    H139492   2.593   0.299  10.584  0.0280 -1.5399 -1.9751
 5099TIP3    H239493   2.717   0.378  10.622 -0.2554 -2.7242  1.8533
 5100TIP3   OH239494   1.616   0.400  11.284  0.4490  0.3441 -0.1827
 5100TIP3    H139495   1.538   0.360  11.322  1.3324 -0.2545  1.1100
 5100TIP3    H239496   1.638   0.345  11.209 -0.4810  0.6350 -0.6684
 5101TIP3   OH239497   5.184   0.269   9.221 -0.6764 -0.6719  0.1821
 5101TIP3    H139498   5.133   0.240   9.297  0.1114 -1.0580  0.5759
 5101TIP3    H239499   5.178   0.196   9.159 -0.6988 -0.6697  0.1816
 5102TIP3   OH239500   1.379   1.922  12.217 -0.3250  0.0729 -0.3490
 5102TIP3    H139501   1.353   2.010  12.190 -0.2953 -0.7092 -3.2525
 5102TIP3    H239502   1.307   1.892  12.273 -1.7403  0.9514 -1.6150
 5103TIP3   OH239503   0.258   1.757  10.472 -0.3255 -0.0319 -0.1093
 5103TIP3    H139504   0.274   1.720  10.385 -3.4479 -0.2909 -0.6969
 5103TIP3    H239505   0.278   1.850  10.462  2.0888 -0.4840 -0.2091
 5104TIP3   OH239506   1.487   1.817   9.890  0.8179 -0.5387 -0.0257
 5104TIP3    H139507   1.495   1.897   9.838 -0.9590 -0.2562  0.0905
 5104TIP3    H239508   1.425   1.839   9.960  0.3518 -1.9897  0.0552
 5105TIP3   OH239509   3.733   0.736   9.842 -0.0352 -0.0497 -0.1138
 5105TIP3    H139510   3.753   0.822   9.877 -1.6120  0.2223  0.2093
 5105TIP3    H239511   3.792   0.677   9.888 -1.8182  0.3230  2.9410
 5106TIP3   OH239512   0.955   6.488  11.338 -0.4786 -0.4069 -0.2583
 5106TIP3    H139513   0.883   6.426  11.328 -2.4246  1.7112 -0.2844
 5106TIP3    H239514   0.940   6.554  11.270  1.2234  0.3724  0.0526
 5107TIP3   OH239515   3.146   1.216  10.916 -0.2024 -0.5095 -0.4174
 5107TIP3    H139516   3.092   1.248  10.843  1.5346 -1.3232 -2.1395
 5107TIP3    H239517   3.122   1.124  10.925  0.4695 -0.7244 -0.7985
 5108TIP3   OH239518   5.094   5.894   9.940  0.1367  0.4647 -0.4280
 5108TIP3    H139519   5.046   5.928  10.015  2.9280  1.8789  0.8464
 5108TIP3    H239520   5.175   5.859   9.977  1.5860  1.1406 -2.7608
 5109TIP3   OH239521   0.764   4.387  10.794  0.1187 -0.6781  0.4062
 5109TIP3    H139522   0.725   4.474  10.797  0.7281 -0.2226 -2.3323
 5109TIP3    H239523   0.835   4.390  10.857  0.5007  1.0313 -0.0790
 5110TIP3   OH239524   0.811   4.106  11.993 -0.6101 -0.1214  0.5552
 5110TIP3    H139525   0.843   4.159  12.066 -2.2202 -2.0370  2.8266
 5110TIP3    H239526   0.724   4.142  11.974 -0.9517 -0.7777  0.8544
 5111TIP3   OH239527   3.084   3.476   9.567  0.5995 -0.5261 -0.0077
 5111TIP3    H139528   3.047   3.565   9.570  0.5343 -0.4816 -1.2509
 5111TIP3    H239529   3.080   3.453   9.474  3.8385 -0.4527 -0.2929
 5112TIP3   OH239530   1.876   2.723   9.282 -0.1214  0.0331  0.0797
 5112TIP3    H139531   1.970   2.716   9.260 -0.2606  1.4836 -1.1882
 5112TIP3    H239532   1.833   2.670   9.215 -0.1850 -1.7597  1.4649
 5113TIP3   OH239533   3.778   3.711   9.075  0.0480 -0.1435 -0.4628
 5113TIP3    H139534   3.746   3.655   9.003 -1.6613 -0.0217  0.1601
 5113TIP3    H239535   3.815   3.787   9.031 -1.2329  0.0638 -1.2492
 5114TIP3   OH239536   0.755   0.182   9.121 -0.8714 -0.4437 -0.2156
 5114TIP3    H139537   0.792   0.178   9.209  1.3428  1.6235 -0.9237
 5114TIP3    H239538   0.803   0.115   9.072 -0.3373  0.0230 -0.3556
 5115TIP3   OH239539   3.964   4.803  12.117  0.0813  0.0081  0.2362
 5115TIP3    H139540   3.871   4.826  12.123 -0.4909 -1.8994 -0.5575
 5115TIP3    H239541   4.005   4.854  12.187 -1.7703 -0.1022  1.4871
 5116TIP3   OH239542   1.758   1.237  10.889  0.3865  0.1300  0.1316
 5116TIP3    H139543   1.733   1.203  10.803  2.1353 -1.6993  0.2741
 5116TIP3    H239544   1.837   1.288  10.872  0.2018  0.5503  0.5309
 5117TIP3   OH239545   5.875   0.369  10.359  0.0248 -0.3290  0.3083
 5117TIP3    H139546   5.898   0.450  10.312 -0.4630  0.4568  1.3808
 5117TIP3    H239547   5.779   0.366  10.356  0.0683 -2.0017 -1.5319
 5118TIP3   OH239548   6.154   6.579  11.738  0.2625  0.2370  0.1926
 5118TIP3    H139549   6.104   6.643  11.789 -1.2176  0.0652 -0.9787
 5118TIP3    H239550   6.195   6.631  11.668  1.1596  0.2617  0.7169
 5119TIP3   OH239551   4.769   5.230   9.114  0.1802  0.0259  0.5885
 5119TIP3    H139552   4.709   5.299   9.141 -0.6816 -0.1445 -0.8397
 5119TIP3    H239553   4.718   5.173   9.057  0.7742 -2.0066  1.9819
 5120TIP3   OH239554   5.263   3.443  10.071 -0.4892 -0.6844  0.6366
 5120TIP3    H139555   5.276   3.402   9.986  0.8389 -2.6195  1.6847
 5120TIP3    H239556   5.335   3.506  10.078 -1.1885  0.2066 -0.0549
 5121TIP3   OH239557   0.478   2.243  11.073 -0.3769 -0.0243 -0.5906
 5121TIP3    H139558   0.541   2.222  11.004 -1.0655 -1.0517 -0.9282
 5121TIP3    H239559   0.529   2.242  11.154  0.7896  2.7461 -1.1635
 5122TIP3   OH239560   1.159   4.245  10.596  0.0439  0.1348 -0.4141
 5122TIP3    H139561   1.196   4.297  10.668 -0.2579  0.4045 -0.4536
 5122TIP3    H239562   1.225   4.251  10.527  0.1766  0.1641 -0.2863
 5123TIP3   OH239563   1.245   0.540  11.233 -0.1768  0.2235  0.6131
 5123TIP3    H139564   1.222   0.487  11.156 -0.2288  0.1358  0.6891
 5123TIP3    H239565   1.162   0.575  11.264 -0.1305  0.4322  0.5035
 5124TIP3   OH239566   1.547   6.669   9.479  0.2462  0.6301  0.4549
 5124TIP3    H139567   1.481   6.646   9.414  0.8385  0.7261 -0.1923
 5124TIP3    H239568   1.520   6.755   9.511 -0.3359  0.3527  0.7185
 5125TIP3   OH239569   0.026   2.670  10.666 -0.6973 -0.4997  0.9401
 5125TIP3    H139570  -0.054   2.625  10.692  0.9036 -3.8338  0.5825
 5125TIP3    H239571   0.086   2.656  10.739  0.3173 -0.1976  0.1807
 5126TIP3   OH239572   2.289   3.113  11.766  0.4140  0.1127  0.1367
 5126TIP3    H139573   2.281   3.037  11.707  1.1687  0.4107 -0.3574
 5126TIP3    H239574   2.327   3.182  11.711 -4.2300  2.3491 -0.7813
 5127TIP3   OH239575   3.994   2.145  10.579 -1.1179 -0.3315 -0.0241
 5127TIP3    H139576   3.938   2.069  10.593 -1.4184 -0.3599 -1.2568
 5127TIP3    H239577   3.933   2.219  10.576 -1.1297 -0.3773 -1.5084
 5128TIP3   OH239578   4.816   1.412   8.198  0.0745 -0.0437  0.1254
 5128TIP3    H139579   4.792   1.497   8.161  0.2526 -0.4780 -1.0343
 5128TIP3    H239580   4.912   1.412   8.199  0.3178 -1.7976 -3.9460
 5129TIP3   OH239581   1.385   1.305   9.128 -0.7395 -0.1358 -0.2876
 5129TIP3    H139582   1.427   1.222   9.152 -0.1382  0.2139 -0.0951
 5129TIP3    H239583   1.361   1.294   9.036  0.9196  0.1028 -0.7771
 5130TIP3   OH239584   3.729   2.579  10.526 -0.2537 -0.0623  0.2193
 5130TIP3    H139585   3.810   2.630  10.523  0.6070 -1.3235  1.0581
 5130TIP3    H239586   3.672   2.628  10.585 -0.3263  1.1262 -0.8128
 5131TIP3   OH239587   5.812   4.492  11.726 -0.3446 -0.2536  0.2933
 5131TIP3    H139588   5.871   4.475  11.800  0.3882 -0.2276 -0.2822
 5131TIP3    H239589   5.813   4.412  11.674 -0.3040 -0.0177 -0.0734
 5132TIP3   OH239590   4.255   1.112  10.028  0.4908  0.5331 -0.0383
 5132TIP3    H139591   4.168   1.074  10.041 -0.1963  2.0510  0.0640
 5132TIP3    H239592   4.300   1.096  10.110  1.1438 -2.2207 -0.8438
 5133TIP3   OH239593   3.174   2.882  11.049 -0.0731  0.0985 -0.5924
 5133TIP3    H139594   3.083   2.851  11.049 -0.7858  1.9855 -1.1712
 5133TIP3    H239595   3.197   2.885  10.956  1.1877 -1.8763 -0.3881
 5134TIP3   OH239596   0.114   5.051   9.532  0.7902  0.1856  0.5176
 5134TIP3    H139597   0.090   5.143   9.542  0.2560  0.0459  0.5419
 5134TIP3    H239598   0.160   5.029   9.614 -2.1293 -0.4958  2.1255
 5135TIP3   OH239599   3.483   1.996  11.687 -0.2845  0.0720  0.0762
 5135TIP3    H139600   3.408   1.962  11.737 -1.5270 -0.2334 -1.8746
 5135TIP3    H239601   3.472   2.091  11.690 -2.2526  0.0109 -2.2032
 5136TIP3   OH239602   1.714   2.343  10.145  0.0587  0.0831  0.4814
 5136TIP3    H139603   1.720   2.338  10.240  0.9519  0.3415  0.4554
 5136TIP3    H239604   1.671   2.426  10.127  0.5964  0.4030  0.6543
 5137TIP3   OH239605   3.840   0.714   8.477  0.2433 -0.6801 -0.2244
 5137TIP3    H139606   3.916   0.763   8.445 -0.0683  1.0674  1.4961
 5137TIP3    H239607   3.766   0.749   8.427 -0.1288  1.4817  1.6754
 5138TIP3   OH239608   6.318   3.413  11.399  0.1854 -0.3738  0.5258
 5138TIP3    H139609   6.371   3.354  11.345  1.1080  2.0652 -1.4472
 5138TIP3    H239610   6.232   3.372  11.402  0.3166 -1.0521 -2.1834
 5139TIP3   OH239611   4.037   5.519   9.540  0.4241 -0.0976  0.1581
 5139TIP3    H139612   4.083   5.574   9.604  1.1143 -0.9682  0.4439
 5139TIP3    H239613   4.102   5.453   9.515 -0.0132 -0.0876 -1.0566
 5140TIP3   OH239614   1.387   0.835   9.570  0.6391 -0.1911  0.1061
 5140TIP3    H139615   1.446   0.773   9.526  4.3025  2.7600  0.2960
 5140TIP3    H239616   1.346   0.883   9.498  0.8830 -0.2549 -0.0800
 5141TIP3   OH239617   4.840   2.385  11.669 -0.7488 -0.2677  0.2365
 5141TIP3    H139618   4.891   2.306  11.651  0.1637  0.1862  0.7255
 5141TIP3    H239619   4.758   2.373  11.621 -0.0851 -0.9194 -0.7673
 5142TIP3   OH239620   4.311   6.123  10.299 -0.2747  0.3558  0.1861
 5142TIP3    H139621   4.294   6.187  10.368  0.7984  0.2809  0.5491
 5142TIP3    H239622   4.371   6.167  10.239 -0.3541  0.0466 -0.1277
 5143TIP3   OH239623   6.608   5.245  10.211 -0.0969 -0.1399  0.3236
 5143TIP3    H139624   6.543   5.190  10.255 -0.1230 -0.0378  0.4131
 5143TIP3    H239625   6.567   5.268  10.128 -1.4800  2.3995  1.5701
 5144TIP3   OH239626   4.496   5.977  11.579 -0.3748 -0.4409  0.5934
 5144TIP3    H139627   4.425   5.916  11.561 -0.3294  0.0550 -1.4903
 5144TIP3    H239628   4.509   5.972  11.674 -0.4268 -3.5538  0.5334
 5145TIP3   OH239629   0.547   6.630   9.768  0.1863 -0.1455  0.1596
 5145TIP3    H139630   0.539   6.647   9.674 -0.4248  0.0870  0.2477
 5145TIP3    H239631   0.460   6.598   9.793 -0.4993  2.3405  1.1687
 5146TIP3   OH239632   3.714   0.329   9.865  0.1096 -0.0671 -0.5210
 5146TIP3    H139633   3.633   0.381   9.866  0.8158  1.1415 -2.2029
 5146TIP3    H239634   3.775   0.379   9.919 -0.0126 -0.6038  0.1343
 5147TIP3   OH239635   3.665   0.596  11.011 -0.3479  0.0278 -0.4136
 5147TIP3    H139636   3.657   0.640  10.927  0.0607 -0.1934 -0.5716
 5147TIP3    H239637   3.581   0.552  11.024 -0.5396  0.3625 -0.5361
 5148TIP3   OH239638   3.993   4.413  10.142 -0.5764 -0.5141  0.1248
 5148TIP3    H139639   3.918   4.380  10.191 -1.3073  1.0844  0.1526
 5148TIP3    H239640   4.004   4.503  10.171  1.7712 -0.8653  0.5597
 5149TIP3   OH239641   4.141   1.391  12.022  0.1337 -0.6855  0.4502
 5149TIP3    H139642   4.108   1.459  11.963 -1.4278 -0.4039  1.5697
 5149TIP3    H239643   4.188   1.440  12.090 -0.9377 -0.6571  1.2215
 5150TIP3   OH239644   3.488   3.242  11.862  0.3487 -0.2679 -0.1269
 5150TIP3    H139645   3.411   3.205  11.818 -0.7155  0.0362  1.4117
 5150TIP3    H239646   3.524   3.169  11.913  0.2733 -0.0662  0.2168
 5151TIP3   OH239647   1.908   3.304  12.036  0.8290 -0.2503 -0.2426
 5151TIP3    H139648   1.881   3.396  12.036 -0.8795 -0.7072  0.5190
 5151TIP3    H239649   2.003   3.306  12.050  0.7840  1.3820 -0.0574
 5152TIP3   OH239650   4.024   1.423  11.453 -0.1808  0.3914  0.6943
 5152TIP3    H139651   3.932   1.405  11.472 -0.3518  0.9370  0.4284
 5152TIP3    H239652   4.039   1.512  11.487 -0.8202  1.9231 -2.5521
 5153TIP3   OH239653   0.905   4.497  11.552 -0.1328 -0.0244 -0.6896
 5153TIP3    H139654   0.939   4.420  11.506 -0.3843 -0.2154 -0.5604
 5153TIP3    H239655   0.981   4.555  11.561  0.3123 -0.6991  0.1220
 5154TIP3   OH239656   3.384   5.121   9.679  0.6661  0.3891 -0.6182
 5154TIP3    H139657   3.366   5.028   9.692  1.6361  0.4611  1.7765
 5154TIP3    H239658   3.480   5.127   9.683  0.5546  1.6746  1.2381
 5155TIP3   OH239659   1.701   4.340  10.413  0.1679  0.4420  0.1472
 5155TIP3    H139660   1.691   4.398  10.488 -2.8887 -1.3142  1.2699
 5155TIP3    H239661   1.646   4.379  10.345  0.4264  0.4090 -0.0794
 5156TIP3   OH239662   4.468   2.509  10.454  0.4542 -0.0220 -0.5560
 5156TIP3    H139663   4.389   2.516  10.508 -0.2749 -1.6127 -1.3416
 5156TIP3    H239664   4.538   2.544  10.510 -0.3432 -1.1826  1.2776
 5157TIP3   OH239665   5.905   2.654   9.585 -0.2924 -0.2794  0.1240
 5157TIP3    H139666   5.831   2.690   9.634  0.5988 -2.3453  3.3412
 5157TIP3    H239667   5.870   2.578   9.539 -0.4167 -0.6753  0.8529
 5158TIP3   OH239668   5.286   3.719   8.915  0.7196  0.4489 -0.0394
 5158TIP3    H139669   5.233   3.649   8.877  1.4615 -0.6526  0.8889
 5158TIP3    H239670   5.299   3.782   8.844 -2.3617  1.1243 -0.1304
 5159TIP3   OH239671   5.297   0.682  10.504  0.1027 -0.6502 -0.0491
 5159TIP3    H139672   5.337   0.604  10.465 -0.1857 -1.0998  0.5399
 5159TIP3    H239673   5.242   0.648  10.574  0.4831  0.1285  0.6470
 5160TIP3   OH239674   6.406   5.059  10.219  0.1678 -0.6519  0.1636
 5160TIP3    H139675   6.449   4.974  10.231 -0.0478 -1.0544 -1.6315
 5160TIP3    H239676   6.378   5.084  10.307  1.9546 -1.4923  1.0347
 5161TIP3   OH239677   5.149   1.893  11.531  0.2489  0.4199  0.0375
 5161TIP3    H139678   5.072   1.869  11.583  1.0017 -1.1091  0.5024
 5161TIP3    H239679   5.115   1.904  11.442 -0.5170 -0.2267  0.2374
 5162TIP3   OH239680   1.993   0.206  10.477 -0.1145  0.0802 -0.1789
 5162TIP3    H139681   2.041   0.182  10.398  0.7964  0.1041  0.3559
 5162TIP3    H239682   2.006   0.300  10.485 -0.1531  0.0670  0.0350
 5163TIP3   OH239683   4.005   1.680  11.594  1.1245  0.0637  0.5308
 5163TIP3    H139684   4.075   1.725  11.547  0.4945  0.1209 -0.3854
 5163TIP3    H239685   3.945   1.750  11.620 -0.1569 -0.2466 -1.4104
 5164TIP3   OH239686   5.616   6.155   9.998 -0.0343  0.8528  0.4850
 5164TIP3    H139687   5.613   6.157  10.093  0.1102  0.7498  0.4935
 5164TIP3    H239688   5.702   6.191   9.976  0.6821 -0.7826  0.4637
 5165TIP3   OH239689   4.180   2.156   9.740 -0.2592  0.3332  0.0170
 5165TIP3    H139690   4.210   2.218   9.674 -2.0260  0.4738 -0.7144
 5165TIP3    H239691   4.135   2.211   9.805  1.7780  0.2431  1.5950
 5166TIP3   OH239692   1.136   0.144  11.121 -0.3384 -0.3150  0.1214
 5166TIP3    H139693   1.128   0.168  11.214 -1.5514  0.6805 -0.2116
 5166TIP3    H239694   1.224   0.107  11.113  0.1831  0.5584  1.4566
 5167TIP3   OH239695   4.521   4.938  10.171 -0.4763  0.8031  0.1042
 5167TIP3    H139696   4.614   4.952  10.184  0.0986  0.1553 -2.6126
 5167TIP3    H239697   4.478   4.997  10.232  1.6774  0.3653  2.1601
 5168TIP3   OH239698   1.744   1.162  12.250  0.0505  0.0362  0.3437
 5168TIP3    H139699   1.754   1.068  12.266  1.7178 -0.7252 -3.8284
 5168TIP3    H239700   1.662   1.169  12.201  0.2355  0.6361  0.1144
 5169TIP3   OH239701   4.110   4.232  11.243 -0.6303  0.5495  0.2545
 5169TIP3    H139702   4.031   4.227  11.190 -0.0565 -1.5730 -0.4765
 5169TIP3    H239703   4.181   4.243  11.179  0.0019 -1.3712  0.5619
 5170TIP3   OH239704   5.818   0.284  11.143  0.1992 -0.2711  0.3323
 5170TIP3    H139705   5.817   0.243  11.057 -1.7565 -1.3621  0.8142
 5170TIP3    H239706   5.841   0.214  11.204 -2.6770 -0.6553  1.1093
 5171TIP3   OH239707   4.760   3.117  11.404 -0.1721  0.1951 -0.5018
 5171TIP3    H139708   4.795   3.039  11.447 -1.8158 -0.0625  0.4752
 5171TIP3    H239709   4.705   3.083  11.334 -0.0987  0.5121 -0.7131
 5172TIP3   OH239710   4.682   5.442  11.904 -0.2049  0.0942  0.1946
 5172TIP3    H139711   4.589   5.431  11.925 -0.1178  0.8876  1.0719
 5172TIP3    H239712   4.685   5.440  11.808 -0.9615 -1.0900  0.1627
 5173TIP3   OH239713   3.196   1.506  11.612 -0.7566 -0.3669  0.5868
 5173TIP3    H139714   3.138   1.555  11.669 -1.3660 -0.4416  0.0452
 5173TIP3    H239715   3.152   1.422  11.599 -0.9381 -0.1189 -0.4847
 5174TIP3   OH239716   4.021   5.443  10.886 -0.1171 -0.4563 -0.1260
 5174TIP3    H139717   4.025   5.357  10.929 -1.0125 -0.0367  0.8324
 5174TIP3    H239718   3.964   5.430  10.811  0.6991 -0.9715 -0.6740
 5175TIP3   OH239719   6.157   2.664  11.679  0.2171 -0.5150 -0.9633
 5175TIP3    H139720   6.071   2.631  11.705  0.9900 -0.6469  1.7085
 5175TIP3    H239721   6.219   2.599  11.713  1.5061  1.1097 -0.0174
 5176TIP3   OH239722   1.970   5.287   9.076  0.0879  0.1902 -0.1078
 5176TIP3    H139723   2.061   5.274   9.051  0.2446  3.3471 -1.6216
 5176TIP3    H239724   1.921   5.285   8.994 -0.6224  2.1150  0.2004
 5177TIP3   OH239725   5.945   3.554   9.489 -0.6154  0.0960 -0.1269
 5177TIP3    H139726   5.941   3.648   9.470  1.9398  0.0671 -1.2137
 5177TIP3    H239727   5.901   3.512   9.415 -0.9082  0.4090 -0.1297
 5178TIP3   OH239728   1.800   5.189  10.452  0.2596  0.1415  0.2008
 5178TIP3    H139729   1.879   5.172  10.401  0.5647  2.3226 -0.1668
 5178TIP3    H239730   1.775   5.104  10.487  1.3368 -1.0330 -1.7210
 5179TIP3   OH239731   0.801   6.198  11.330 -1.3553 -0.2134 -0.5591
 5179TIP3    H139732   0.851   6.191  11.248  2.2748  1.3695  1.2906
 5179TIP3    H239733   0.778   6.107  11.351  0.2492 -0.9821 -1.8517
 5180TIP3   OH239734   2.727   3.739   8.579 -0.5536 -0.1795  0.0548
 5180TIP3    H139735   2.702   3.717   8.490  2.0069 -0.8598 -0.5664
 5180TIP3    H239736   2.728   3.655   8.625  0.6036 -0.2020  0.0213
 5181TIP3   OH239737   1.347   1.909  11.684 -0.1384  0.1040 -0.3664
 5181TIP3    H139738   1.370   1.831  11.734 -2.4167 -0.7464 -0.5353
 5181TIP3    H239739   1.309   1.876  11.602 -1.0086  1.3597 -0.5096
 5182TIP3   OH239740   4.028   2.333   9.884  0.0733 -0.1404 -0.0375
 5182TIP3    H139741   3.999   2.405   9.827 -0.8126  0.6399  1.3390
 5182TIP3    H239742   3.958   2.324   9.949  0.8041 -1.3600  0.6178
 5183TIP3   OH239743   2.555   5.680   9.822  0.3835 -0.3507 -0.2643
 5183TIP3    H139744   2.549   5.584   9.821 -0.6626 -0.3543  1.3584
 5183TIP3    H239745   2.648   5.698   9.835  0.4609 -1.1979  0.4841
 5184TIP3   OH239746   3.961   0.993   9.909  0.3300 -0.2574  0.3095
 5184TIP3    H139747   3.874   1.028   9.927  1.1216  1.2940  1.3022
 5184TIP3    H239748   3.968   0.915   9.964 -0.6167 -0.7545 -0.2313
 5185TIP3   OH239749   0.508   2.175  10.133  0.0813  0.6000  0.0812
 5185TIP3    H139750   0.482   2.179  10.225  0.7745  0.3380  0.2934
 5185TIP3    H239751   0.592   2.219  10.130  0.3058  0.1545 -0.3333
 5186TIP3   OH239752   4.166   2.801  10.587 -0.1125  0.0381 -0.0745
 5186TIP3    H139753   4.217   2.789  10.668  2.0478  3.3346 -0.7462
 5186TIP3    H239754   4.092   2.856  10.613 -2.0775 -2.6273  0.3895
 5187TIP3   OH239755   5.875   5.098  11.196 -0.0001  0.5176  0.4711
 5187TIP3    H139756   5.843   5.079  11.108 -0.9352  2.0723  0.4393
 5187TIP3    H239757   5.887   5.011  11.236  0.3928 -0.2159 -1.1368
 5188TIP3   OH239758   1.608   3.800  11.047 -0.5117  0.1061  0.4855
 5188TIP3    H139759   1.532   3.750  11.076 -0.9354  0.5565  0.1813
 5188TIP3    H239760   1.598   3.806  10.952  0.3779 -0.5804  0.3343
 5189TIP3   OH239761   2.619   2.877  12.059 -0.0880 -0.1837  0.3676
 5189TIP3    H139762   2.541   2.847  12.106 -1.1113 -0.1874 -1.2600
 5189TIP3    H239763   2.590   2.956  12.014 -0.1852 -1.9471 -2.9265
 5190TIP3   OH239764   2.644   6.090  11.508 -0.6339  0.0293 -1.0310
 5190TIP3    H139765   2.704   6.092  11.583  1.6521 -0.0178 -2.7578
 5190TIP3    H239766   2.658   6.174  11.464 -1.9724  0.0784 -1.3938
 5191TIP3   OH239767   6.006   0.578  11.892 -0.4271 -0.3471  0.6066
 5191TIP3    H139768   6.015   0.646  11.826  1.4812 -2.1998 -1.2163
 5191TIP3    H239769   5.929   0.604  11.943 -0.3912  2.5719 -0.6139
 5192TIP3   OH239770   0.062   6.166  11.387 -0.3877 -0.1804  0.1064
 5192TIP3    H139771   0.046   6.201  11.475 -1.3194 -0.6322  0.1201
 5192TIP3    H239772   0.158   6.159  11.382 -0.3335 -2.7414  2.1389
 5193TIP3   OH239773   3.672   6.495   9.446 -0.4117 -0.1566 -0.5514
 5193TIP3    H139774   3.637   6.437   9.378  2.2237 -0.8891 -1.4076
 5193TIP3    H239775   3.696   6.437   9.518  1.3508 -0.0867 -1.0293
 5194TIP3   OH239776   1.955   1.525   9.410  0.4021  0.3355 -0.2947
 5194TIP3    H139777   1.877   1.574   9.435  1.1844  0.9565  1.0164
 5194TIP3    H239778   1.929   1.477   9.331 -2.0084 -1.1944  1.2971
 5195TIP3   OH239779   2.879   2.144   9.576  0.2965 -0.6718  0.5621
 5195TIP3    H139780   2.937   2.141   9.652 -1.4194  1.3906  2.0512
 5195TIP3    H239781   2.834   2.059   9.576  2.5654 -1.9729 -0.1337
 5196TIP3   OH239782   1.472   5.336  11.150  0.1698  0.7155 -0.3528
 5196TIP3    H139783   1.485   5.416  11.200  1.6270  0.2435  0.0567
 5196TIP3    H239784   1.526   5.271  11.193 -0.0613 -0.2037 -1.3928
 5197TIP3   OH239785   2.760   1.729  11.425 -0.7579  0.7875  0.4019
 5197TIP3    H139786   2.739   1.636  11.415 -1.7439  0.9832  0.4870
 5197TIP3    H239787   2.852   1.736  11.401  0.1689 -0.6739  3.0486
 5198TIP3   OH239788   0.841   1.794  10.195  1.1163 -0.4038 -0.3094
 5198TIP3    H139789   0.762   1.770  10.145  0.7829 -1.1040  0.5174
 5198TIP3    H239790   0.842   1.889  10.195 -0.2480 -0.3712  0.4379
 5199TIP3   OH239791   0.948   1.408   9.281  0.4914 -0.4680  0.2288
 5199TIP3    H139792   0.944   1.495   9.321  0.5198 -0.6629  0.6606
 5199TIP3    H239793   0.914   1.349   9.348 -1.1299 -0.6054 -0.6533
 5200TIP3   OH239794   2.902   2.457  11.827  0.3289  0.8783 -0.0951
 5200TIP3    H139795   2.850   2.534  11.849  0.3991  0.5957  1.1103
 5200TIP3    H239796   2.975   2.458  11.888  1.8453  1.3145 -1.8258
 5201TIP3   OH239797   1.293   5.040  12.051 -0.1676  0.2862 -0.0148
 5201TIP3    H139798   1.275   5.055  11.958 -2.1569 -1.0810  0.0907
 5201TIP3    H239799   1.222   5.083  12.097 -0.0526 -0.3488  0.7860
 5202TIP3   OH239800   2.040   2.523   9.062 -0.1628  0.2025 -0.1254
 5202TIP3    H139801   2.095   2.595   9.093 -0.1464  0.6057 -1.0805
 5202TIP3    H239802   1.950   2.552   9.079 -0.1340  0.1453  0.1316
 5203TIP3   OH239803   4.249   4.169   9.781 -0.1185 -0.1866  0.4107
 5203TIP3    H139804   4.260   4.221   9.860 -0.1111 -0.5282  0.6351
 5203TIP3    H239805   4.165   4.125   9.792 -1.4694  1.8728 -0.9890
 5204TIP3   OH239806   1.283   3.405  10.321  0.2177 -0.3287  0.3465
 5204TIP3    H139807   1.289   3.483  10.375  2.0988  0.6288 -1.1052
 5204TIP3    H239808   1.258   3.335  10.381  2.1834  0.6598  2.4550
 5205TIP3   OH239809   5.249   3.278   9.535  0.5804  1.0818 -0.0875
 5205TIP3    H139810   5.268   3.318   9.450  0.4382  0.7683 -0.2716
 5205TIP3    H239811   5.234   3.186   9.514 -1.2481  1.3149  0.0147
 5206TIP3   OH239812   2.949   1.364  10.770 -0.0116 -0.1127  0.3591
 5206TIP3    H139813   3.006   1.435  10.797  0.3645 -1.0993  2.3730
 5206TIP3    H239814   2.914   1.391  10.685  1.7846  1.4631  0.0677
 5207TIP3   OH239815   3.577   6.643  11.274 -0.0684 -0.2606  0.0272
 5207TIP3    H139816   3.616   6.583  11.337 -0.3291 -0.3411  0.1126
 5207TIP3    H239817   3.506   6.593  11.233  0.5982 -0.4816 -0.9050
 5208TIP3   OH239818   4.737   5.987  11.457 -0.5120 -0.1101 -0.6293
 5208TIP3    H139819   4.793   5.920  11.495 -0.5493  0.1462 -0.1083
 5208TIP3    H239820   4.664   5.996  11.519 -0.7144  0.1225 -0.8975
 5209TIP3   OH239821   0.880   3.555  11.337  0.2346 -0.7435 -0.5047
 5209TIP3    H139822   0.953   3.494  11.348  0.1384 -0.5025  1.8725
 5209TIP3    H239823   0.920   3.642  11.338 -0.0840 -0.5633  1.7109
 5210TIP3   OH239824   1.450   1.059  10.076  0.2758 -0.6851  0.0129
 5210TIP3    H139825   1.450   0.966  10.095  1.4558 -0.8424 -0.6516
 5210TIP3    H239826   1.386   1.097  10.137 -0.0274 -1.8789  0.4542
 5211TIP3   OH239827   1.346   6.457  11.198 -0.4051  0.6734 -0.4825
 5211TIP3    H139828   1.421   6.437  11.253 -0.7691  0.1418 -0.1797
 5211TIP3    H239829   1.361   6.408  11.117  0.3055  1.7278 -1.0222
 5212TIP3   OH239830   0.902   2.554  10.673 -0.3710  0.3115  0.3543
 5212TIP3    H139831   0.825   2.570  10.727 -0.5056 -1.9518  0.9327
 5212TIP3    H239832   0.923   2.462  10.689  2.2498  0.7756 -0.0633
 5213TIP3   OH239833   5.387   1.879   9.196  0.1895  0.2633 -0.5595
 5213TIP3    H139834   5.390   1.786   9.218  0.3973  0.0072 -1.6460
 5213TIP3    H239835   5.305   1.889   9.147  1.0746  0.2792 -2.0729
 5214TIP3   OH239836   0.912   1.269  10.918 -0.7134  0.2777  0.2159
 5214TIP3    H139837   0.846   1.271  10.987 -0.7466 -0.9204  0.2342
 5214TIP3    H239838   0.996   1.274  10.964 -0.7476 -0.0515  0.3131
 5215TIP3   OH239839   2.466   5.214  11.289  0.3373 -0.5213 -0.0056
 5215TIP3    H139840   2.441   5.304  11.269 -1.0665 -1.0522 -0.7952
 5215TIP3    H239841   2.416   5.192  11.368  1.5550 -0.2572  0.8602
 5216TIP3   OH239842   5.562   3.379  11.908 -0.1534 -0.2826 -0.1022
 5216TIP3    H139843   5.509   3.433  11.967 -0.3711 -0.1798 -0.3901
 5216TIP3    H239844   5.652   3.401  11.931 -0.2160  1.2196 -1.1040
 5217TIP3   OH239845   3.384   0.059  10.045 -0.5157  0.1396  0.2606
 5217TIP3    H139846   3.311   0.121  10.052 -0.4539  0.5283 -1.7268
 5217TIP3    H239847   3.427   0.082   9.962  1.1050 -0.9000  0.7601
 5218TIP3   OH239848   0.982   2.130   9.318 -0.1132 -0.1507  0.1597
 5218TIP3    H139849   0.907   2.188   9.334  1.9588  2.5803  0.9680
 5218TIP3    H239850   1.048   2.188   9.279  1.9227 -2.1499  0.4550
 5219TIP3   OH239851   5.923   4.399  11.052 -0.4276  0.4993  0.5649
 5219TIP3    H139852   5.857   4.331  11.043 -0.7661  0.5958  2.0534
 5219TIP3    H239853   5.938   4.406  11.147  0.5361  1.6015  0.3599
 5220TIP3   OH239854   5.790   6.632  11.494  1.0766  0.2054 -0.6261
 5220TIP3    H139855   5.738   6.640  11.573 -0.6274  0.0767 -1.6891
 5220TIP3    H239856   5.853   6.563  11.513  0.3442 -0.1975  0.4174
 5221TIP3   OH239857   3.217   4.439  10.906  0.3736 -0.0362 -0.4052
 5221TIP3    H139858   3.283   4.508  10.899  0.3791  0.0600  0.4453
 5221TIP3    H239859   3.134   4.486  10.908  0.3601 -0.0678 -0.1378
 5222TIP3   OH239860   2.264   1.870  10.247 -0.1167  0.1594 -0.0323
 5222TIP3    H139861   2.334   1.928  10.217  1.3650 -0.1113  2.6131
 5222TIP3    H239862   2.183   1.918  10.227  0.7792  0.8251 -2.4708
 5223TIP3   OH239863   0.416   1.135  11.482 -0.1477  0.1052 -0.2868
 5223TIP3    H139864   0.500   1.158  11.521  0.5571 -0.7967 -1.2216
 5223TIP3    H239865   0.372   1.083  11.549  0.9285 -1.1887 -0.5484
 5224TIP3   OH239866   3.456   2.981   9.606 -0.0718 -0.4055 -0.5419
 5224TIP3    H139867   3.491   2.927   9.535 -0.4326 -0.1957 -0.8836
 5224TIP3    H239868   3.405   3.049   9.562  0.5120  0.3192 -0.1254
 5225TIP3   OH239869   6.632   5.901  11.325 -0.3044 -0.3723  0.0414
 5225TIP3    H139870   6.669   5.986  11.300 -0.9312 -0.2327 -0.4178
 5225TIP3    H239871   6.652   5.893  11.418  0.1295  0.0904 -0.0090
 5226TIP3   OH239872   4.141   4.915  12.294  0.4406 -0.3698 -0.2082
 5226TIP3    H139873   4.159   4.949  12.382 -0.7173 -0.2525 -0.0078
 5226TIP3    H239874   4.213   4.948  12.241  0.8807 -0.0109  0.5871
 5227TIP3   OH239875   3.819   1.727   9.293 -0.2470 -0.0819  0.0110
 5227TIP3    H139876   3.736   1.727   9.340 -0.3608 -0.2120 -0.1843
 5227TIP3    H239877   3.873   1.792   9.338 -0.6975  0.5086 -0.2853
 5228TIP3   OH239878   6.292   6.139   8.885  0.1708 -0.1320  0.6964
 5228TIP3    H139879   6.275   6.070   8.821 -1.0233  0.9965 -0.2596
 5228TIP3    H239880   6.237   6.117   8.960 -1.4170  0.5504 -0.2160
 5229TIP3   OH239881   6.336   1.246  10.929  0.0795 -0.4767 -0.4444
 5229TIP3    H139882   6.394   1.314  10.963 -0.8806 -0.2606  0.8629
 5229TIP3    H239883   6.363   1.167  10.977 -0.5298 -0.4216  0.0070
 5230TIP3   OH239884   1.597   5.925   9.341 -0.2967 -0.3012 -0.8074
 5230TIP3    H139885   1.575   5.879   9.422  2.2209 -0.3327 -0.0499
 5230TIP3    H239886   1.541   6.003   9.341 -1.1954 -0.9220  0.3299
 5231TIP3   OH239887   0.748   1.269  11.172  0.3209  0.3059 -0.4951
 5231TIP3    H139888   0.657   1.260  11.142  0.1272  2.0309 -0.5625
 5231TIP3    H239889   0.762   1.195  11.230 -1.8578  1.1209  1.1949
 5232TIP3   OH239890   3.855   4.232  11.404  0.1914  0.2802 -0.0693
 5232TIP3    H139891   3.818   4.318  11.382 -0.0683 -0.1164 -1.2653
 5232TIP3    H239892   3.942   4.251  11.439 -0.2595  1.0866  0.6708
 5233TIP3   OH239893   4.979   5.729  11.842 -0.3897  0.4332 -0.1452
 5233TIP3    H139894   5.072   5.727  11.820 -0.6412  0.0140 -1.2071
 5233TIP3    H239895   4.933   5.726  11.758 -1.3760  2.5435  0.2496
 5234TIP3   OH239896   3.950   6.360   9.309  0.7346 -0.3436  0.5935
 5234TIP3    H139897   4.015   6.426   9.336  0.5900 -0.3356  0.9292
 5234TIP3    H239898   3.994   6.276   9.322  2.3437 -0.3338 -3.3513
 5235TIP3   OH239899   1.848   0.855  11.827  0.1150 -0.0225 -0.5562
 5235TIP3    H139900   1.890   0.885  11.746  1.3397 -0.8064 -0.2472
 5235TIP3    H239901   1.824   0.764  11.808 -0.5595  0.1163 -0.3873
 5236TIP3   OH239902   5.788   1.773   9.033  0.4234  0.2675  0.0782
 5236TIP3    H139903   5.706   1.725   9.021  0.3630  0.2778  0.4253
 5236TIP3    H239904   5.805   1.812   8.947 -0.2922  0.8107  0.1670
 5237TIP3   OH239905   4.081   4.830   9.987  0.4931 -0.7832  0.0754
 5237TIP3    H139906   4.103   4.823  10.080  1.4960 -1.4451 -0.1977
 5237TIP3    H239907   4.115   4.915   9.960 -0.3795 -0.2952  0.4433
 5238TIP3   OH239908   0.100   2.268  11.613  0.1958 -0.1133  0.5479
 5238TIP3    H139909   0.170   2.203  11.619  0.3073  0.0645  1.4143
 5238TIP3    H239910   0.024   2.219  11.581  0.5452 -0.4486  0.2258
 5239TIP3   OH239911   4.414   5.033  10.910  0.1099  0.0722  0.0728
 5239TIP3    H139912   4.359   4.968  10.953 -0.7803  1.4955  1.1471
 5239TIP3    H239913   4.455   5.082  10.981  0.8028  0.6749 -0.7097
 5240TIP3   OH239914   4.548   1.852  10.185 -0.2448 -0.2019  0.0333
 5240TIP3    H139915   4.496   1.781  10.147 -1.9691  1.4975 -0.9736
 5240TIP3    H239916   4.519   1.930  10.138 -0.3339  1.5891  2.8479
 5241TIP3   OH239917   5.282   5.462  11.447  0.0793 -0.3855  0.7814
 5241TIP3    H139918   5.311   5.439  11.358 -0.6208  0.9773  0.1639
 5241TIP3    H239919   5.314   5.391  11.502  0.2576 -1.4293 -0.6133
 5242TIP3   OH239920   5.979   2.931  11.194  0.0171  0.0067 -0.3208
 5242TIP3    H139921   6.067   2.922  11.158  0.6206  1.6873  0.6113
 5242TIP3    H239922   5.982   2.885  11.278  0.8958  2.2716  0.9930
 5243TIP3   OH239923   3.151   3.366  11.246 -0.6912 -0.3398  0.3588
 5243TIP3    H139924   3.071   3.404  11.211  1.3078  1.7585 -2.3797
 5243TIP3    H239925   3.177   3.300  11.182  0.6225  0.2055  0.3046
 5244TIP3   OH239926   0.080   2.649  10.361 -0.0677 -0.8916  0.0120
 5244TIP3    H139927   0.077   2.665  10.455 -1.9945 -3.0420  0.4189
 5244TIP3    H239928  -0.008   2.618  10.339 -0.0033  0.5452 -2.7315
 5245TIP3   OH239929   1.610   2.466  11.566 -0.6277 -0.0910  0.1503
 5245TIP3    H139930   1.561   2.467  11.484 -0.5591  1.5634  0.0834
 5245TIP3    H239931   1.591   2.551  11.606 -0.1818 -0.6277  1.5680
 5246TIP3   OH239932   1.295   1.316   9.612 -0.5421  0.1170  0.0287
 5246TIP3    H139933   1.376   1.310   9.561  0.4654 -0.7983  1.6600
 5246TIP3    H239934   1.313   1.267   9.692 -1.4074  2.9509  2.1169
 5247TIP3   OH239935   6.262   3.008  11.069  0.2683 -0.2447 -0.0329
 5247TIP3    H139936   6.336   2.953  11.096  0.0900 -0.0704  0.8410
 5247TIP3    H239937   6.300   3.071  11.008  0.9240  0.0724  0.6779
 5248TIP3   OH239938   4.810   5.079  10.989  0.4984 -0.1952 -0.1424
 5248TIP3    H139939   4.754   5.140  11.036  1.0889  0.3230 -0.1040
 5248TIP3    H239940   4.757   5.050  10.915 -1.0781 -2.2943  1.6680
 5249TIP3   OH239941   4.846   5.989   9.837 -0.3076  0.2925  0.6419
 5249TIP3    H139942   4.938   5.962   9.839  0.0565  1.4509  0.7107
 5249TIP3    H239943   4.800   5.920   9.883  0.3614 -0.8843 -0.4121
 5250TIP3   OH239944   3.625   5.702  10.266  0.1375 -0.2518  0.4117
 5250TIP3    H139945   3.531   5.684  10.271  0.0441  0.4982  1.9635
 5250TIP3    H239946   3.653   5.658  10.186 -1.5305 -0.4756 -0.0976
 5251TIP3   OH239947   1.131   4.141  10.336 -0.4442  0.2119 -0.0289
 5251TIP3    H139948   1.041   4.108  10.337 -0.3283 -0.2933 -2.3224
 5251TIP3    H239949   1.183   4.070  10.372 -0.9694  0.7086  1.8324
 5252TIP3   OH239950   3.109   1.879   9.165  0.2930  0.2492 -0.0939
 5252TIP3    H139951   3.195   1.843   9.143 -0.0069 -1.4673  1.3486
 5252TIP3    H239952   3.093   1.851   9.255 -1.4970  1.1089 -0.0998
 5253TIP3   OH239953   5.241   4.496   9.456  0.2232  0.4195  0.5700
 5253TIP3    H139954   5.153   4.499   9.418 -0.1801 -3.5613  0.7969
 5253TIP3    H239955   5.300   4.489   9.381  0.2788  1.5444  0.4822
 5254TIP3   OH239956   2.109   3.829   9.515  0.1480 -0.5138  0.5893
 5254TIP3    H139957   2.128   3.737   9.533 -1.7352 -1.1095 -0.3091
 5254TIP3    H239958   2.044   3.827   9.445 -2.2036  1.3764  2.5385
 5255TIP3   OH239959   3.349   6.463  11.260 -0.6990 -0.4559 -0.9210
 5255TIP3    H139960   3.323   6.380  11.221 -0.7118 -0.7203 -0.3602
 5255TIP3    H239961   3.270   6.516  11.260 -0.6693 -0.4070 -1.3621
 5256TIP3   OH239962   5.457   5.762   9.115 -0.4256  0.5877 -0.8934
 5256TIP3    H139963   5.508   5.826   9.066 -0.2456  0.6665 -0.6074
 5256TIP3    H239964   5.499   5.678   9.095 -0.7445  0.5391 -1.3747
 5257TIP3   OH239965   6.480   0.682   9.912  0.0704 -0.7818  0.0514
 5257TIP3    H139966   6.489   0.703  10.005 -0.6083  1.0725 -0.2519
 5257TIP3    H239967   6.387   0.697   9.894  0.5755  1.0517 -1.3617
 5258TIP3   OH239968   5.664   1.917  10.542  0.7132 -0.0702  0.6242
 5258TIP3    H139969   5.706   1.881  10.621  0.5470  0.7390  1.0852
 5258TIP3    H239970   5.586   1.962  10.575  0.0153 -0.6998 -0.1272
 5259TIP3   OH239971   3.671   2.943   8.521  0.4842  0.5769  0.2682
 5259TIP3    H139972   3.592   2.942   8.575  0.6468 -2.0218  0.5679
 5259TIP3    H239973   3.639   2.933   8.431  0.4576 -1.4806  0.4697
 5260TIP3   OH239974   4.265   2.351  10.028 -0.3392 -0.0279  0.0509
 5260TIP3    H139975   4.250   2.378  10.118  0.7316 -0.6444  0.4348
 5260TIP3    H239976   4.178   2.343   9.990 -0.7604  1.8519  0.5272
 5261TIP3   OH239977   0.972   0.636  11.034  0.0654  0.3384  0.0385
 5261TIP3    H139978   0.965   0.540  11.039 -1.1914  0.4019 -0.1468
 5261TIP3    H239979   1.057   0.652  10.993  1.8007 -0.6102  2.9775
 5262TIP3   OH239980   2.633   5.844   9.012  0.5733 -0.4984  0.5010
 5262TIP3    H139981   2.656   5.778   9.078  1.8279 -1.0269 -0.4297
 5262TIP3    H239982   2.610   5.793   8.934 -0.5896  0.1293  0.4150
 5263TIP3   OH239983   0.326   6.514  10.154 -0.0490  0.1409 -0.3577
 5263TIP3    H139984   0.332   6.609  10.166 -0.7522  0.4880 -2.3297
 5263TIP3    H239985   0.316   6.479  10.243  1.5068  1.7716  0.5326
 5264TIP3   OH239986   1.635   0.297  11.680 -0.4796  0.0466 -0.0569
 5264TIP3    H139987   1.559   0.303  11.621 -0.3726 -0.3505 -0.2366
 5264TIP3    H239988   1.680   0.381  11.670 -0.5749  0.0581 -0.3891
 5265TIP3   OH239989   4.859   3.334  11.547 -0.3638  0.0847 -0.3132
 5265TIP3    H139990   4.878   3.386  11.469 -0.2570 -0.3349 -0.5643
 5265TIP3    H239991   4.882   3.393  11.620 -0.5459  0.5049 -0.5904
 5266TIP3   OH239992   2.869   0.629  10.934  1.0413  0.4410 -0.5842
 5266TIP3    H139993   2.916   0.676  10.864 -1.2425  1.2858 -1.6442
 5266TIP3    H239994   2.891   0.677  11.014  1.1072  1.5240 -1.2291
 5267TIP3   OH239995   4.964   1.355  11.215  0.4987  0.3627  0.1444
 5267TIP3    H139996   5.049   1.327  11.247  1.0209  1.4590 -0.2132
 5267TIP3    H239997   4.905   1.342  11.289  0.5455 -2.1492 -0.1677
 5268TIP3   OH239998   2.301   1.233  11.842 -0.2457 -0.5486 -0.0809
 5268TIP3    H139999   2.318   1.320  11.806  1.7707  0.1517  2.2636
 5268TIP3    H240000   2.209   1.217  11.824 -1.3113  3.0354  1.2079
 5269TIP3   OH240001   4.869   0.174   8.912 -0.1750  0.3300  0.3184
 5269TIP3    H140002   4.826   0.225   8.843  0.3356  1.3570  0.7439
 5269TIP3    H240003   4.796   0.140   8.965 -0.5155  0.8496  0.1900
 5270TIP3   OH240004   4.365   2.935  10.272 -0.4039 -0.4743 -0.3430
 5270TIP3    H140005   4.300   2.895  10.215 -1.7956 -0.8219  1.3907
 5270TIP3    H240006   4.424   2.864  10.295  0.2581 -0.2965 -1.4406
 5271TIP3   OH240007   1.758   0.084  10.772  0.4469  0.5944  0.2957
 5271TIP3    H140008   1.717   0.046  10.850 -0.4896  1.6321  0.3281
 5271TIP3    H240009   1.830   0.023  10.751 -0.4385 -0.6990  0.8572
 5272TIP3   OH240010   4.155   0.773  12.006 -0.3774  0.0837 -0.5072
 5272TIP3    H140011   4.079   0.715  12.007 -0.2444 -0.0935 -0.9222
 5272TIP3    H240012   4.215   0.736  12.070 -1.2279  1.0131  0.8980
 5273TIP3   OH240013   2.653   3.227  10.095  0.3814 -0.1001 -0.4264
 5273TIP3    H140014   2.592   3.294  10.063 -0.0042 -0.7396 -1.0428
 5273TIP3    H240015   2.717   3.217  10.024 -0.7932 -1.9236 -1.2698
 5274TIP3   OH240016   5.581   1.372   8.844 -0.3080  0.3855  0.8078
 5274TIP3    H140017   5.524   1.342   8.773  1.5755 -1.4921 -0.0349
 5274TIP3    H240018   5.615   1.456   8.814 -0.5096  0.1978  0.0347
 5275TIP3   OH240019   5.287   3.886   8.700 -0.0718  0.1992  0.0538
 5275TIP3    H140020   5.246   3.895   8.614  0.5958 -1.5246 -0.4953
 5275TIP3    H240021   5.381   3.895   8.683 -0.0287  1.8632  0.9449
 5276TIP3   OH240022   5.924   4.465  11.310 -0.2352 -0.5491 -0.1674
 5276TIP3    H140023   5.917   4.379  11.352  0.1910 -0.1043  0.8523
 5276TIP3    H240024   5.961   4.521  11.378 -1.8776  0.7976 -0.3264
 5277TIP3   OH240025   0.802   3.493  11.886  0.3969 -0.2478  0.4976
 5277TIP3    H140026   0.846   3.480  11.970 -0.8355 -3.0610  0.8501
 5277TIP3    H240027   0.731   3.554  11.905  1.9144  1.5246  0.7296
 5278TIP3   OH240028   1.194   3.056  10.821 -0.1835 -0.0189  0.0131
 5278TIP3    H140029   1.197   3.130  10.882 -0.3973 -0.4298  0.5261
 5278TIP3    H240030   1.265   3.073  10.760 -0.9603  1.2468 -0.6077
 5279TIP3   OH240031   2.385   1.472  12.113  0.4173  0.4262 -0.4479
 5279TIP3    H140032   2.360   1.489  12.023  0.2611  1.0287 -0.2927
 5279TIP3    H240033   2.479   1.488  12.116  0.0600  2.7282  0.0137
 5280TIP3   OH240034   1.515   6.284  11.377 -0.0607 -0.0196  0.4212
 5280TIP3    H140035   1.492   6.193  11.397 -0.1628 -0.2738 -0.7810
 5280TIP3    H240036   1.545   6.320  11.461 -0.9967 -0.8491  1.1385
 5281TIP3   OH240037   2.698   4.235  10.498 -0.0608  0.6469 -0.3284
 5281TIP3    H140038   2.634   4.287  10.449 -2.1094 -1.6220 -0.2783
 5281TIP3    H240039   2.658   4.224  10.584  0.4541 -0.6864 -0.2416
 5282TIP3   OH240040   1.162   4.871   8.450  0.3461  0.5903 -0.2095
 5282TIP3    H140041   1.235   4.889   8.391 -0.1373  1.1179 -0.6536
 5282TIP3    H240042   1.102   4.818   8.399  0.4332  0.1219  0.1685
 5283TIP3   OH240043   2.627   3.750  11.860  0.1197 -0.0636  0.2393
 5283TIP3    H140044   2.695   3.717  11.918 -1.4196 -1.0455  1.5740
 5283TIP3    H240045   2.657   3.727  11.772  1.0938 -1.2437  0.8524
 5284TIP3   OH240046   4.994   3.773  11.675 -0.3194  0.6891  0.6097
 5284TIP3    H140047   4.947   3.845  11.632 -1.6475  0.8136  2.1674
 5284TIP3    H240048   5.074   3.814  11.707  2.6761 -0.1520 -4.6973
 5285TIP3   OH240049   0.872   0.828  12.112 -0.2568  0.1493  0.3604
 5285TIP3    H140050   0.855   0.830  12.017  0.0108  1.9958  0.3027
 5285TIP3    H240051   0.867   0.920  12.138  0.4654 -0.2547  2.0095
 5286TIP3   OH240052   6.524   3.401   9.491  0.1562  0.0341  0.3129
 5286TIP3    H140053   6.435   3.429   9.472  0.2309  0.2340  0.2424
 5286TIP3    H240054   6.543   3.436   9.578  0.0188 -0.3707  0.5025
 5287TIP3   OH240055   0.738   0.280  12.025  0.3244 -0.0427  0.0509
 5287TIP3    H140056   0.794   0.355  12.044 -0.2154  0.5731 -0.7580
 5287TIP3    H240057   0.650   0.316  12.019 -0.1641 -0.9666  1.1012
 5288TIP3   OH240058   5.491   2.497  11.179  0.1117  0.0059 -0.2211
 5288TIP3    H140059   5.518   2.572  11.232  2.2409 -0.6516 -0.2957
 5288TIP3    H240060   5.473   2.427  11.243  0.6146 -0.1644 -0.2646
 5289TIP3   OH240061   5.383   1.325  11.057 -0.4240  0.2981 -0.3994
 5289TIP3    H140062   5.464   1.287  11.023 -0.1436 -0.3961  0.9960
 5289TIP3    H240063   5.336   1.353  10.979  1.3490  1.1312 -1.2270
 5290TIP3   OH240064   4.394   5.320   9.815 -0.5166 -0.0613 -0.1150
 5290TIP3    H140065   4.379   5.361   9.900  1.4326  1.6614 -0.5094
 5290TIP3    H240066   4.447   5.243   9.835  0.2357  0.5308  0.2284
 5291TIP3   OH240067   1.383   2.468  11.359  0.1041 -0.2468  0.4828
 5291TIP3    H140068   1.380   2.537  11.426  1.8337  0.0999  0.2479
 5291TIP3    H240069   1.388   2.515  11.276  1.0521 -0.6287  0.3067
 5292TIP3   OH240070   4.871   0.297  11.798 -0.2792 -0.0886 -0.3789
 5292TIP3    H140071   4.854   0.243  11.721 -0.0934 -1.2626  0.3635
 5292TIP3    H240072   4.784   0.322  11.829 -0.3397  1.0255 -1.3691
 5293TIP3   OH240073   3.083   1.805   8.802  0.0826  0.1482 -0.1641
 5293TIP3    H140074   3.070   1.855   8.722 -1.1675 -0.6454 -0.5008
 5293TIP3    H240075   3.155   1.745   8.782 -0.2290 -0.0515 -0.7096
 5294TIP3   OH240076   5.359   0.824  11.171  0.3022 -0.1914 -0.3526
 5294TIP3    H140077   5.418   0.823  11.246 -1.0170 -0.4157  0.7054
 5294TIP3    H240078   5.313   0.908  11.177  1.8171  0.8835 -2.2728
 5295TIP3   OH240079   6.115   3.782  12.217 -0.0190  0.0066  0.4724
 5295TIP3    H140080   6.199   3.744  12.191 -0.5367  0.6920 -2.5128
 5295TIP3    H240081   6.056   3.708  12.225  0.0256 -0.2068 -1.0115
 5296TIP3   OH240082   1.513   0.450  12.084 -0.8471 -0.2785  0.4722
 5296TIP3    H140083   1.418   0.443  12.082 -0.7532 -2.5988  1.1888
 5296TIP3    H240084   1.538   0.411  12.168  0.7446  0.3034  0.3038
 5297TIP3   OH240085   1.483   2.075   9.758  0.0213  0.1124 -0.5466
 5297TIP3    H140086   1.393   2.101   9.742  0.8547  2.6627 -1.6412
 5297TIP3    H240087   1.523   2.151   9.802  1.6704 -0.8735 -0.2485
 5298TIP3   OH240088   6.050   1.227   9.538  0.5381  0.2882 -0.3162
 5298TIP3    H140089   6.097   1.197   9.461 -1.6133  0.0139 -1.5885
 5298TIP3    H240090   6.073   1.320   9.545 -0.1922  0.6402 -2.0609
 5299TIP3   OH240091   6.149   4.787  11.744 -0.7297 -0.0181 -0.2689
 5299TIP3    H140092   6.184   4.838  11.817 -2.6829  0.3712  0.4681
 5299TIP3    H240093   6.206   4.808  11.670  1.3860 -0.5098  1.1323
 5300TIP3   OH240094   4.490   0.100   9.799 -0.5123  0.0249 -0.2108
 5300TIP3    H140095   4.484   0.051   9.881  1.0397  1.7372  1.0297
 5300TIP3    H240096   4.401   0.134   9.785 -1.3491 -2.1701 -0.5444
 5301TIP3   OH240097   4.263   2.388  10.321  0.6648 -0.4232  0.2905
 5301TIP3    H140098   4.235   2.480  10.326  1.0675 -0.3414  1.3140
 5301TIP3    H240099   4.345   2.385  10.371  0.1461 -1.5366  1.1050
 5302TIP3   OH240100   2.090   2.520   9.410  0.4104  0.0845  0.2672
 5302TIP3    H140101   2.042   2.446   9.374 -1.4412  1.5076 -0.3514
 5302TIP3    H240102   2.105   2.578   9.336 -0.5654  1.5539  1.1712
 5303TIP3   OH240103   5.745   2.507  10.991  0.4706 -0.1157  0.4866
 5303TIP3    H140104   5.663   2.504  11.041 -0.0171  0.0574 -0.2865
 5303TIP3    H240105   5.785   2.590  11.017  0.3426 -0.1402  0.7730
 5304TIP3   OH240106   6.206   1.934   8.714  0.4652 -0.4628  1.0416
 5304TIP3    H140107   6.240   2.020   8.742  1.6785 -1.0452  1.4152
 5304TIP3    H240108   6.281   1.890   8.674 -0.4959 -0.8340 -0.4224
 5305TIP3   OH240109   5.936   3.129  10.985 -0.1614  0.1356  0.2347
 5305TIP3    H140110   5.961   3.058  11.043 -1.8456 -0.0038  0.8461
 5305TIP3    H240111   6.004   3.196  10.998 -1.1595  0.7008  3.4475
 5306TIP3   OH240112   4.935   0.332   8.571  0.0312  0.2728 -0.3023
 5306TIP3    H140113   5.015   0.378   8.547 -0.2861  0.3871 -1.1742
 5306TIP3    H240114   4.932   0.256   8.513 -0.1309 -0.1288  0.2165
 5307TIP3   OH240115   3.087   2.450  10.215  0.3474 -0.5274 -0.2799
 5307TIP3    H140116   3.130   2.382  10.268  1.5882  0.7509  0.4427
 5307TIP3    H240117   3.127   2.441  10.129  1.2088 -0.1371  0.0627
 5308TIP3   OH240118   1.826   5.156  10.871 -0.7733  0.5876 -0.3808
 5308TIP3    H140119   1.876   5.116  10.800 -0.1575  1.9288 -0.7271
 5308TIP3    H240120   1.810   5.084  10.932  2.1941  0.2277  0.0926
 5309TIP3   OH240121   5.252   1.348   9.734 -0.6100  0.1882  0.6708
 5309TIP3    H140122   5.208   1.267   9.708 -0.1902  0.3110 -0.4760
 5309TIP3    H240123   5.180   1.406   9.758 -1.1286  0.3607 -1.1097
 5310TIP3   OH240124   1.128   6.602  12.326  0.9040  0.0585  0.5902
 5310TIP3    H140125   1.199   6.617  12.389  0.8193 -0.1804  0.7460
 5310TIP3    H240126   1.169   6.611  12.240  1.0810  0.1098  0.6807
 5311TIP3   OH240127   1.726   3.631   9.374  0.2169 -0.5134  0.2910
 5311TIP3    H140128   1.800   3.690   9.376 -0.7157  0.7699 -1.0053
 5311TIP3    H240129   1.700   3.627   9.282 -3.4249  1.8750  1.0043
 5312TIP3   OH240130   4.843   1.820  10.163  0.0501  0.3035  0.4265
 5312TIP3    H140131   4.856   1.739  10.115  0.4655  0.8840 -0.4715
 5312TIP3    H240132   4.749   1.825  10.178  0.0584 -0.4928  0.7684
 5313TIP3   OH240133   0.825   2.921   8.820  0.5731  0.1999  0.1077
 5313TIP3    H140134   0.765   2.964   8.759  3.3223  1.8429 -1.6330
 5313TIP3    H240135   0.829   2.830   8.790  1.3227  0.8167 -1.7674
 5314TIP3   OH240136   3.875   1.487  10.727  0.0874  0.5841  0.4864
 5314TIP3    H140137   3.795   1.438  10.705  0.1904 -0.2589  1.8868
 5314TIP3    H240138   3.943   1.448  10.671  0.0667 -0.5957  1.2451
 5315TIP3   OH240139   5.362   4.881  10.856 -0.6601  0.1493  0.4612
 5315TIP3    H140140   5.399   4.966  10.880  0.5374  0.2191 -1.3687
 5315TIP3    H240141   5.369   4.828  10.935  3.8266  0.0567  0.2913
 5316TIP3   OH240142   2.659   3.199  10.500  0.1402  0.1260  0.0601
 5316TIP3    H140143   2.571   3.185  10.534  0.2643 -0.3686  0.1869
 5316TIP3    H240144   2.652   3.278  10.446 -0.2653  0.3706  0.4674
 5317TIP3   OH240145   1.505   0.929  10.927 -0.3234 -0.6132  0.1124
 5317TIP3    H140146   1.507   1.024  10.942 -1.0416 -0.4928 -0.4958
 5317TIP3    H240147   1.588   0.898  10.963  0.1264  0.3056 -0.0837
 5318TIP3   OH240148   1.543   3.071   9.424 -0.3820  0.5140 -0.2015
 5318TIP3    H140149   1.569   3.147   9.372  0.4604  0.4100  0.0600
 5318TIP3    H240150   1.450   3.058   9.402 -0.1031  0.5851 -1.5325
 5319TIP3   OH240151   2.884   1.242  10.365 -0.1218  0.2869 -0.5698
 5319TIP3    H140152   2.941   1.186  10.417 -1.6667 -0.1561  0.7157
 5319TIP3    H240153   2.889   1.328  10.409  0.8203  0.7138 -1.4587
 5320TIP3   OH240154   1.505   4.880   9.948 -0.4210  0.0757 -0.1451
 5320TIP3    H140155   1.424   4.927   9.969 -0.1748  0.8855 -0.9241
 5320TIP3    H240156   1.476   4.798   9.908 -0.8586  0.2205 -0.1261
 5321TIP3   OH240157   0.206   2.585  12.399  0.0242  0.1721  0.0394
 5321TIP3    H140158   0.275   2.637  12.439  1.6119 -1.6728 -0.1454
 5321TIP3    H240159   0.168   2.643  12.333  2.5107  0.7758 -0.9835
 5322TIP3   OH240160   1.928   5.892  10.563 -0.3616 -0.0187  0.0273
 5322TIP3    H140161   1.971   5.863  10.482 -0.4501 -2.0621  0.6630
 5322TIP3    H240162   2.000   5.922  10.619 -0.1812  0.2748 -0.3557
 5323TIP3   OH240163   1.532   3.299  11.865  0.4187 -0.1799 -0.4914
 5323TIP3    H140164   1.547   3.366  11.932 -0.4910  2.0462 -2.3462
 5323TIP3    H240165   1.447   3.322  11.828 -0.8105 -3.5288 -0.0322
 5324TIP3   OH240166   1.353   6.615   9.274  0.3195 -0.5828 -0.5023
 5324TIP3    H140167   1.291   6.542   9.275  0.4199 -0.6662 -0.1556
 5324TIP3    H240168   1.388   6.616   9.185 -1.8114  0.8493 -1.3833
 5325TIP3   OH240169   6.578   6.278  10.544 -0.5237 -0.0506 -0.5073
 5325TIP3    H140170   6.670   6.301  10.535 -0.8267  1.0416 -1.0232
 5325TIP3    H240171   6.544   6.339  10.609 -0.9186 -0.3360 -0.4422
 5326TIP3   OH240172   5.889   3.751   9.962 -0.0816 -0.1761 -0.3360
 5326TIP3    H140173   5.889   3.750  10.057 -2.1320 -1.4803 -0.2906
 5326TIP3    H240174   5.966   3.699   9.937 -0.1180 -0.7014  0.6210
 5327TIP3   OH240175   5.712   4.619  12.377 -0.5219 -0.6573 -0.4799
 5327TIP3    H140176   5.688   4.651  12.464  1.9036 -2.8195  1.1442
 5327TIP3    H240177   5.663   4.538  12.367 -1.4720  0.0235 -1.5812
 5328TIP3   OH240178   1.426   4.735  10.386 -0.0576  0.0946 -0.6360
 5328TIP3    H140179   1.458   4.665  10.328 -0.4256 -2.3876  1.9341
 5328TIP3    H240180   1.331   4.723  10.388 -0.1062  0.5429  0.0228
 5329TIP3   OH240181   2.402   1.840  10.851  0.3683 -0.1669  0.0068
 5329TIP3    H140182   2.343   1.852  10.776  0.6189  0.0513 -0.1560
 5329TIP3    H240183   2.350   1.869  10.927  0.3460  0.2593 -0.1646
 5330TIP3   OH240184   1.918   0.022   9.259 -0.5478 -0.2789  0.6195
 5330TIP3    H140185   1.884   0.111   9.249  0.9550  0.3175  0.6918
 5330TIP3    H240186   1.972   0.025   9.338  2.2353 -0.3620 -1.1770
 5331TIP3   OH240187   4.748   6.219  11.712 -0.3828  0.1302  0.5233
 5331TIP3    H140188   4.733   6.303  11.669  0.5107  0.6753  1.2318
 5331TIP3    H240189   4.781   6.162  11.642  1.1756  1.0363  0.4661
 5332TIP3   OH240190   4.802   4.660   9.934  0.2659  0.2031 -0.3388
 5332TIP3    H140191   4.799   4.564   9.932  2.6412  0.0496  0.2459
 5332TIP3    H240192   4.781   4.683  10.024  2.1689  0.0082  0.2085
 5333TIP3   OH240193   2.814   5.369   9.894 -0.5639  0.6435  0.1816
 5333TIP3    H140194   2.802   5.415   9.810  1.0207 -1.1391 -1.1142
 5333TIP3    H240195   2.768   5.286   9.881  1.1001 -0.3524  0.4043
 5334TIP3   OH240196   2.437   1.081  11.138 -0.2163  1.0265  0.0050
 5334TIP3    H140197   2.370   1.104  11.073 -0.8903  0.2786  0.4146
 5334TIP3    H240198   2.408   0.997  11.173  0.2651  1.3033  1.1066
 5335TIP3   OH240199   3.436   5.859   9.576  0.1758  0.1911 -0.2560
 5335TIP3    H140200   3.357   5.877   9.627  1.0366  2.3907  0.4384
 5335TIP3    H240201   3.446   5.764   9.579 -1.6626 -0.0242  0.7828
 5336TIP3   OH240202   6.514   0.145  10.412 -0.2813  0.1236 -0.3374
 5336TIP3    H140203   6.512   0.057  10.450 -1.7802 -0.2806 -1.2720
 5336TIP3    H240204   6.465   0.199  10.475 -0.5506 -0.0006 -0.4407
 5337TIP3   OH240205   1.940   3.735  11.286  0.6214 -0.0563 -0.2205
 5337TIP3    H140206   1.985   3.650  11.294  0.7983  0.0524 -0.0399
 5337TIP3    H240207   1.849   3.716  11.309 -0.3183 -1.0418 -3.9859
 5338TIP3   OH240208   0.413   4.386   8.909  0.9809 -0.2484  0.0965
 5338TIP3    H140209   0.393   4.412   8.999  0.3810  0.9172 -0.3514
 5338TIP3    H240210   0.345   4.322   8.887 -1.1390  2.1311 -0.7008
 5339TIP3   OH240211   6.082   2.508   9.759 -0.3047 -0.1025  0.1831
 5339TIP3    H140212   6.051   2.451   9.689  0.3284 -0.7092  0.3833
 5339TIP3    H240213   6.030   2.588   9.750 -0.4910 -0.3165 -0.7401
 5340TIP3   OH240214   3.626   4.421   9.836  0.3641  0.2496  0.1845
 5340TIP3    H140215   3.664   4.397   9.920 -2.1342 -1.4875  0.9294
 5340TIP3    H240216   3.644   4.347   9.779 -3.0328 -1.4271  1.0282
 5341TIP3   OH240217   0.160   2.886  10.237  0.2404  0.1812 -0.0582
 5341TIP3    H140218   0.124   2.798  10.242  0.9514 -0.1230 -0.1884
 5341TIP3    H240219   0.083   2.944  10.235 -0.2532 -0.4799 -0.9493
 5342TIP3   OH240220   0.529   6.027  10.882 -0.0909  0.2702 -0.4497
 5342TIP3    H140221   0.508   6.080  10.959 -1.3460  0.1276 -0.6728
 5342TIP3    H240222   0.622   6.043  10.866 -0.0502  1.0573  0.5091
 5343TIP3   OH240223   1.523   4.930   8.924  0.1423  0.5421 -0.1312
 5343TIP3    H140224   1.550   4.843   8.953 -1.7001  0.4584  1.5025
 5343TIP3    H240225   1.602   4.984   8.934  1.1192 -0.7606 -0.5116
 5344TIP3   OH240226   3.305   3.052  11.703  0.0745 -0.7946 -0.2623
 5344TIP3    H140227   3.291   2.957  11.698 -0.2514 -0.8428  1.1249
 5344TIP3    H240228   3.217   3.089  11.707  0.2108 -0.5381  0.5478
 5345TIP3   OH240229   1.807   5.455  10.147  0.4181  0.0536 -0.2510
 5345TIP3    H140230   1.718   5.427  10.169  0.5835  0.2031  0.6460
 5345TIP3    H240231   1.817   5.430  10.055 -0.5887  0.1458 -0.4041
 5346TIP3   OH240232   2.826   4.973  12.093 -0.4248 -0.1263  0.5469
 5346TIP3    H140233   2.787   5.039  12.150 -1.4438 -0.3745  0.1541
 5346TIP3    H240234   2.762   4.903  12.089  0.0450 -0.5297 -0.1587
 5347TIP3   OH240235   5.808   3.634  11.639 -0.2425  0.4258  0.1696
 5347TIP3    H140236   5.740   3.656  11.575  0.7870  2.5097 -0.3035
 5347TIP3    H240237   5.883   3.608  11.585 -0.4153 -1.1656  0.6637
 5348TIP3   OH240238   4.113   1.262  11.669 -0.0208  0.5254  0.4286
 5348TIP3    H140239   4.142   1.174  11.643  4.0832  1.6930  0.2855
 5348TIP3    H240240   4.117   1.313  11.588  1.3648  1.6036  1.1299
 5349TIP3   OH240241   4.080   6.586  11.981 -0.2397  0.4528 -0.2861
 5349TIP3    H140242   4.121   6.588  11.895  0.0125  1.0761 -0.1546
 5349TIP3    H240243   4.141   6.631  12.039  0.1732 -1.0211  0.4881
 5350TIP3   OH240244   6.023   0.118  11.740  0.1022  0.1540 -0.0484
 5350TIP3    H140245   5.956   0.117  11.671  0.2495  1.7589 -0.2553
 5350TIP3    H240246   5.984   0.170  11.809  1.0317  0.8773 -0.0577
 5351TIP3   OH240247   3.906   3.563   9.610 -0.4132  0.3588 -0.3643
 5351TIP3    H140248   3.844   3.510   9.560  0.5350 -0.1870 -0.9786
 5351TIP3    H240249   3.992   3.536   9.580  0.2228 -0.1263  1.6976
 5352TIP3   OH240250   5.504   1.049   9.182  0.4810 -0.0312 -0.3361
 5352TIP3    H140251   5.554   0.967   9.181  0.0038 -0.3228 -0.8407
 5352TIP3    H240252   5.569   1.117   9.169  0.6250 -0.4756 -2.1901
 5353TIP3   OH240253   0.843   6.161  10.246 -0.1565 -0.3919  0.8159
 5353TIP3    H140254   0.924   6.208  10.264 -0.7300  1.5626 -1.3004
 5353TIP3    H240255   0.858   6.118  10.162 -1.9468  1.7679 -0.7097
 5354TIP3   OH240256   4.042   1.288   8.772  0.0760 -0.0135  0.6602
 5354TIP3    H140257   4.018   1.340   8.695  0.7063 -0.3716  0.2141
 5354TIP3    H240258   4.137   1.294   8.776  0.2278 -1.6381  0.2298
 5355TIP3   OH240259   5.953   0.403   8.850  0.3488 -0.6889  0.2949
 5355TIP3    H140260   6.029   0.369   8.802  0.3196  1.2042 -1.2070
 5355TIP3    H240261   5.991   0.448   8.925  0.8228  0.6347 -0.6854
 5356TIP3   OH240262   3.342   0.980  10.213 -0.2522 -0.1561  0.0871
 5356TIP3    H140263   3.397   0.901  10.216  0.7378  0.4285 -1.4400
 5356TIP3    H240264   3.399   1.050  10.244 -0.1706  0.4161 -1.2783
 5357TIP3   OH240265   4.484   4.268  11.280 -0.0106 -0.1816 -0.0188
 5357TIP3    H140266   4.502   4.202  11.213  1.5716  1.4279 -1.2753
 5357TIP3    H240267   4.411   4.319  11.244  0.5908  0.4457 -0.3825
 5358TIP3   OH240268   5.015   0.265  10.859  0.0738  0.4329 -0.2539
 5358TIP3    H140269   4.977   0.200  10.801 -0.1244  0.7021 -0.4322
 5358TIP3    H240270   4.945   0.329  10.873  1.0337  2.0652 -2.2615
 5359TIP3   OH240271   6.582   0.820  11.505  0.5476 -0.4738 -0.0857
 5359TIP3    H140272   6.532   0.860  11.576 -1.6304  0.1926 -1.8548
 5359TIP3    H240273   6.573   0.726  11.519  0.3309 -0.3479  0.6417
 5360TIP3   OH240274   4.639   0.979  10.013  0.5779  0.0197  0.2602
 5360TIP3    H140275   4.632   0.950  10.105 -0.4105 -0.9870 -0.1018
 5360TIP3    H240276   4.571   0.929   9.968  0.3156  1.3111 -0.8325
 5361TIP3   OH240277   0.452   2.537  11.880 -0.2970 -0.6618  0.7023
 5361TIP3    H140278   0.405   2.601  11.826  0.6306  0.4810  1.2033
 5361TIP3    H240279   0.418   2.552  11.968 -0.4169 -1.1974  0.7484
 5362TIP3   OH240280   2.935   1.312  11.345 -0.1130 -0.0082  0.2190
 5362TIP3    H140281   2.963   1.297  11.435  0.0733  2.0392  0.5428
 5362TIP3    H240282   2.909   1.225  11.313  0.1583 -0.8262  2.1092
 5363TIP3   OH240283   6.244   0.838  10.623  0.1386 -0.1501 -0.4052
 5363TIP3    H140284   6.178   0.877  10.679 -0.4620 -0.6262 -0.7731
 5363TIP3    H240285   6.315   0.903  10.620  0.4867 -0.3952  1.4268
 5364TIP3   OH240286   1.102   0.559  11.906  0.4119 -0.2612  0.2092
 5364TIP3    H140287   1.103   0.532  11.814  1.0264 -0.8261  0.3728
 5364TIP3    H240288   1.109   0.654  11.903 -1.3098 -0.1009 -0.3778
 5365TIP3   OH240289   2.024   2.317   9.254  0.2417 -0.0196  0.2379
 5365TIP3    H140290   2.057   2.232   9.223 -0.0179 -0.7382  1.8216
 5365TIP3    H240291   2.053   2.380   9.188 -0.8973 -1.5339 -1.8312
 5366TIP3   OH240292   4.070   3.895  11.875  0.0795  0.0212  0.4024
 5366TIP3    H140293   4.164   3.912  11.881 -0.1353  1.4610  0.0573
 5366TIP3    H240294   4.040   3.949  11.802 -1.1639  0.3217  1.0919
 5367TIP3   OH240295   2.825   2.842  11.556  0.1816  0.4338 -0.2775
 5367TIP3    H140296   2.755   2.793  11.599  0.5032 -0.5333 -0.8254
 5367TIP3    H240297   2.791   2.861  11.468  0.2088  0.8694 -0.1978
 5368TIP3   OH240298   5.510   3.324  10.725 -0.1842  0.0764 -0.4356
 5368TIP3    H140299   5.566   3.282  10.790 -1.3022 -0.2205  0.3797
 5368TIP3    H240300   5.536   3.285  10.642  1.8912  1.1240 -0.3185
 5369TIP3   OH240301   5.805   2.749  11.707 -0.0283  0.1827  0.4808
 5369TIP3    H140302   5.863   2.697  11.762  0.3899  0.5626  0.3976
 5369TIP3    H240303   5.751   2.683  11.662  0.9157 -0.2292 -0.0971
 5370TIP3   OH240304   6.685   4.459  11.479  0.0520  0.0468 -0.2062
 5370TIP3    H140305   6.763   4.503  11.511  0.3012 -1.1752  0.9491
 5370TIP3    H240306   6.675   4.383  11.536 -1.8125  0.0084 -0.5307
 5371TIP3   OH240307   1.113   4.204   9.986 -0.3733  0.0608  0.1821
 5371TIP3    H140308   1.149   4.132  10.037 -0.6843  0.7495  1.4096
 5371TIP3    H240309   1.137   4.183   9.895  1.5712 -0.3771  0.7461
 5372TIP3   OH240310   3.324   0.582  11.244 -0.2599 -0.6487 -0.7022
 5372TIP3    H140311   3.250   0.604  11.301 -0.8613 -2.0080 -0.9221
 5372TIP3    H240312   3.401   0.590  11.301 -0.6882 -0.3715 -0.1487
 5373TIP3   OH240313   4.883   1.342   9.188  0.0618  0.2747  0.4347
 5373TIP3    H140314   4.816   1.397   9.147 -2.4923 -1.6579  1.7546
 5373TIP3    H240315   4.888   1.374   9.278  0.7696  0.2115  0.4286
 5374TIP3   OH240316   1.255   5.081  11.787 -0.3798  0.4297  0.5689
 5374TIP3    H140317   1.176   5.049  11.743 -2.1534  3.7437  1.0838
 5374TIP3    H240318   1.278   5.161  11.740  0.4362  1.5428  2.7253
 5375TIP3   OH240319   0.241   5.872   9.373  0.6309  0.5611  0.1053
 5375TIP3    H140320   0.159   5.841   9.413  0.2914  0.8610 -0.3524
 5375TIP3    H240321   0.286   5.792   9.347  0.3746  0.3991  0.1477
 5376TIP3   OH240322   3.369   2.383   9.209  0.1262  0.0587  0.0772
 5376TIP3    H140323   3.318   2.453   9.169  0.1216 -0.7027 -1.3135
 5376TIP3    H240324   3.308   2.309   9.213  0.9546 -0.7251 -1.1835
 5377TIP3   OH240325   0.771   4.818  11.397  0.3548  0.7125  0.0447
 5377TIP3    H140326   0.828   4.748  11.365  0.7332  0.7169  0.6738
 5377TIP3    H240327   0.799   4.896  11.349 -0.2728  0.3766 -0.8791
 5378TIP3   OH240328   3.461   1.668  10.361 -0.1218 -0.3018  0.0249
 5378TIP3    H140329   3.543   1.690  10.318  0.7536 -2.8978  0.1753
 5378TIP3    H240330   3.426   1.752  10.392  1.8752  0.9959 -1.0390
 5379TIP3   OH240331   1.377   0.653  11.581  0.2857 -0.0574  0.0962
 5379TIP3    H140332   1.379   0.576  11.525 -0.1106 -0.6378  0.8644
 5379TIP3    H240333   1.420   0.721  11.530  3.5507 -1.5607  0.5892
 5380TIP3   OH240334   1.931   0.762  10.238 -0.4082  0.0122 -0.1062
 5380TIP3    H140335   1.962   0.852  10.249  1.9584 -0.8430  0.9745
 5380TIP3    H240336   1.878   0.764  10.158  1.8950  1.8472 -1.7451
 5381TIP3   OH240337   3.556   5.396  11.373 -0.1091 -0.8135  0.1613
 5381TIP3    H140338   3.544   5.435  11.286  0.1735  0.3179  0.6129
 5381TIP3    H240339   3.594   5.310  11.355  1.4939  0.0368 -0.7942
 5382TIP3   OH240340   0.795   4.483   9.588  0.1587 -0.2092 -0.3674
 5382TIP3    H140341   0.827   4.572   9.572  0.1105 -0.4779 -2.0947
 5382TIP3    H240342   0.864   4.426   9.554 -0.2702 -0.8269 -0.2233
 5383TIP3   OH240343   4.901   4.414   9.995 -0.4464  0.3200  0.3536
 5383TIP3    H140344   4.991   4.447   9.984 -0.4425  0.2806  0.2667
 5383TIP3    H240345   4.890   4.408  10.090 -0.4348  0.5405  0.3713
 5384TIP3   OH240346   1.956   4.882  10.261  0.1666  0.3694  0.2257
 5384TIP3    H140347   2.041   4.869  10.303  0.8108  0.4340 -0.9831
 5384TIP3    H240348   1.959   4.974  10.232  0.3428 -0.0584 -1.1751
 5385TIP3   OH240349   4.813   4.189  11.161 -0.2800 -0.4641 -0.0544
 5385TIP3    H140350   4.798   4.227  11.248 -1.0191 -0.1585 -0.3130
 5385TIP3    H240351   4.843   4.262  11.108 -1.6680 -0.2155 -0.5428
 5386TIP3   OH240352   5.921   2.013   9.211  0.1162 -0.0107  0.0370
 5386TIP3    H140353   5.910   2.039   9.302 -0.3993 -1.4874  0.4257
 5386TIP3    H240354   5.832   1.995   9.180  0.2774  0.5709 -0.7933
 5387TIP3   OH240355   4.776   0.129  11.491 -0.0016  0.0151 -0.3300
 5387TIP3    H140356   4.755   0.036  11.482 -0.4019  0.1367 -0.6642
 5387TIP3    H240357   4.693   0.170  11.518 -0.1123  0.4470 -1.3084
 5388TIP3   OH240358   1.562   0.762  11.803  0.5667 -0.4659 -0.3227
 5388TIP3    H140359   1.470   0.752  11.779  0.0948 -1.0715  1.5575
 5388TIP3    H240360   1.599   0.817  11.734 -1.0849 -0.5819 -1.3600
 5389TIP3   OH240361   3.321   6.132  11.457 -0.1157  0.0706 -0.6480
 5389TIP3    H140362   3.371   6.061  11.418  1.3118  1.5123 -1.5835
 5389TIP3    H240363   3.368   6.153  11.538 -1.2189 -0.7907  0.2513
 5390TIP3   OH240364   4.513   2.254  11.194  0.0623  0.0003  0.9552
 5390TIP3    H140365   4.458   2.199  11.250 -2.6716  2.2054  0.6505
 5390TIP3    H240366   4.474   2.247  11.107  0.1688  1.6845  0.7332
 5391TIP3   OH240367   0.521   1.952   0.626 -0.1476 -0.2243  0.0465
 5391TIP3    H140368   0.434   1.919   0.648 -1.1218  1.6461 -0.7651
 5391TIP3    H240369   0.510   1.993   0.540  1.7934 -0.8443 -0.5393
 5392TIP3   OH240370   4.548   6.381   1.548  0.4357  0.1251 -0.4107
 5392TIP3    H140371   4.540   6.454   1.610 -1.7086 -1.2585  1.0867
 5392TIP3    H240372   4.552   6.422   1.462  0.8474  2.0310  0.4656
 5393TIP3   OH240373   6.653   1.557   2.497 -0.2710  0.0814 -0.3410
 5393TIP3    H140374   6.690   1.470   2.511  0.3378  0.5432  1.0701
 5393TIP3    H240375   6.609   1.578   2.579 -0.7569  0.9543 -0.8055
 5394TIP3   OH240376   6.449   1.745   1.832  0.0435 -0.0908 -0.2732
 5394TIP3    H140377   6.379   1.790   1.880  0.5764 -0.4792  0.9177
 5394TIP3    H240378   6.517   1.730   1.898 -1.0643 -4.8403  0.1710
 5395TIP3   OH240379   0.134   5.573   0.767 -0.0364 -0.2513  0.2253
 5395TIP3    H140380   0.204   5.608   0.822  0.2463  1.0977 -0.9253
 5395TIP3    H240381   0.178   5.512   0.708 -0.0442 -0.3992  0.3742
 5396TIP3   OH240382   3.247   5.294   3.861  0.0661 -0.1393  0.0815
 5396TIP3    H140383   3.170   5.307   3.915  0.5707  0.1583  0.7524
 5396TIP3    H240384   3.263   5.199   3.864 -0.9796 -0.3749 -1.0825
 5397TIP3   OH240385   0.105   5.801   2.890  0.0309  0.0719  0.4211
 5397TIP3    H140386   0.173   5.752   2.844  0.0554  1.4766 -1.1133
 5397TIP3    H240387   0.100   5.758   2.976  2.4058 -0.4635  0.3817
 5398TIP3   OH240388   5.991   4.832   2.993  0.0184 -0.0060 -0.0541
 5398TIP3    H140389   6.000   4.916   3.037 -0.8013 -0.2131  0.5407
 5398TIP3    H240390   5.919   4.788   3.040  0.9275 -1.3486  0.1529
 5399TIP3   OH240391   1.850   3.296   1.622 -0.1304 -0.2393  0.1989
 5399TIP3    H140392   1.871   3.272   1.532  0.8510 -1.5067  0.7314
 5399TIP3    H240393   1.864   3.391   1.626  1.6401 -0.4284 -0.5362
 5400TIP3   OH240394   5.533   0.034   3.376 -0.4761  0.0023  0.1381
 5400TIP3    H140395   5.492   0.060   3.294  2.4789  1.0946 -1.1236
 5400TIP3    H240396   5.575   0.114   3.409 -2.0885 -0.2278  3.1463
 5401TIP3   OH240397   4.853   2.793   1.188 -0.2167  0.4752 -0.4753
 5401TIP3    H140398   4.941   2.764   1.165 -0.7914 -0.9940 -0.9131
 5401TIP3    H240399   4.860   2.820   1.280  0.7675  0.8061 -0.6339
 5402TIP3   OH240400   3.405   3.141   1.565 -0.6711 -0.5802 -0.0171
 5402TIP3    H140401   3.406   3.128   1.660 -1.1608  0.1222  0.0921
 5402TIP3    H240402   3.353   3.220   1.552  0.4939  0.0883 -0.7922
 5403TIP3   OH240403   5.897   0.042   1.484 -0.6708 -0.6754 -0.0292
 5403TIP3    H140404   5.875  -0.018   1.555  0.3948 -0.9700  0.0737
 5403TIP3    H240405   5.949   0.110   1.525 -0.4643 -0.5812 -0.4376
 5404TIP3   OH240406   2.102   3.397   2.422  0.4180 -0.2920 -0.5849
 5404TIP3    H140407   2.178   3.408   2.365  0.5714 -1.5110 -0.6431
 5404TIP3    H240408   2.039   3.461   2.390  1.5176  0.9660 -0.3366
 5405TIP3   OH240409   4.448   1.253   2.429  0.1332  0.1941 -0.0170
 5405TIP3    H140410   4.408   1.267   2.343 -0.6229  1.2296  0.4752
 5405TIP3    H240411   4.466   1.159   2.432 -0.4626  0.0241 -1.0369
 5406TIP3   OH240412   2.998   3.158   1.574 -0.5970 -0.2034  0.2625
 5406TIP3    H140413   2.925   3.216   1.591 -0.3278  0.3554 -0.4455
 5406TIP3    H240414   3.010   3.109   1.656 -0.9212  0.6288  0.8164
 5407TIP3   OH240415   5.893   5.218   0.803  0.0102 -0.1673 -0.4510
 5407TIP3    H140416   5.894   5.126   0.829 -1.1866 -0.0357  0.1515
 5407TIP3    H240417   5.806   5.249   0.828  0.3423  1.0976 -0.7726
 5408TIP3   OH240418   4.396   0.966   2.402  0.0323  0.3176  0.0455
 5408TIP3    H140419   4.322   1.027   2.403 -0.7262 -0.5750  0.2094
 5408TIP3    H240420   4.371   0.899   2.339  0.5233 -0.2120  0.3952
 5409TIP3   OH240421   4.934   3.037   2.634  0.0223 -0.0300  0.1634
 5409TIP3    H140422   4.931   2.944   2.652 -1.6886  0.0633  0.5330
 5409TIP3    H240423   4.992   3.073   2.701  1.3900 -0.9018 -0.5063
 5410TIP3   OH240424   0.829   2.618   2.916  0.0835 -0.1031 -0.0204
 5410TIP3    H140425   0.858   2.528   2.934  1.7660  0.4177  0.0860
 5410TIP3    H240426   0.748   2.628   2.965 -1.0392 -2.0798 -1.3241
 5411TIP3   OH240427   4.723   5.789   1.932  0.0531  0.1932  0.2334
 5411TIP3    H140428   4.792   5.784   1.998  0.8046 -1.4430 -0.6085
 5411TIP3    H240429   4.722   5.881   1.904  0.5952  0.6249  1.5880
 5412TIP3   OH240430   4.497   2.657   1.308  0.2080 -0.0796  0.0383
 5412TIP3    H140431   4.462   2.746   1.295 -0.1157 -0.0040  1.2770
 5412TIP3    H240432   4.588   2.663   1.279 -0.3863  0.0785 -1.9389
 5413TIP3   OH240433   5.574   4.782   1.072 -0.1362 -0.5861 -0.4310
 5413TIP3    H140434   5.636   4.717   1.106 -0.3744 -1.1475 -1.0429
 5413TIP3    H240435   5.624   4.863   1.068  0.2056 -0.7596  0.2277
 5414TIP3   OH240436   0.133   4.509   4.114  0.3629 -0.2909  0.1933
 5414TIP3    H140437   0.206   4.464   4.157  0.5648  0.7589  1.0148
 5414TIP3    H240438   0.056   4.457   4.137  0.6073 -0.3319  0.9836
 5415TIP3   OH240439   5.096   2.769   2.984 -0.2221 -0.0467  0.3568
 5415TIP3    H140440   5.125   2.834   3.048 -0.2378  0.4731 -0.1553
 5415TIP3    H240441   5.165   2.767   2.918  0.5892 -1.7528  1.1787
 5416TIP3   OH240442   3.691   4.694   3.655  0.5977  0.1473  0.0350
 5416TIP3    H140443   3.671   4.607   3.622  3.1324 -0.2526 -0.6226
 5416TIP3    H240444   3.730   4.679   3.741 -0.1091  0.7455  0.4729
 5417TIP3   OH240445   2.993   6.460   1.614  0.4952  0.0495 -0.1201
 5417TIP3    H140446   2.925   6.520   1.582 -0.4032  0.9145  3.0530
 5417TIP3    H240447   3.075   6.499   1.584 -0.2395  0.8108 -1.2328
 5418TIP3   OH240448   3.699   6.447   3.239 -0.2531 -0.2043  0.0555
 5418TIP3    H140449   3.712   6.376   3.302  1.1956 -0.2563 -0.2687
 5418TIP3    H240450   3.699   6.526   3.292  1.5214 -0.2023  0.1128
 5419TIP3   OH240451   1.307   3.472   2.596 -0.3473  0.5680  0.3573
 5419TIP3    H140452   1.385   3.504   2.640 -0.3239  0.9605  0.0370
 5419TIP3    H240453   1.238   3.475   2.662  0.1929 -1.0576  1.0390
 5420TIP3   OH240454   5.799   5.291   1.712  0.5912  0.2597  0.0911
 5420TIP3    H140455   5.773   5.363   1.769 -1.4949 -0.6993  0.4574
 5420TIP3    H240456   5.894   5.301   1.702  0.5082  2.4269  0.9433
 5421TIP3   OH240457   6.048   5.033   3.778 -0.2300 -0.2896  0.3382
 5421TIP3    H140458   6.120   5.015   3.718 -0.2001 -0.0692  0.3074
 5421TIP3    H240459   6.077   4.995   3.862  0.3326  0.6067  0.5688
 5422TIP3   OH240460   2.315   1.495   2.582 -0.3346  0.0238 -0.3114
 5422TIP3    H140461   2.408   1.516   2.570 -0.3780  0.4468  0.0775
 5422TIP3    H240462   2.290   1.449   2.501  1.1565 -3.5568  1.0446
 5423TIP3   OH240463   2.550   5.638   3.335 -0.3205 -0.5194 -0.2549
 5423TIP3    H140464   2.599   5.622   3.416  2.0616  1.8549 -1.0398
 5423TIP3    H240465   2.541   5.552   3.294  1.7116 -1.3152  0.8283
 5424TIP3   OH240466   1.532   6.260   1.131 -0.2017  0.2946 -0.3558
 5424TIP3    H140467   1.541   6.297   1.219 -1.1999  0.4344 -0.3036
 5424TIP3    H240468   1.613   6.283   1.087  0.6990 -0.5188  0.7982
 5425TIP3   OH240469   4.415   1.413   1.815  0.4003 -0.9066  0.5476
 5425TIP3    H140470   4.334   1.394   1.769  0.2120 -0.6440  0.7619
 5425TIP3    H240471   4.446   1.495   1.776  1.0851 -1.5127 -0.2153
 5426TIP3   OH240472   2.838   2.411   3.493 -0.3448 -0.3156 -0.0670
 5426TIP3    H140473   2.932   2.407   3.480 -0.4154 -2.7551 -0.2022
 5426TIP3    H240474   2.827   2.442   3.583  0.5693 -0.2150  0.0199
 5427TIP3   OH240475   1.377   3.650   3.833 -0.4089 -0.4686 -0.1810
 5427TIP3    H140476   1.320   3.578   3.862 -0.2530 -0.0143  1.3707
 5427TIP3    H240477   1.324   3.729   3.846 -0.0976 -0.1904 -0.5811
 5428TIP3   OH240478   1.062   1.090   3.198 -0.0910 -0.6332  0.5946
 5428TIP3    H140479   1.137   1.030   3.203 -0.4091 -1.0002  1.0740
 5428TIP3    H240480   1.095   1.172   3.233  0.0121 -0.8797  1.0900
 5429TIP3   OH240481   5.207   2.069   1.756  0.2895  0.0631 -0.0255
 5429TIP3    H140482   5.282   2.011   1.750 -0.0503 -0.3010 -0.7786
 5429TIP3    H240483   5.227   2.126   1.831  1.1963 -0.1834 -0.0742
 5430TIP3   OH240484   2.131   1.919   3.111  0.2261  0.3768 -0.7129
 5430TIP3    H140485   2.120   2.012   3.129  1.2751  0.0798  1.9081
 5430TIP3    H240486   2.203   1.891   3.167  0.7267 -1.8041 -2.2855
 5431TIP3   OH240487   4.119   4.910   2.425  0.1634  0.2592 -0.2112
 5431TIP3    H140488   4.146   5.002   2.430  0.7442  0.0392  0.9558
 5431TIP3    H240489   4.198   4.861   2.446 -0.4701 -0.4689  0.5324
 5432TIP3   OH240490   3.624   3.608   2.911  0.3461 -0.1108 -0.0445
 5432TIP3    H140491   3.588   3.579   2.828 -0.0267 -0.7394  0.3344
 5432TIP3    H240492   3.717   3.587   2.906  0.1051 -1.2850  0.1768
 5433TIP3   OH240493   4.456   2.581   3.388 -0.3564 -0.6847  0.5631
 5433TIP3    H140494   4.501   2.643   3.446  0.4893 -0.6519 -0.0956
 5433TIP3    H240495   4.367   2.616   3.380  0.5589  1.5366 -1.2139
 5434TIP3   OH240496   3.639   5.079   1.027 -0.4294  0.3493 -1.1509
 5434TIP3    H140497   3.694   5.069   0.949 -0.7890  0.9332 -1.4866
 5434TIP3    H240498   3.553   5.047   1.000 -0.2608 -0.5890 -0.6181
 5435TIP3   OH240499   5.860   2.732   2.955  0.0497 -0.1275 -0.1770
 5435TIP3    H140500   5.899   2.806   2.909  0.8140 -0.2618  0.2458
 5435TIP3    H240501   5.918   2.659   2.938  0.7988 -0.0028  1.6356
 5436TIP3   OH240502   0.045   5.342   1.276 -0.2021 -0.2084 -0.4686
 5436TIP3    H140503   0.004   5.425   1.302 -2.2677 -0.9095 -1.3024
 5436TIP3    H240504   0.137   5.364   1.260 -0.6390  1.8403 -0.3577
 5437TIP3   OH240505   4.937   4.842   2.746 -0.3899 -0.6731  0.1931
 5437TIP3    H140506   5.001   4.907   2.717 -0.4235  0.4566  2.4666
 5437TIP3    H240507   4.990   4.765   2.767  0.2029  0.0472  1.4717
 5438TIP3   OH240508   4.662   0.558   3.196  0.0010 -0.6158  0.2248
 5438TIP3    H140509   4.706   0.593   3.274 -0.2263  0.4110 -0.0946
 5438TIP3    H240510   4.580   0.521   3.229  0.4879 -1.3627  0.6394
 5439TIP3   OH240511   1.574   2.056   2.351  0.1339  0.2915  0.2888
 5439TIP3    H140512   1.546   1.968   2.377  1.2629 -0.0434  0.4449
 5439TIP3    H240513   1.583   2.103   2.434 -3.1427  1.4685  0.1071
 5440TIP3   OH240514   0.629   2.875   1.257  0.9604  0.0167  0.1885
 5440TIP3    H140515   0.695   2.926   1.208  1.6610 -0.2056  0.8765
 5440TIP3    H240516   0.631   2.788   1.215  0.2335  0.3532 -0.5640
 5441TIP3   OH240517   1.785   3.432   2.954 -0.4012 -0.0139 -0.3331
 5441TIP3    H140518   1.734   3.499   3.000  0.0447  0.2178 -0.1769
 5441TIP3    H240519   1.843   3.397   3.021  0.3284  0.3949 -0.7426
 5442TIP3   OH240520   0.703   4.612   0.634  0.4193 -0.0479 -0.2656
 5442TIP3    H140521   0.758   4.566   0.698  0.4264 -1.0941 -1.0037
 5442TIP3    H240522   0.757   4.618   0.556 -0.1933 -0.2596 -0.7080
 5443TIP3   OH240523   0.337   5.720   0.911  0.3227 -0.0757 -0.2368
 5443TIP3    H140524   0.339   5.810   0.944  1.9522  0.1774 -0.9392
 5443TIP3    H240525   0.359   5.666   0.987 -1.0720  0.0561  0.2897
 5444TIP3   OH240526   2.684   4.975   2.937 -0.7048 -0.2906  0.3317
 5444TIP3    H140527   2.617   5.021   2.887 -1.5963 -2.5629 -0.6781
 5444TIP3    H240528   2.761   4.974   2.879 -0.2502  0.9850  0.8780
 5445TIP3   OH240529   0.395   5.893   2.746  0.1030  0.4908 -0.3147
 5445TIP3    H140530   0.484   5.901   2.782  1.2961  0.9047 -3.0432
 5445TIP3    H240531   0.375   5.800   2.752 -0.3384  0.6746  2.4387
 5446TIP3   OH240532   0.142   2.114   0.700 -0.3692 -0.4239  0.2065
 5446TIP3    H140533   0.072   2.054   0.727 -0.3661  0.3136  1.9667
 5446TIP3    H240534   0.196   2.125   0.779 -0.7611  2.4086  0.1765
 5447TIP3   OH240535   4.205   3.360   3.253 -0.8035  0.2874  0.2403
 5447TIP3    H140536   4.208   3.411   3.172  0.0366  0.5821  0.4428
 5447TIP3    H240537   4.284   3.386   3.300 -0.4724 -1.0204  0.4561
 5448TIP3   OH240538   5.694   0.709   1.423  0.3598  0.4026  0.2224
 5448TIP3    H140539   5.722   0.650   1.353  0.6560  0.8628 -0.0535
 5448TIP3    H240540   5.774   0.753   1.451  0.5657 -1.0111  2.0558
 5449TIP3   OH240541   1.076   6.133   2.066 -0.2486 -0.2951 -0.1370
 5449TIP3    H140542   1.069   6.042   2.096  1.1829 -0.2629  0.3550
 5449TIP3    H240543   1.087   6.126   1.971  0.6722 -0.6934 -0.0092
 5450TIP3   OH240544   2.280   0.464   1.063  0.1261 -0.0627 -0.3276
 5450TIP3    H140545   2.325   0.513   0.993  1.9667 -0.4500  0.5113
 5450TIP3    H240546   2.263   0.378   1.024  0.4338 -0.0188 -0.5693
 5451TIP3   OH240547   0.927   6.200   3.347  0.3165 -0.0775  0.3575
 5451TIP3    H140548   0.920   6.262   3.275 -3.1953  0.5443  1.0597
 5451TIP3    H240549   0.962   6.251   3.420  0.0028  0.3588  0.2017
 5452TIP3   OH240550   6.596   3.676   0.831  0.0759  0.0616  0.1242
 5452TIP3    H140551   6.515   3.727   0.837  1.3611  2.2383  0.1351
 5452TIP3    H240552   6.607   3.638   0.918 -0.3109  0.8060  0.5086
 5453TIP3   OH240553   0.903   2.236   1.640 -0.1253 -0.1868  0.0271
 5453TIP3    H140554   0.811   2.209   1.641  0.1117 -1.3278 -2.2748
 5453TIP3    H240555   0.931   2.221   1.550  2.2365  0.5053  0.5849
 5454TIP3   OH240556   2.339   6.460   2.976  0.0171  0.5698 -0.1746
 5454TIP3    H140557   2.332   6.386   3.035  1.7877 -0.0407 -0.6640
 5454TIP3    H240558   2.321   6.537   3.031 -1.3835 -0.1571  0.4310
 5455TIP3   OH240559   3.974   6.698   2.547 -0.1856 -0.4342 -0.0092
 5455TIP3    H140560   3.912   6.768   2.525  0.9586  0.2646 -1.1552
 5455TIP3    H240561   3.978   6.699   2.642 -2.2388 -0.7894  0.1239
 5456TIP3   OH240562   0.725   5.280   2.339  0.1266 -0.0394 -0.4557
 5456TIP3    H140563   0.807   5.328   2.345  0.6728 -0.9789 -0.1080
 5456TIP3    H240564   0.661   5.337   2.381  1.1687 -0.5013  1.9391
 5457TIP3   OH240565   0.214   2.625   1.112  0.0711 -0.1894 -0.3603
 5457TIP3    H140566   0.183   2.583   1.193  0.3931  0.2189 -0.0212
 5457TIP3    H240567   0.144   2.609   1.049 -0.5049  0.0704  0.1935
 5458TIP3   OH240568   6.083   4.501   4.185 -0.1440 -0.3777  0.3635
 5458TIP3    H140569   6.047   4.566   4.124  1.7230  0.9607  0.6066
 5458TIP3    H240570   6.147   4.452   4.133  0.4494 -0.1499  0.8678
 5459TIP3   OH240571   5.471   3.680   2.202 -0.4481 -0.5515  0.0228
 5459TIP3    H140572   5.533   3.709   2.270  0.0320 -0.5069 -0.4334
 5459TIP3    H240573   5.399   3.744   2.207 -0.0601 -0.1070 -0.0132
 5460TIP3   OH240574   1.300   4.999   3.054  0.3655  0.2172 -0.1587
 5460TIP3    H140575   1.372   5.051   3.089  0.9730 -0.8489  0.2212
 5460TIP3    H240576   1.228   5.014   3.115  1.0124 -0.5845  0.8317
 5461TIP3   OH240577   3.646   5.676   3.151  0.4775 -0.4297  0.0314
 5461TIP3    H140578   3.716   5.740   3.143  1.4627 -1.4290  0.3615
 5461TIP3    H240579   3.670   5.606   3.091  0.1027 -1.0720  0.6100
 5462TIP3   OH240580   5.064   0.194   2.747  0.5879 -0.7323 -0.4550
 5462TIP3    H140581   5.079   0.197   2.842 -2.8471 -0.7050  0.2207
 5462TIP3    H240582   5.142   0.234   2.709  1.3238  0.8786  2.4671
 5463TIP3   OH240583   2.252   4.238   1.388  0.4083  0.5938  0.1306
 5463TIP3    H140584   2.257   4.180   1.463  0.2857  0.4842  0.0543
 5463TIP3    H240585   2.233   4.324   1.425  2.0160  0.8864  0.3784
 5464TIP3   OH240586   5.387   2.611   2.928  0.0030  0.1757 -0.0169
 5464TIP3    H140587   5.471   2.598   2.884  0.1854  0.5935  0.1992
 5464TIP3    H240588   5.324   2.620   2.856  0.0402 -0.7606 -0.1728
 5465TIP3   OH240589   1.970   2.563   3.254 -0.2353 -0.5305  0.2605
 5465TIP3    H140590   1.891   2.577   3.307  0.3065 -0.4163  1.0537
 5465TIP3    H240591   1.939   2.569   3.163 -1.1071 -0.3134  0.5600
 5466TIP3   OH240592   5.708   2.033   2.985 -0.3570  0.1605  0.2514
 5466TIP3    H140593   5.745   2.093   3.049 -0.9934  1.2032 -0.3241
 5466TIP3    H240594   5.781   2.009   2.929  0.5827 -2.0600  2.2683
 5467TIP3   OH240595   1.379   1.597   2.310  0.3616  0.3290  0.3676
 5467TIP3    H140596   1.302   1.553   2.346 -0.2224 -0.4874 -1.7232
 5467TIP3    H240597   1.453   1.543   2.338 -0.3245 -2.0417 -2.0049
 5468TIP3   OH240598   0.723   4.291   1.533  0.2362 -0.7933  0.6364
 5468TIP3    H140599   0.664   4.218   1.550  0.3822 -1.2370 -0.6459
 5468TIP3    H240600   0.805   4.250   1.505  0.2559 -0.1417 -0.2949
 5469TIP3   OH240601   5.641   2.493   2.820  0.2130 -0.5391 -0.1607
 5469TIP3    H140602   5.656   2.546   2.742  1.7484 -0.3590  0.2194
 5469TIP3    H240603   5.719   2.438   2.828  1.3933  1.2465  2.5934
 5470TIP3   OH240604   3.021   0.500   3.697 -0.5186  0.3490 -0.1833
 5470TIP3    H140605   3.093   0.516   3.636 -1.3955  1.2110 -1.0283
 5470TIP3    H240606   2.986   0.415   3.670  0.8910 -0.6589  0.9952
 5471TIP3   OH240607   0.923   6.388   1.343 -0.8158 -0.5974 -0.1852
 5471TIP3    H140608   0.892   6.343   1.422  0.5492 -1.9953 -0.3944
 5471TIP3    H240609   0.996   6.443   1.373 -1.2927  0.0697 -0.2324
 5472TIP3   OH240610   3.770   5.550   1.191  0.3442 -0.2055 -0.1159
 5472TIP3    H140611   3.689   5.596   1.167  0.7485  0.6408  0.1196
 5472TIP3    H240612   3.741   5.461   1.212 -1.1914  1.0149  3.9248
 5473TIP3   OH240613   4.026   6.388   0.962  0.1372  0.1868  0.3876
 5473TIP3    H140614   3.934   6.365   0.974  0.1811 -0.3490 -0.2593
 5473TIP3    H240615   4.075   6.311   0.991  0.3154 -0.2296 -0.9470
 5474TIP3   OH240616   0.975   2.672   1.957  0.7450  0.2287 -0.6460
 5474TIP3    H140617   0.970   2.593   2.011  2.5690  0.2463 -0.4017
 5474TIP3    H240618   0.925   2.650   1.878 -2.1502  0.2587  1.0042
 5475TIP3   OH240619   0.764   1.783   3.568  0.2227 -0.5957 -0.2416
 5475TIP3    H140620   0.740   1.697   3.603  0.3034 -0.2578  0.6762
 5475TIP3    H240621   0.754   1.775   3.474 -0.0903 -1.5150 -0.1334
 5476TIP3   OH240622   6.332   2.615   0.945  0.0275 -0.0304  0.3911
 5476TIP3    H140623   6.345   2.571   0.861  0.7402 -2.2667  1.5720
 5476TIP3    H240624   6.251   2.576   0.980  0.3294  0.0532  1.2070
 5477TIP3   OH240625   0.765   0.912   2.808 -0.5630  0.1765  0.0852
 5477TIP3    H140626   0.779   0.992   2.859  1.8272  0.1385 -0.3992
 5477TIP3    H240627   0.853   0.881   2.787 -1.4471 -1.8320 -0.9399
 5478TIP3   OH240628   2.098   4.992   0.761 -0.5506 -0.2684  0.0945
 5478TIP3    H140629   2.193   4.992   0.775 -0.0866  0.8717 -2.4456
 5478TIP3    H240630   2.066   4.918   0.812  1.5814 -0.2208  1.6327
 5479TIP3   OH240631   4.417   0.455   3.337  0.7187  0.2047 -0.3189
 5479TIP3    H140632   4.343   0.470   3.278 -0.4656  1.4485  1.4138
 5479TIP3    H240633   4.396   0.504   3.416  1.6003 -2.4136  1.7005
 5480TIP3   OH240634   0.433   5.237   2.816  0.2790  0.8355 -0.0119
 5480TIP3    H140635   0.464   5.163   2.763 -1.3391 -1.1031  1.6133
 5480TIP3    H240636   0.370   5.282   2.759 -0.7256 -0.6473 -0.1150
 5481TIP3   OH240637   3.430   5.648   1.394 -0.5338 -0.2771 -0.0178
 5481TIP3    H140638   3.360   5.695   1.440 -1.0704 -0.3509 -0.7427
 5481TIP3    H240639   3.501   5.712   1.387 -0.6789 -0.0717  0.3784
 5482TIP3   OH240640   4.340   1.578   1.142 -0.1437  0.4865  0.0628
 5482TIP3    H140641   4.434   1.559   1.150 -0.0217  0.5798 -1.0080
 5482TIP3    H240642   4.305   1.559   1.229  0.4629 -1.8896 -0.1461
 5483TIP3   OH240643   0.100   5.681   3.157 -0.3733 -0.1101  0.8166
 5483TIP3    H140644   0.009   5.700   3.178  0.2810  1.9102  2.1233
 5483TIP3    H240645   0.136   5.642   3.236  0.4020  1.0921  1.0750
 5484TIP3   OH240646   0.516   1.364   1.204 -0.1717 -0.0866 -0.7939
 5484TIP3    H140647   0.526   1.459   1.213 -1.3960 -0.0264  0.2418
 5484TIP3    H240648   0.583   1.339   1.141  1.2947  1.2240  0.1643
 5485TIP3   OH240649   5.629   5.928   3.364 -0.4852  0.1663  0.4422
 5485TIP3    H140650   5.610   5.862   3.298 -0.0384  0.2800  0.2006
 5485TIP3    H240651   5.570   5.907   3.437  0.7556 -1.4914  1.0303
 5486TIP3   OH240652   2.292   2.547   3.846  0.7866  0.7859  0.1849
 5486TIP3    H140653   2.332   2.534   3.932  1.3025  0.1882 -0.1393
 5486TIP3    H240654   2.350   2.502   3.785  1.5871  2.9681 -0.7573
 5487TIP3   OH240655   0.871   1.067   2.269  0.1465  0.2798 -0.3385
 5487TIP3    H140656   0.953   1.075   2.317 -0.1569 -1.0677  0.4660
 5487TIP3    H240657   0.809   1.124   2.316  0.5507  1.1422 -0.8298
 5488TIP3   OH240658   5.077   2.990   1.338 -0.0346 -0.1139  0.3916
 5488TIP3    H140659   5.097   3.073   1.296 -0.8817 -0.1762 -0.1528
 5488TIP3    H240660   4.982   2.986   1.341 -0.0474 -1.5140 -0.5307
 5489TIP3   OH240661   0.983   3.315   2.641  0.2002 -0.0588  0.4217
 5489TIP3    H140662   1.001   3.227   2.674  0.0348  0.4060  1.8372
 5489TIP3    H240663   0.968   3.367   2.720  1.2034  1.4475 -0.3213
 5490TIP3   OH240664   4.361   4.291   1.506 -0.0516  0.2396  0.3583
 5490TIP3    H140665   4.387   4.325   1.592  1.8841 -2.2822  0.8906
 5490TIP3    H240666   4.270   4.265   1.518  0.6486 -1.6237  2.2755
 5491TIP3   OH240667   1.439   1.094   3.805  0.1175  0.1804  0.3060
 5491TIP3    H140668   1.376   1.050   3.861  0.7333 -1.9448 -0.5930
 5491TIP3    H240669   1.389   1.163   3.761 -1.6631 -1.5788 -0.5618
 5492TIP3   OH240670   6.296   0.684   3.141  0.6562 -0.1151  0.0730
 5492TIP3    H140671   6.272   0.615   3.079  1.9539 -0.9699  0.5043
 5492TIP3    H240672   6.304   0.762   3.086 -1.9337  0.0135 -0.2583
 5493TIP3   OH240673   0.714   2.632   1.092  0.3259  0.2213  0.3037
 5493TIP3    H140674   0.633   2.585   1.072 -0.6561  1.2813  1.6870
 5493TIP3    H240675   0.711   2.710   1.037 -0.2025  0.8839  1.2628
 5494TIP3   OH240676   5.665   5.593   1.578 -0.1843 -0.0274 -0.1255
 5494TIP3    H140677   5.592   5.531   1.573 -0.4294  0.2277  0.2093
 5494TIP3    H240678   5.623   5.677   1.598  0.3016 -0.1368  1.5345
 5495TIP3   OH240679   1.104   1.980   1.344  0.4270  0.2579 -0.1024
 5495TIP3    H140680   1.177   1.994   1.285  1.5748  0.1079  1.2241
 5495TIP3    H240681   1.100   2.059   1.397  0.2709 -0.1337  0.4852
 5496TIP3   OH240682   2.101   2.736   4.071 -0.2538  0.2174  0.5277
 5496TIP3    H140683   2.183   2.757   4.027  1.0187 -1.7399  1.7971
 5496TIP3    H240684   2.114   2.764   4.161  0.9545 -4.1283  1.9311
 5497TIP3   OH240685   4.460   2.491   0.997  0.3455 -0.3982  0.3800
 5497TIP3    H140686   4.437   2.519   1.085 -0.0187  0.1235  0.1233
 5497TIP3    H240687   4.400   2.539   0.940 -0.3030 -1.7010 -0.0709
 5498TIP3   OH240688   3.678   4.631   1.926 -0.6042 -0.0306 -0.1362
 5498TIP3    H140689   3.600   4.676   1.893 -0.2119  0.9194  0.2071
 5498TIP3    H240690   3.738   4.701   1.951  0.5321 -0.7498 -0.7803
 5499TIP3   OH240691   3.784   5.454   3.816 -1.0261  0.0168 -0.5725
 5499TIP3    H140692   3.725   5.389   3.777  0.3307 -0.2695 -2.2276
 5499TIP3    H240693   3.872   5.419   3.801 -0.1533  2.8270 -2.7609
 5500TIP3   OH240694   1.601   3.325   1.224  0.2692  0.2318 -0.3595
 5500TIP3    H140695   1.602   3.378   1.144  0.5436  1.2847  0.3155
 5500TIP3    H240696   1.690   3.293   1.233  0.6241  1.3272  0.2768
 5501TIP3   OH240697   3.105   3.057   1.321 -0.5284  0.2084 -0.2961
 5501TIP3    H140698   3.065   3.121   1.261 -0.0618 -1.6935 -2.8172
 5501TIP3    H240699   3.060   3.071   1.404 -1.8917  2.3943 -1.3086
 5502TIP3   OH240700   6.028   1.657   1.765 -0.4899 -0.5358 -0.1125
 5502TIP3    H140701   5.944   1.670   1.808 -1.7360 -1.6385 -2.0175
 5502TIP3    H240702   6.057   1.745   1.741 -2.5738 -0.2548 -1.9299
 5503TIP3   OH240703   4.808   5.595   3.286 -0.0910 -0.1918 -0.1644
 5503TIP3    H140704   4.810   5.691   3.283  1.0578 -0.2103 -0.6561
 5503TIP3    H240705   4.765   5.574   3.369  4.0307  0.8297  2.5602
 5504TIP3   OH240706   4.347   5.838   1.029  0.3870 -0.0468 -0.1222
 5504TIP3    H140707   4.410   5.779   0.988  0.2799  0.8515 -1.6871
 5504TIP3    H240708   4.288   5.780   1.077  0.5590 -1.1736 -1.2086
 5505TIP3   OH240709   3.848   1.735   1.583 -0.8893  0.4127  0.6740
 5505TIP3    H140710   3.906   1.784   1.524  0.0223 -0.9959  0.3545
 5505TIP3    H240711   3.824   1.799   1.650  1.5156  0.9240  1.1577
 5506TIP3   OH240712   1.907   2.636   1.850  0.2229  0.3793  0.1682
 5506TIP3    H140713   1.968   2.591   1.791 -0.1003 -0.1068  0.2050
 5506TIP3    H240714   1.959   2.707   1.888  1.1435 -0.7618  1.1280
 5507TIP3   OH240715   0.584   2.634   3.058 -0.4328 -0.1437  0.1923
 5507TIP3    H140716   0.493   2.615   3.034 -0.0184 -2.0416 -0.0180
 5507TIP3    H240717   0.590   2.729   3.053 -1.8362 -0.1028 -1.8810
 5508TIP3   OH240718   0.693   0.247   3.123  0.0873  0.4146 -0.4089
 5508TIP3    H140719   0.680   0.251   3.029 -3.9219 -3.4672 -0.3439
 5508TIP3    H240720   0.767   0.186   3.134 -0.7690 -0.8054 -1.1479
 5509TIP3   OH240721   3.108   2.842   0.436 -0.2384  0.6918 -0.2113
 5509TIP3    H140722   3.072   2.925   0.406 -1.8913 -0.0403 -0.3672
 5509TIP3    H240723   3.033   2.784   0.442  0.6482 -0.3882  1.3245
 5510TIP3   OH240724   4.502   3.752   1.367 -0.3303  0.3352 -0.5606
 5510TIP3    H140725   4.415   3.792   1.357 -0.4697 -0.1610 -1.4319
 5510TIP3    H240726   4.525   3.723   1.279  1.7298  2.4814 -0.8172
 5511TIP3   OH240727   3.388   1.608   3.853 -0.0738 -0.4336  0.0624
 5511TIP3    H140728   3.308   1.565   3.884  0.0100 -0.9901 -0.4593
 5511TIP3    H240729   3.357   1.688   3.810 -0.5292 -1.4872 -1.6535
 5512TIP3   OH240730   6.650   0.850   1.138 -0.4245 -0.5888 -0.4238
 5512TIP3    H140731   6.572   0.811   1.176  0.5535 -0.0963  2.3360
 5512TIP3    H240732   6.722   0.796   1.170  0.5879  0.8682 -0.1305
 5513TIP3   OH240733   4.561   3.314   2.168 -0.0092 -0.2591  0.3390
 5513TIP3    H140734   4.550   3.372   2.244  0.6686 -0.3674  0.5273
 5513TIP3    H240735   4.655   3.296   2.165  0.0136 -0.0277 -0.6996
 5514TIP3   OH240736   1.353   6.100   3.818 -0.2293  0.1466  0.3082
 5514TIP3    H140737   1.408   6.110   3.896 -1.1088  0.9661  0.8462
 5514TIP3    H240738   1.313   6.013   3.828  0.3604 -0.1297  0.3037
 5515TIP3   OH240739   3.178   3.676   2.176 -0.1937  0.1774 -0.0083
 5515TIP3    H140740   3.244   3.607   2.180  0.5152  0.8593  0.3519
 5515TIP3    H240741   3.124   3.653   2.100  0.0059 -0.7814  0.1208
 5516TIP3   OH240742   1.337   4.748   3.190  0.6728 -0.1779 -0.6481
 5516TIP3    H140743   1.327   4.821   3.129 -0.1251  1.8216  1.7288
 5516TIP3    H240744   1.250   4.711   3.199  0.4650  0.5073  0.3536
 5517TIP3   OH240745   2.007   5.750  11.679  0.7430 -0.0350  0.4260
 5517TIP3    H140746   2.093   5.733  11.640 -0.0542 -1.3565 -0.8613
 5517TIP3    H240747   2.009   5.843  11.704  1.9752  0.3657 -1.0640
 5518TIP3   OH240748   5.741   1.481   1.998 -0.1860  0.2547  0.4189
 5518TIP3    H140749   5.803   1.532   2.050  1.6772  0.0666 -1.4954
 5518TIP3    H240750   5.681   1.546   1.962 -0.6723  0.5289  1.6687
 5519TIP3   OH240751   1.126   2.218   1.101  0.0781 -0.2570 -0.4064
 5519TIP3    H140752   1.049   2.162   1.098 -0.1256 -0.0598  0.7728
 5519TIP3    H240753   1.199   2.159   1.117 -0.0655 -0.2497  0.2842
 5520TIP3   OH240754   1.152   2.657   1.693  0.0852  0.7896  0.2540
 5520TIP3    H140755   1.173   2.580   1.746  0.6858  1.4754  1.0574
 5520TIP3    H240756   1.090   2.626   1.628 -1.0511  0.0046  1.6532
 5521TIP3   OH240757   1.495   3.647   2.723  0.0663 -0.1657 -0.1607
 5521TIP3    H140758   1.472   3.617   2.810  0.3729 -0.3720 -0.1489
 5521TIP3    H240759   1.590   3.658   2.726  0.0773 -0.1697 -0.4676
 5522TIP3   OH240760   3.350   6.326   2.446  0.2053  0.2876  0.1304
 5522TIP3    H140761   3.396   6.269   2.507  1.6194  1.4329  0.1877
 5522TIP3    H240762   3.261   6.291   2.442  1.0660 -2.0071 -0.0086
 5523TIP3   OH240763   1.916   1.475   0.998  0.3703  0.2929 -0.3199
 5523TIP3    H140764   1.848   1.507   1.058  0.3539 -0.0226 -0.1681
 5523TIP3    H240765   1.867   1.438   0.925  0.3779  0.0993 -0.2279
 5524TIP3   OH240766   0.677   0.544   1.841  0.5393 -0.4578  0.0809
 5524TIP3    H140767   0.656   0.590   1.759 -1.5499 -0.7889  0.3799
 5524TIP3    H240768   0.680   0.613   1.907  2.2829 -0.1823 -0.2259
 5525TIP3   OH240769   0.286   0.122   2.500  0.3465 -0.3919  0.3018
 5525TIP3    H140770   0.320   0.149   2.415 -2.2425 -0.9838 -1.0373
 5525TIP3    H240771   0.244   0.200   2.535  0.0322 -0.5518  0.2856
 5526TIP3   OH240772   1.073   5.985   2.448 -0.1643  0.0323 -0.6557
 5526TIP3    H140773   1.109   5.996   2.536  0.1364  0.6524 -0.8498
 5526TIP3    H240774   1.071   5.890   2.435  1.1767 -0.0340 -0.5417
 5527TIP3   OH240775   1.989   3.583   1.098  0.1218  0.2393 -0.4612
 5527TIP3    H140776   2.035   3.641   1.158  1.1348 -1.2428  0.2513
 5527TIP3    H240777   1.914   3.551   1.148  0.2436  0.0034 -0.4282
 5528TIP3   OH240778   6.135   1.264   2.437 -0.4450 -0.5377 -0.3684
 5528TIP3    H140779   6.217   1.308   2.460 -0.4080  0.1419 -1.6960
 5528TIP3    H240780   6.148   1.173   2.463 -0.5657  0.1763  2.5748
 5529TIP3   OH240781   5.067   3.667   9.487  0.3300 -0.0784  0.1139
 5529TIP3    H140782   5.059   3.587   9.539 -0.4640  0.2232  0.4687
 5529TIP3    H240783   5.048   3.738   9.550  4.3660  0.6836  0.7442
 5530TIP3   OH240784   2.671   4.872   1.466 -0.1148 -0.2380  0.2214
 5530TIP3    H140785   2.751   4.899   1.420  0.8332 -0.7524  1.5324
 5530TIP3    H240786   2.603   4.929   1.429  0.8290  0.1725 -0.9611
 5531TIP3   OH240787   3.873   6.563   1.309  0.4036  0.3264 -0.0612
 5531TIP3    H140788   3.923   6.642   1.332 -0.9879  1.4016 -0.5879
 5531TIP3    H240789   3.796   6.596   1.263  0.8917 -1.4573 -2.3828
 5532TIP3   OH240790   2.698   1.390   1.915 -0.0582 -0.7411  0.5745
 5532TIP3    H140791   2.624   1.364   1.861 -0.5675 -0.9485  1.3576
 5532TIP3    H240792   2.666   1.465   1.966  0.5944 -0.1815  0.1852
 5533TIP3   OH240793   5.714   3.303   2.002 -0.2892  0.1747 -0.0011
 5533TIP3    H140794   5.725   3.313   1.908 -0.7994 -0.6475 -0.1547
 5533TIP3    H240795   5.703   3.393   2.035  1.8632  0.6470 -0.4477
 5534TIP3   OH240796   1.395   5.538   2.230  0.1776 -0.2913  0.1592
 5534TIP3    H140797   1.358   5.625   2.214  0.2392 -0.2773  0.0930
 5534TIP3    H240798   1.474   5.555   2.281  0.8458 -0.2176 -0.8820
 5535TIP3   OH240799   2.968   2.543   2.614  1.1191 -0.0990 -0.4652
 5535TIP3    H140800   2.977   2.498   2.698  1.5429 -0.7917 -0.8723
 5535TIP3    H240801   2.949   2.634   2.637  0.3622 -0.4517  0.3772
 5536TIP3   OH240802   5.189   5.454   1.320 -0.3978 -0.3992 -0.4422
 5536TIP3    H140803   5.180   5.546   1.295 -1.1138 -0.5600 -0.8054
 5536TIP3    H240804   5.131   5.443   1.394  1.2711 -0.0726  0.9749
 5537TIP3   OH240805   1.031   4.854   2.131  0.6864 -0.6501 -0.2407
 5537TIP3    H140806   1.054   4.802   2.054  0.4506  0.1388 -0.8537
 5537TIP3    H240807   0.995   4.935   2.096  1.2090  0.0134  0.7036
 5538TIP3   OH240808   0.676   5.024   2.410  0.3252  0.0486  0.4611
 5538TIP3    H140809   0.754   4.976   2.381  0.0932 -0.6097  0.8970
 5538TIP3    H240810   0.694   5.115   2.387  0.7850 -0.2418 -0.3636
 5539TIP3   OH240811   4.611   5.392   0.905 -0.1299 -0.2985  0.2132
 5539TIP3    H140812   4.576   5.311   0.867 -0.1346  0.9071 -2.6830
 5539TIP3    H240813   4.533   5.443   0.928 -0.2811  0.3459 -1.5382
 5540TIP3   OH240814   5.504   0.622   1.033 -0.5799  0.1359  0.1735
 5540TIP3    H140815   5.443   0.646   1.102 -0.1395  0.3204  0.5078
 5540TIP3    H240816   5.550   0.704   1.013 -0.2134 -0.0731  0.1580
 5541TIP3   OH240817   3.157   6.637   0.660  0.5409  0.0621  0.5720
 5541TIP3    H140818   3.128   6.711   0.714 -0.4869  0.8842 -1.0011
 5541TIP3    H240819   3.251   6.651   0.649  0.6750  0.1427  1.7255
 5542TIP3   OH240820   6.320   3.851   1.377 -0.6652 -0.4563  0.3487
 5542TIP3    H140821   6.366   3.906   1.313  1.3120  0.8453  2.6915
 5542TIP3    H240822   6.267   3.791   1.325  0.8190  0.5217 -2.4532
 5543TIP3   OH240823   1.488   3.794   2.495 -0.7090 -0.1400 -0.4669
 5543TIP3    H140824   1.498   3.736   2.570  0.9990 -1.0648 -1.3452
 5543TIP3    H240825   1.506   3.738   2.419 -0.6152  1.1824 -1.4573
 5544TIP3   OH240826   0.951   5.420   2.409  0.0533  0.1285 -0.2395
 5544TIP3    H140827   0.997   5.338   2.427 -0.3360 -0.1872 -0.6638
 5544TIP3    H240828   0.998   5.486   2.462  2.3584  0.2450 -2.2356
 5545TIP3   OH240829   1.538   4.178   1.440 -0.2015  0.0186 -0.0189
 5545TIP3    H140830   1.468   4.188   1.376 -0.6264 -1.6432  0.1306
 5545TIP3    H240831   1.550   4.265   1.477 -1.1632  0.6348 -1.1022
 5546TIP3   OH240832   6.045   1.608   3.577 -0.8093  0.4390  0.2735
 5546TIP3    H140833   6.101   1.583   3.504  0.2079  1.3992  0.6935
 5546TIP3    H240834   6.033   1.527   3.627 -2.1539 -0.4035 -1.3357
 5547TIP3   OH240835   2.122   3.864   3.393  0.0027 -0.4837  0.1975
 5547TIP3    H140836   2.208   3.876   3.353  0.6732  1.6982  2.0871
 5547TIP3    H240837   2.063   3.917   3.339 -0.0069 -1.2476 -0.5604
 5548TIP3   OH240838   0.305   1.832   1.568 -0.1784 -0.0603  0.3283
 5548TIP3    H140839   0.218   1.862   1.541 -0.1156  1.1005  1.3292
 5548TIP3    H240840   0.366   1.895   1.529  0.1290 -0.2215  0.5452
 5549TIP3   OH240841   5.870   2.607   1.549  0.6913 -0.0329 -0.6777
 5549TIP3    H140842   5.833   2.536   1.602  0.4267 -0.2131 -1.0994
 5549TIP3    H240843   5.892   2.566   1.465  1.4003  0.1812 -0.6021
 5550TIP3   OH240844   2.777   0.675   3.815 -0.7207  0.2261  0.3919
 5550TIP3    H140845   2.837   0.614   3.772 -0.4694  0.0750  0.9452
 5550TIP3    H240846   2.797   0.760   3.777 -2.4375 -0.2887 -1.8925
 5551TIP3   OH240847   6.002   5.150   2.816 -0.5355  0.0997  0.0450
 5551TIP3    H140848   6.013   5.105   2.732 -0.4994  0.8932 -0.3780
 5551TIP3    H240849   5.908   5.144   2.834 -0.3134 -1.5920  0.8150
 5552TIP3   OH240850   3.500   5.389   3.526  0.1051 -0.4398  0.0889
 5552TIP3    H140851   3.506   5.392   3.430 -1.5852  1.4584 -0.0506
 5552TIP3    H240852   3.423   5.335   3.543 -1.2693  1.4452  0.1782
 5553TIP3   OH240853   1.598   3.380   3.360 -0.5210 -0.1273  0.2224
 5553TIP3    H140854   1.507   3.393   3.332 -1.5050 -0.4130  2.9674
 5553TIP3    H240855   1.616   3.455   3.417  1.2253  0.2348 -0.7228
 5554TIP3   OH240856   3.555   3.661   1.889  0.3977  0.0022 -0.1478
 5554TIP3    H140857   3.564   3.629   1.979 -0.4302 -1.0719 -0.4291
 5554TIP3    H240858   3.462   3.679   1.879  0.4742  0.0477 -0.8100
 5555TIP3   OH240859   0.896   4.662   0.437  0.0632  0.5315 -0.0331
 5555TIP3    H140860   0.948   4.734   0.473  0.9471 -0.0338 -0.1396
 5555TIP3    H240861   0.945   4.633   0.360 -0.9299  0.6244 -0.7266
 5556TIP3   OH240862   3.870   5.157   3.898  0.5877  0.2365  0.1097
 5556TIP3    H140863   3.825   5.099   3.836  0.3433  1.1525 -0.5968
 5556TIP3    H240864   3.961   5.157   3.869  0.8370 -0.7549  0.8674
 5557TIP3   OH240865   1.399   4.468   1.868  0.6378 -0.7090 -0.3062
 5557TIP3    H140866   1.325   4.453   1.809  1.8436 -1.7088 -1.6399
 5557TIP3    H240867   1.413   4.383   1.910 -0.0916 -0.0509  1.3266
 5558TIP3   OH240868   0.300   4.259   4.154  0.0845 -0.0119 -0.1436
 5558TIP3    H140869   0.370   4.214   4.106 -0.8002 -1.4786 -0.1280
 5558TIP3    H240870   0.250   4.305   4.087  0.6184  0.4207 -0.2466
 5559TIP3   OH240871   4.588   1.032   3.541 -0.1613  0.1478 -0.2994
 5559TIP3    H140872   4.506   1.014   3.587  0.5205 -1.1211  0.4805
 5559TIP3    H240873   4.609   1.123   3.563 -0.8940  0.1901  0.2456
 5560TIP3   OH240874   2.894   0.535   3.392  0.0058  0.7799 -1.0404
 5560TIP3    H140875   2.958   0.470   3.362 -0.7822 -1.2979  1.4432
 5560TIP3    H240876   2.864   0.502   3.477 -1.5444  3.6851 -0.3364
 5561TIP3   OH240877   0.148   2.778   1.773 -0.3990 -0.1609  0.4576
 5561TIP3    H140878   0.158   2.868   1.804  1.4128 -0.6512  1.3969
 5561TIP3    H240879   0.188   2.778   1.686  0.5383 -0.2834  0.8843
 5562TIP3   OH240880   1.862   4.346   1.357  0.0476  0.1672 -0.6555
 5562TIP3    H140881   1.864   4.392   1.273 -0.3531  2.0634  0.3123
 5562TIP3    H240882   1.881   4.414   1.422  0.0592 -1.1874  0.8222
 5563TIP3   OH240883   3.702   2.807   0.884 -0.0624 -0.2256  0.4784
 5563TIP3    H140884   3.658   2.868   0.943 -0.7922 -0.8685  0.6098
 5563TIP3    H240885   3.632   2.772   0.829  0.4859 -0.2762 -0.1999
 5564TIP3   OH240886   1.011   4.151   1.581 -0.8217  0.2984 -0.5821
 5564TIP3    H140887   1.021   4.234   1.535  0.3781  1.0823  1.0015
 5564TIP3    H240888   1.094   4.105   1.566 -1.2928 -0.4221 -1.0450
 5565TIP3   OH240889   0.979   5.254   1.839 -0.2491 -0.4498  0.0906
 5565TIP3    H140890   0.922   5.261   1.762  1.1476  0.2811 -0.9232
 5565TIP3    H240891   1.031   5.334   1.838  0.3258 -0.7817  1.3713
 5566TIP3   OH240892   0.307   3.936   1.818  0.3574  0.2599  0.0385
 5566TIP3    H140893   0.310   3.851   1.775  0.5504 -0.1902  0.9116
 5566TIP3    H240894   0.396   3.950   1.850  0.2727  0.6896  0.0917
 5567TIP3   OH240895   5.875   2.013   1.898 -0.5111 -0.4683  0.2955
 5567TIP3    H140896   5.942   2.054   1.952 -0.6522 -1.7305  1.4804
 5567TIP3    H240897   5.923   1.978   1.823 -0.3291  1.3950 -0.5220
 5568TIP3   OH240898   1.113   4.254   2.045 -0.1161  0.6568  0.5217
 5568TIP3    H140899   1.199   4.236   2.009 -0.3150  0.8871 -0.0805
 5568TIP3    H240900   1.062   4.286   1.971 -1.0672 -0.5864  0.6007
 5569TIP3   OH240901   5.019   1.993   1.368 -0.1960 -0.2584  0.1354
 5569TIP3    H140902   4.994   1.997   1.460 -0.0517 -0.2765  0.1757
 5569TIP3    H240903   5.068   2.073   1.352 -1.5754  0.5362 -0.3378
 5570TIP3   OH240904   3.232   0.699   2.199 -0.4795  0.0830  0.3449
 5570TIP3    H140905   3.299   0.655   2.147 -0.0801 -0.3893  1.2213
 5570TIP3    H240906   3.195   0.765   2.141  0.5859  0.1929 -0.2263
 5571TIP3   OH240907   4.190   6.422   2.395 -0.1520  0.6366  0.4985
 5571TIP3    H140908   4.113   6.478   2.387 -0.2951  0.2243 -1.7149
 5571TIP3    H240909   4.234   6.453   2.474 -1.0478  2.8228  0.2224
 5572TIP3   OH240910   3.920   1.654   1.976  0.0905 -0.4206 -0.0805
 5572TIP3    H140911   3.902   1.736   1.930  2.0219  0.4551  0.6145
 5572TIP3    H240912   3.908   1.586   1.910  0.7278  0.6296 -1.3337
 5573TIP3   OH240913   3.795   6.249   0.995 -0.2924 -0.2849  0.5185
 5573TIP3    H140914   3.841   6.230   1.077  0.0566 -0.6936  0.2355
 5573TIP3    H240915   3.708   6.276   1.022  0.3798  1.4274  1.1305
 5574TIP3   OH240916   2.980   1.596   2.933  0.4636  0.0157 -0.0771
 5574TIP3    H140917   2.985   1.520   2.875 -1.0437 -0.6093  0.5634
 5574TIP3    H240918   2.932   1.662   2.881  1.1196  0.2854 -0.3567
 5575TIP3   OH240919   4.962   0.900   1.439 -0.5018 -0.1237 -0.1567
 5575TIP3    H140920   4.985   0.825   1.384 -0.8382  0.1490 -0.6792
 5575TIP3    H240921   5.024   0.968   1.414 -0.0590 -0.2845  0.4712
 5576TIP3   OH240922   1.381   6.114   2.923  0.4222 -0.2754  0.0784
 5576TIP3    H140923   1.421   6.031   2.950 -0.9201 -0.7982  0.5859
 5576TIP3    H240924   1.287   6.095   2.923  0.0217  1.4929  1.1381
 5577TIP3   OH240925   2.419   6.680   3.508 -0.0536  0.8382  0.3043
 5577TIP3    H140926   2.410   6.592   3.469  0.5828  1.7730 -2.1593
 5577TIP3    H240927   2.422   6.664   3.602 -2.2443 -1.5906  0.1011
 5578TIP3   OH240928   1.641   2.688   1.650  0.1931  0.0552  0.5278
 5578TIP3    H140929   1.707   2.670   1.718  0.4877  3.3145  1.2581
 5578TIP3    H240930   1.562   2.710   1.699 -0.5557 -0.7781 -0.2916
 5579TIP3   OH240931   3.377   5.163   4.169 -0.0509 -0.2132 -0.4659
 5579TIP3    H140932   3.431   5.091   4.204 -1.2814 -2.0681 -2.1317
 5579TIP3    H240933   3.433   5.206   4.105  0.8891  0.7559  0.9330
 5580TIP3   OH240934   5.094   5.962   2.449  0.4852  0.3115  0.1291
 5580TIP3    H140935   5.033   6.029   2.418  0.7355 -0.0214 -1.1456
 5580TIP3    H240936   5.170   5.971   2.392  0.8191 -0.5717  0.4257
 5581TIP3   OH240937   0.467   1.151   0.948 -0.1162 -0.1207 -0.3360
 5581TIP3    H140938   0.432   1.094   1.016  0.5547 -0.6925 -0.4546
 5581TIP3    H240939   0.561   1.157   0.967  0.2825 -1.1605 -1.7943
 5582TIP3   OH240940   5.844   0.475   3.108 -0.1488  0.0708 -0.1797
 5582TIP3    H140941   5.904   0.446   3.177  0.4251  0.5616 -0.4623
 5582TIP3    H240942   5.787   0.399   3.093 -1.5236  0.5391  2.1255
 5583TIP3   OH240943   5.124   5.455   2.774  0.1419  0.8732 -0.4535
 5583TIP3    H140944   5.066   5.529   2.757  0.2231  0.6160 -1.9983
 5583TIP3    H240945   5.140   5.416   2.688 -0.6997 -1.5532  0.3944
 5584TIP3   OH240946   1.701   2.975   1.510 -0.6484 -0.0027  0.3056
 5584TIP3    H140947   1.702   2.879   1.515  0.1779 -0.0174  0.1024
 5584TIP3    H240948   1.663   3.003   1.593  1.6268 -0.4801  1.6205
 5585TIP3   OH240949   5.858   5.359   3.201 -0.4095 -0.0841  0.4053
 5585TIP3    H140950   5.830   5.406   3.122 -1.8653  1.2289  1.6545
 5585TIP3    H240951   5.904   5.425   3.253  2.1195 -1.3533 -0.0308
 5586TIP3   OH240952   0.596   0.560   1.353  0.0416 -0.5746  0.2922
 5586TIP3    H140953   0.657   0.552   1.426 -0.6658 -1.9022  0.7822
 5586TIP3    H240954   0.626   0.494   1.290  1.8704  1.8987 -1.6063
 5587TIP3   OH240955   0.834   1.877   1.775 -1.0377 -0.5028 -0.1846
 5587TIP3    H140956   0.811   1.806   1.716 -1.4800 -0.0212 -0.6044
 5587TIP3    H240957   0.753   1.897   1.822 -0.4436 -1.5836  1.3696
 5588TIP3   OH240958   2.910   5.096   4.235 -0.1085  0.6035  0.5502
 5588TIP3    H140959   2.917   5.086   4.330 -1.0518 -0.2855  0.5454
 5588TIP3    H240960   2.890   5.008   4.203  0.5910  0.8081 -0.5183
 5589TIP3   OH240961   1.697   0.835   1.282  0.0020 -0.5634  0.2166
 5589TIP3    H140962   1.622   0.885   1.315  1.0053  2.9036 -2.2320
 5589TIP3    H240963   1.661   0.783   1.210 -0.1077  1.3564 -1.1860
 5590TIP3   OH240964   3.205   5.036   3.332 -0.0300 -0.3116  0.1354
 5590TIP3    H140965   3.216   4.967   3.267 -0.2387  1.1010 -1.4599
 5590TIP3    H240966   3.112   5.034   3.353  0.1366 -1.1483  0.8681
 5591TIP3   OH240967   2.782   6.541   1.100 -0.2792  0.2773 -0.3853
 5591TIP3    H140968   2.722   6.563   1.029 -0.3045  0.6414 -0.2527
 5591TIP3    H240969   2.869   6.553   1.063 -0.2926  1.2193 -0.1273
 5592TIP3   OH240970   2.237   5.167   3.744  0.2060  0.2909  0.0132
 5592TIP3    H140971   2.263   5.090   3.794  1.3963  0.6782  0.0144
 5592TIP3    H240972   2.319   5.211   3.723 -0.3734  0.9309 -1.0049
 5593TIP3   OH240973   0.835   5.020   2.770  0.4315  1.0204 -0.5892
 5593TIP3    H140974   0.924   5.017   2.735 -0.0535  0.8667 -1.8591
 5593TIP3    H240975   0.829   4.942   2.826  0.8436  0.5949 -1.1283
 5594TIP3   OH240976   5.268   0.539   2.393  0.0039  0.2774  0.6574
 5594TIP3    H140977   5.225   0.467   2.347 -0.4199  1.5069 -0.9676
 5594TIP3    H240978   5.196   0.584   2.438 -0.7626  2.8060 -2.6973
 5595TIP3   OH240979   3.176   6.585   4.632 -0.1453 -0.0223  0.1202
 5595TIP3    H140980   3.084   6.576   4.606  0.0750 -2.3913 -0.1018
 5595TIP3    H240981   3.174   6.578   4.728 -0.2764  1.1345  0.2153
 5596TIP3   OH240982   6.672   5.754   2.115 -0.2541  0.1093 -0.1746
 5596TIP3    H140983   6.709   5.807   2.186 -1.3745  0.4490  0.1834
 5596TIP3    H240984   6.627   5.817   2.059 -2.9799 -0.5336  1.1126
 5597TIP3   OH240985   1.490   0.106   1.754  0.6270  0.1447 -0.2473
 5597TIP3    H140986   1.502   0.193   1.715  0.6400 -0.0549 -0.6997
 5597TIP3    H240987   1.431   0.061   1.693  1.8746 -0.7061 -0.8675
 5598TIP3   OH240988   3.408   6.051   1.604  0.1214 -0.0930 -0.4316
 5598TIP3    H140989   3.449   6.117   1.549 -1.2800  1.7031  0.5740
 5598TIP3    H240990   3.358   6.101   1.669  0.3815 -2.1323  1.4583
 5599TIP3   OH240991   3.882   5.603   0.917  0.1682  0.5755  0.1020
 5599TIP3    H140992   3.842   5.571   0.998  3.3813 -3.2947  0.4427
 5599TIP3    H240993   3.848   5.545   0.849  1.8749 -0.0098 -0.2873
 5600TIP3   OH240994   4.781   5.613   0.989  0.5059  0.5360 -0.2126
 5600TIP3    H140995   4.747   5.538   0.939 -0.0271  0.3709  0.3928
 5600TIP3    H240996   4.799   5.578   1.076  0.0063  1.1707  0.1544
 5601TIP3   OH240997   2.510   5.192   1.688 -0.0154 -0.2148 -0.5534
 5601TIP3    H140998   2.548   5.276   1.663  0.4790 -0.4766 -0.6912
 5601TIP3    H240999   2.583   5.142   1.724 -0.8520  0.5096  2.4222
 5602TIP3   OH241000   4.623   4.141   2.891  0.7719  0.8008 -0.0154
 5602TIP3    H141001   4.602   4.197   2.966  1.6956  1.9041 -0.5379
 5602TIP3    H241002   4.561   4.168   2.823  0.9890  0.9493 -0.1562
 5603TIP3   OH241003   5.142   6.066   1.488 -0.9256 -0.2888  0.2349
 5603TIP3    H141004   5.048   6.047   1.488 -0.9327 -0.2556  0.2468
 5603TIP3    H241005   5.156   6.120   1.411 -1.5385  2.5675  1.9631
 5604TIP3   OH241006   1.841   5.407   2.905 -0.3204 -0.1760  0.6775
 5604TIP3    H141007   1.808   5.495   2.921 -0.0986 -0.0367  0.3783
 5604TIP3    H241008   1.873   5.409   2.815 -1.2890 -0.8633  0.2978
 5605TIP3   OH241009   6.050   5.216   2.057 -0.0260 -0.1656 -0.6203
 5605TIP3    H141010   5.957   5.238   2.053  0.2287  0.9353 -0.6612
 5605TIP3    H241011   6.086   5.245   1.973  0.0883 -1.9566 -1.2326
 5606TIP3   OH241012   0.003   5.465   2.602 -0.0446  0.2205 -0.5444
 5606TIP3    H141013  -0.078   5.427   2.568  1.2740 -0.2823 -3.3939
 5606TIP3    H241014  -0.024   5.550   2.637 -1.7768  0.2525 -1.7914
 5607TIP3   OH241015   1.002   2.073   2.673 -0.1350  0.3044  0.0322
 5607TIP3    H141016   1.084   2.062   2.626  0.1385  0.2984  0.5072
 5607TIP3    H241017   0.934   2.064   2.606  0.2693  0.8979 -0.4636
 5608TIP3   OH241018   4.835   1.785   0.400 -0.0611 -0.5339  0.5102
 5608TIP3    H141019   4.744   1.757   0.403 -0.4379  0.6905  2.3534
 5608TIP3    H241020   4.886   1.705   0.414 -0.6965 -1.5805 -2.4894
 5609TIP3   OH241021   0.353   1.369   3.111 -0.0719  0.3708 -0.5165
 5609TIP3    H141022   0.338   1.460   3.085 -2.1917  0.0348 -0.6400
 5609TIP3    H241023   0.400   1.376   3.193 -0.2464  1.5965 -0.4906
 5610TIP3   OH241024   5.012   0.026   2.219  0.0376  0.1405  0.1491
 5610TIP3    H141025   4.930   0.009   2.265 -0.5757  0.6821 -0.7037
 5610TIP3    H241026   5.016  -0.041   2.151  1.2252 -1.0162  1.3083
 5611TIP3   OH241027   4.283   5.449   1.704  0.0086 -0.1001  0.4589
 5611TIP3    H141028   4.304   5.357   1.687  0.3741 -0.4249  2.4687
 5611TIP3    H241029   4.327   5.469   1.787 -0.0292  1.9117  0.0430
 5612TIP3   OH241030   0.253   6.527   0.964 -0.2821 -0.2912 -0.5742
 5612TIP3    H141031   0.284   6.593   1.027  1.5171 -0.2899 -1.4104
 5612TIP3    H241032   0.332   6.480   0.939 -0.8621 -0.0085 -3.1706
 5613TIP3   OH241033   2.001   4.679   1.245 -0.4080  0.4080 -0.1179
 5613TIP3    H141034   1.949   4.708   1.170 -0.9028  0.1822  0.1328
 5613TIP3    H241035   2.013   4.585   1.231  0.3435  0.5461 -0.4180
 5614TIP3   OH241036   3.421   5.576   2.758 -0.1316 -0.1799  0.3863
 5614TIP3    H141037   3.398   5.666   2.734 -0.7934 -0.7256 -1.1659
 5614TIP3    H241038   3.513   5.580   2.781 -0.2076  0.9419  0.5502
 5615TIP3   OH241039   0.956   1.553   3.429  0.3729 -0.1551  0.5981
 5615TIP3    H141040   1.041   1.519   3.457  0.0752 -1.4210  0.0767
 5615TIP3    H241041   0.903   1.554   3.509  0.4041 -0.9577  0.6462
 5616TIP3   OH241042   4.143   1.606   3.807 -0.0819  0.4869 -0.3551
 5616TIP3    H141043   4.198   1.576   3.879  0.2159  0.0455 -0.7600
 5616TIP3    H241044   4.202   1.609   3.732 -0.4795  0.5665 -0.6664
 5617TIP3   OH241045   2.965   0.853   2.442 -0.3890 -0.5644 -0.4138
 5617TIP3    H141046   3.010   0.825   2.362  0.1992 -2.6035  0.5574
 5617TIP3    H241047   3.005   0.800   2.512 -1.5028  0.5045  1.1056
 5618TIP3   OH241048   1.561   2.603   2.614 -0.4516 -0.2254 -0.3788
 5618TIP3    H141049   1.640   2.619   2.562 -1.4206  1.0454 -1.5517
 5618TIP3    H241050   1.537   2.513   2.595  0.8209 -0.7053  0.1760
 5619TIP3   OH241051   2.091   2.425   1.992 -0.4263 -0.2804  0.4736
 5619TIP3    H141052   2.141   2.461   1.918 -2.0987 -1.7347 -1.4463
 5619TIP3    H241053   2.094   2.495   2.057  2.0511  0.6366 -0.4625
 5620TIP3   OH241054   1.203   1.997   2.490 -0.1932 -0.1758  0.1691
 5620TIP3    H141055   1.206   1.921   2.549  1.6573 -0.0715  0.2648
 5620TIP3    H241056   1.294   2.013   2.468 -0.5635  1.9764  0.0611
 5621TIP3   OH241057   0.055   1.115   1.190 -0.3778 -0.2721  0.7012
 5621TIP3    H141058   0.027   1.157   1.109  0.3811 -1.6005 -0.2912
 5621TIP3    H241059   0.003   1.035   1.195  0.2451 -0.6640  1.0154
 5622TIP3   OH241060   1.054   1.137   1.891 -0.3426 -0.3199  1.1076
 5622TIP3    H141061   1.013   1.196   1.828  0.9499 -0.5867 -0.0382
 5622TIP3    H241062   1.146   1.164   1.892  0.6618 -3.2639 -0.6747
 5623TIP3   OH241063   6.458   3.621   1.461 -0.5000  0.3323  0.2344
 5623TIP3    H141064   6.412   3.700   1.431  2.1152  1.9856  0.2930
 5623TIP3    H241065   6.449   3.623   1.556 -1.0124  0.1604  0.1940
 5624TIP3   OH241066   6.253   5.633   1.272 -0.1999 -0.2400  0.0824
 5624TIP3    H141067   6.169   5.676   1.286 -0.5106 -1.0550  0.7833
 5624TIP3    H241068   6.315   5.686   1.322 -0.2519  0.4696 -0.5840
 5625TIP3   OH241069   5.733   6.515   1.332 -0.1097 -0.3330  0.5811
 5625TIP3    H141070   5.669   6.488   1.397 -0.0615 -2.5155 -0.1907
 5625TIP3    H241071   5.790   6.439   1.321  0.1405  0.1047 -1.6945
 5626TIP3   OH241072   2.944   6.416   2.465 -0.4503  0.0513  0.3264
 5626TIP3    H141073   2.884   6.441   2.535 -2.6187  0.7982 -1.6645
 5626TIP3    H241074   2.901   6.343   2.420  0.9086 -0.4543 -0.2282
 5627TIP3   OH241075   4.442   6.478   0.945  0.0138  0.3916 -0.4059
 5627TIP3    H141076   4.472   6.395   0.907 -0.6901  0.1603 -0.4880
 5627TIP3    H241077   4.389   6.452   1.021 -1.8829  0.6358 -1.5788
 5628TIP3   OH241078   2.489   3.188   2.233  0.4389  0.5703 -0.1580
 5628TIP3    H141079   2.483   3.179   2.329 -1.7663 -0.4536 -0.3191
 5628TIP3    H241080   2.421   3.252   2.212  0.2405  0.0600 -1.1058
 5629TIP3   OH241081   0.869   4.187   2.204  0.3028 -0.0274  0.0168
 5629TIP3    H141082   0.865   4.129   2.279 -0.5772  1.0698  0.8581
 5629TIP3    H241083   0.943   4.244   2.221 -0.1818  0.5306  0.3092
 5630TIP3   OH241084   2.678   1.713   1.275  0.3911 -0.0638  0.0923
 5630TIP3    H141085   2.616   1.785   1.284  1.0432  0.8454 -2.1127
 5630TIP3    H241086   2.697   1.709   1.181  1.9686 -1.7662  0.4242
 5631TIP3   OH241087   0.064   1.383   1.223 -0.0190  0.3709  0.1778
 5631TIP3    H141088   0.063   1.294   1.259  1.5862  0.8248  1.5068
 5631TIP3    H241089   0.129   1.381   1.154  0.2342  0.5775  0.4082
 5632TIP3   OH241090   3.673   1.126   3.166  0.2088 -0.1934 -0.3655
 5632TIP3    H141091   3.663   1.182   3.244 -1.3023 -0.8974 -0.0116
 5632TIP3    H241092   3.632   1.043   3.191  1.5254 -1.1380 -1.2273
 5633TIP3   OH241093   5.650   2.190   1.468 -0.8454  0.6889  0.3770
 5633TIP3    H141094   5.617   2.279   1.485 -1.0730  0.5992  0.4072
 5633TIP3    H241095   5.648   2.183   1.372 -2.3467  0.1525  0.4228
 5634TIP3   OH241096   1.964   5.619   1.663 -0.4439  0.1497 -0.7072
 5634TIP3    H141097   1.914   5.643   1.741 -1.7050 -0.0501 -1.4257
 5634TIP3    H241098   1.926   5.537   1.634 -0.6347  0.6899 -2.0564
 5635TIP3   OH241099   5.972   1.815   2.308  0.1862 -0.0077 -0.3778
 5635TIP3    H141100   6.067   1.822   2.317  0.3477 -0.6426 -1.4424
 5635TIP3    H241101   5.943   1.906   2.296  0.5002  0.3241  1.1558
 5636TIP3   OH241102   1.569   0.851   3.939  0.2780  0.3713  0.4661
 5636TIP3    H141103   1.536   0.932   3.900  0.2241  0.1586  0.0643
 5636TIP3    H241104   1.664   0.859   3.934  0.3293  1.1257  1.9119
 5637TIP3   OH241105   1.082   4.617   3.577  0.6254 -0.2444  0.3310
 5637TIP3    H141106   1.139   4.548   3.541 -0.4292 -0.7332 -0.4664
 5637TIP3    H241107   1.027   4.571   3.641 -0.3039 -0.2404 -0.4374
 5638TIP3   OH241108   2.958   6.436   4.996 -0.0818 -0.0518  0.6482
 5638TIP3    H141109   2.891   6.454   4.930 -0.2304  0.2789  0.8890
 5638TIP3    H241110   2.926   6.358   5.042 -1.1122  1.0210  1.8241
 5639TIP3   OH241111   2.516   6.383   1.816  0.1941  0.3473  0.1690
 5639TIP3    H141112   2.580   6.312   1.814 -0.2684 -0.1346 -3.1845
 5639TIP3    H241113   2.566   6.459   1.844  1.4118 -0.6803  0.8955
 5640TIP3   OH241114   2.286   5.570   1.154  1.2339 -0.4428  0.7841
 5640TIP3    H141115   2.208   5.587   1.205  0.3375 -1.1151 -0.3183
 5640TIP3    H241116   2.343   5.646   1.171 -1.0745  1.8935 -1.0461
 5641TIP3   OH241117   2.731   6.266   3.278  0.0130 -0.3382  0.7127
 5641TIP3    H141118   2.827   6.271   3.280  0.0032 -0.4297  1.7744
 5641TIP3    H241119   2.705   6.260   3.370 -0.8763 -2.6379  0.3744
 5642TIP3   OH241120   6.127   5.833   3.273  0.3310  0.1497 -0.2793
 5642TIP3    H141121   6.060   5.901   3.262 -1.7242 -1.9896 -1.8377
 5642TIP3    H241122   6.195   5.857   3.210  0.2494  1.4091  0.0700
 5643TIP3   OH241123   5.291   2.133   1.438 -0.0243  0.1003  0.2895
 5643TIP3    H141124   5.341   2.095   1.510  2.1035 -0.0684 -1.1869
 5643TIP3    H241125   5.255   2.214   1.474  0.0094 -0.5381  1.8544
 5644TIP3   OH241126   1.164   3.019   2.781 -0.5935 -0.2433  0.2554
 5644TIP3    H141127   1.215   2.978   2.711 -1.2728 -0.2414 -0.2443
 5644TIP3    H241128   1.089   2.962   2.794 -2.5067  1.6158 -1.6639
 5645TIP3   OH241129   3.113   5.598   3.804 -0.1408 -0.3118 -0.2525
 5645TIP3    H141130   3.116   5.693   3.797  1.4112 -0.2483  0.8036
 5645TIP3    H241131   3.202   5.570   3.785 -0.1187 -1.3948  1.2741
 5646TIP3   OH241132   2.546   1.615   3.722 -0.0205 -0.2426  0.1833
 5646TIP3    H141133   2.483   1.687   3.728 -0.5946 -0.7274  0.0782
 5646TIP3    H241134   2.526   1.559   3.797 -1.2290 -1.5776 -1.0496
 5647TIP3   OH241135   2.968   3.907   2.902 -0.4567  0.2760 -0.2079
 5647TIP3    H141136   3.006   3.824   2.932 -0.5122  0.1652 -0.4383
 5647TIP3    H241137   2.874   3.889   2.898 -0.4621  0.3279 -0.3228
 5648TIP3   OH241138   0.296   0.681   2.825 -0.2756  0.3672 -0.2521
 5648TIP3    H141139   0.271   0.764   2.785  1.9992  2.3343  1.9981
 5648TIP3    H241140   0.248   0.678   2.908  0.3756 -0.0668  0.1245
 5649TIP3   OH241141   4.005   5.108   0.974 -0.4378  0.0872 -0.0135
 5649TIP3    H141142   4.095   5.082   0.955 -0.9615 -1.5585 -0.3567
 5649TIP3    H241143   4.015   5.190   1.022  1.2134  0.2916 -0.6095
 5650TIP3   OH241144   0.038   4.570   2.602  0.3189  0.3387  0.3849
 5650TIP3    H141145  -0.019   4.545   2.529  1.2850 -1.3227  0.1661
 5650TIP3    H241146   0.004   4.520   2.677  1.7701 -1.1379  0.1254
 5651TIP3   OH241147   2.424   2.177   1.913 -0.1137 -0.2767 -0.7036
 5651TIP3    H141148   2.350   2.183   1.973 -0.9754  0.6544 -1.8006
 5651TIP3    H241149   2.421   2.259   1.862 -1.4416 -2.3144 -4.2380
 5652TIP3   OH241150   5.450   3.447   2.458 -0.3633  0.3927 -0.3313
 5652TIP3    H141151   5.417   3.427   2.371 -0.6144  0.3029 -0.2163
 5652TIP3    H241152   5.373   3.477   2.507 -0.1786  0.6688 -0.2104
 5653TIP3   OH241153   0.680   5.166   2.928  0.1873  0.4033 -0.6055
 5653TIP3    H141154   0.614   5.219   2.884  0.3953  1.7697  0.6328
 5653TIP3    H241155   0.723   5.117   2.858 -0.5819  1.2458 -1.6934
 5654TIP3   OH241156   5.546   1.156   1.094 -0.1860  0.0094  0.1341
 5654TIP3    H141157   5.525   1.248   1.108 -0.0624  0.4308 -2.1346
 5654TIP3    H241158   5.635   1.146   1.129 -0.1746  0.7640  0.3388
 5655TIP3   OH241159   1.550   4.487   3.732  0.5217  0.0718  0.3479
 5655TIP3    H141160   1.470   4.483   3.679 -0.5627 -0.6412  1.9818
 5655TIP3    H241161   1.536   4.561   3.791  0.9032 -0.2980  0.9076
 5656TIP3   OH241162   2.506   1.041   2.757  0.1427 -0.5833 -0.2439
 5656TIP3    H141163   2.518   1.031   2.662  0.2502 -1.8867 -0.1104
 5656TIP3    H241164   2.412   1.038   2.770  0.1779 -2.1163 -0.1661
 5657TIP3   OH241165   2.674   6.618   1.711 -0.2531  0.0335 -0.1639
 5657TIP3    H141166   2.704   6.551   1.651  0.9790  0.6320 -0.2539
 5657TIP3    H241167   2.592   6.650   1.673 -1.5299 -2.2242  0.5345
 5658TIP3   OH241168   0.137   1.256   2.079 -0.3374 -0.6181 -0.5316
 5658TIP3    H141169   0.056   1.303   2.103 -0.2695 -1.0913  0.6890
 5658TIP3    H241170   0.173   1.227   2.162  0.6696 -1.1327 -1.1327
 5659TIP3   OH241171   6.506   1.505   0.600  0.1985  0.0434  0.2952
 5659TIP3    H141172   6.480   1.429   0.653  0.1621  0.5632  1.0366
 5659TIP3    H241173   6.424   1.552   0.584  0.0036 -0.8167 -1.3766
 5660TIP3   OH241174   4.631   0.464   2.239 -0.0115  0.1648  0.4523
 5660TIP3    H141175   4.669   0.550   2.225 -0.5638  0.3373 -0.0683
 5660TIP3    H241176   4.599   0.465   2.329  0.6772  0.2227  0.7002
 5661TIP3   OH241177   4.312   4.340   3.709  0.3883 -0.3161 -0.8908
 5661TIP3    H141178   4.401   4.304   3.702  0.0059 -1.1516 -1.6694
 5661TIP3    H241179   4.295   4.345   3.803  1.8994  1.5054 -0.6512
 5662TIP3   OH241180   2.081   1.948   1.020 -0.0560  0.1088 -0.2053
 5662TIP3    H141181   2.017   1.913   0.958 -1.2705 -0.3494  1.2601
 5662TIP3    H241182   2.079   1.888   1.094  1.7078  0.3877  0.1118
 5663TIP3   OH241183   5.126   1.805   1.190  0.3608 -0.4200 -0.3034
 5663TIP3    H141184   5.066   1.811   1.116  0.6927  1.0732 -0.4825
 5663TIP3    H241185   5.092   1.868   1.254  3.0447  2.4935 -1.4367
 5664TIP3   OH241186   1.522   2.805   2.007 -0.5672  0.2312 -0.1167
 5664TIP3    H141187   1.594   2.745   2.028 -1.1899 -1.2131 -1.7971
 5664TIP3    H241188   1.565   2.888   1.989  1.0611 -1.0788 -3.1255
 5665TIP3   OH241189   0.821   1.411   2.346 -0.0206  0.2324  0.3117
 5665TIP3    H141190   0.860   1.496   2.365 -1.4267  0.7057  1.2817
 5665TIP3    H241191   0.738   1.412   2.393 -0.7113 -1.1357 -0.7965
 5666TIP3   OH241192   3.562   1.938   2.793 -0.2809  0.0843 -0.0563
 5666TIP3    H141193   3.475   1.966   2.824 -0.1005  0.5960 -0.0111
 5666TIP3    H241194   3.620   2.011   2.814  0.3021 -0.5429  0.5563
 5667TIP3   OH241195   1.704   0.288   1.341  0.0266 -0.0019  1.0618
 5667TIP3    H141196   1.778   0.300   1.281 -0.2803 -2.4766  0.0718
 5667TIP3    H241197   1.744   0.272   1.426  0.6969 -1.4638  0.5073
 5668TIP3   OH241198   5.610   5.047   2.418 -0.4028  0.1478  0.1571
 5668TIP3    H141199   5.600   5.075   2.509 -1.0461  1.1361 -0.2027
 5668TIP3    H241200   5.620   4.952   2.423  0.0628  0.2396  1.2874
 5669TIP3   OH241201   2.296   6.235   0.794 -0.3689 -0.6375  0.2123
 5669TIP3    H141202   2.306   6.142   0.775 -1.8692 -0.5322 -1.2621
 5669TIP3    H241203   2.335   6.279   0.719 -1.3629 -0.1137 -0.0040
 5670TIP3   OH241204   4.375   4.885   3.019 -0.1638  0.3033 -0.5192
 5670TIP3    H141205   4.340   4.797   3.005  0.7492 -0.2848  0.6790
 5670TIP3    H241206   4.448   4.872   3.080 -1.8948  2.2217  2.2051
 5671TIP3   OH241207   0.049   4.709   1.877  0.4050  0.3793 -0.2224
 5671TIP3    H141208   0.062   4.799   1.848 -1.1565  0.1653 -1.7800
 5671TIP3    H241209   0.052   4.714   1.973  2.2992  1.7138 -0.2948
 5672TIP3   OH241210   3.873   3.855   2.799 -0.3868  0.3197  0.1687
 5672TIP3    H141211   3.960   3.890   2.818 -0.1606 -0.8942  1.6374
 5672TIP3    H241212   3.887   3.760   2.791 -1.3583  0.2624 -1.0903
 5673TIP3   OH241213   1.451   2.453   2.939 -0.1190  0.5981  0.0061
 5673TIP3    H141214   1.479   2.523   2.997  2.0879 -0.8781  0.8424
 5673TIP3    H241215   1.532   2.413   2.907 -1.2843 -0.9074 -1.2690
 5674TIP3   OH241216   5.174   4.394   3.557  0.0496  0.5827 -0.4949
 5674TIP3    H141217   5.253   4.339   3.555  0.1945  0.7177  0.5733
 5674TIP3    H241218   5.103   4.335   3.531  0.1063 -0.3201  1.2309
 5675TIP3   OH241219   4.858   4.456   2.780 -0.6923  0.5676 -0.1987
 5675TIP3    H141220   4.909   4.386   2.821 -1.5537 -0.6781 -1.1736
 5675TIP3    H241221   4.896   4.465   2.693 -1.3251  0.4890 -0.4909
 5676TIP3   OH241222   5.179   5.305   2.541  0.2469 -0.1421 -0.4795
 5676TIP3    H141223   5.215   5.241   2.480  0.6233  0.4672 -0.9058
 5676TIP3    H241224   5.149   5.377   2.486  0.8020  0.5217  0.0652
 5677TIP3   OH241225   4.999   6.087   0.765 -0.2851  0.4652 -0.1197
 5677TIP3    H141226   4.951   6.104   0.846 -1.3127  1.3729 -0.8958
 5677TIP3    H241227   5.013   5.992   0.765  0.7620  0.5606  1.6562
 5678TIP3   OH241228   0.370   2.517   0.611  0.4956  0.6166  0.4785
 5678TIP3    H141229   0.395   2.562   0.531 -0.7961 -0.8888 -0.8484
 5678TIP3    H241230   0.431   2.549   0.677  1.0267  2.5781 -0.8803
 5679TIP3   OH241231   4.826   4.127   1.010 -0.1222 -0.6514 -0.2207
 5679TIP3    H141232   4.767   4.057   1.039 -0.6051 -0.9264 -1.7598
 5679TIP3    H241233   4.767   4.193   0.972  0.4976 -0.6089 -1.1394
 5680TIP3   OH241234   1.720   1.634   1.969 -0.1782 -0.2257 -0.3368
 5680TIP3    H141235   1.789   1.668   1.912  0.6009  0.5531  1.0327
 5680TIP3    H241236   1.706   1.544   1.939  0.0500  0.2275 -1.8796
 5681TIP3   OH241237   6.391   4.073   2.877 -0.3450 -0.0432  0.2997
 5681TIP3    H141238   6.464   4.115   2.923 -0.0822  0.2221 -0.3451
 5681TIP3    H241239   6.375   4.130   2.801 -1.0833 -0.2144  0.3170
 5682TIP3   OH241240   3.247   4.752   1.104 -0.0092  0.4303  0.0888
 5682TIP3    H141241   3.197   4.693   1.161 -1.0940 -0.8237 -2.0403
 5682TIP3    H241242   3.180   4.803   1.059  0.7884  1.0341 -0.4353
 5683TIP3   OH241243   0.188   1.128   3.106  0.2827  0.2284  0.1764
 5683TIP3    H141244   0.247   1.203   3.103  0.3270  0.1664 -1.3656
 5683TIP3    H241245   0.246   1.053   3.121  0.4791  0.2831 -0.2978
 5684TIP3   OH241246   4.458   2.843   1.815  0.5992 -0.9121  0.1869
 5684TIP3    H141247   4.376   2.794   1.814 -0.0382  0.1306  0.0766
 5684TIP3    H241248   4.485   2.844   1.907 -0.1168 -0.3056  0.4063
 5685TIP3   OH241249   3.222   2.780   2.608  0.5120  0.0434  0.1717
 5685TIP3    H141250   3.147   2.803   2.663 -0.5193  0.4162 -1.3249
 5685TIP3    H241251   3.183   2.735   2.533  1.9285 -0.9310 -0.0035
 5686TIP3   OH241252   6.424   2.638   3.480  0.0041  0.2301  0.2338
 5686TIP3    H141253   6.356   2.573   3.463  0.9424 -0.7649  0.2003
 5686TIP3    H241254   6.506   2.590   3.472  0.7545  1.5648 -0.4288
 5687TIP3   OH241255   5.127   4.332   2.767 -0.5577  0.0387  0.3973
 5687TIP3    H141256   5.097   4.243   2.783 -0.1628 -0.1212  0.2628
 5687TIP3    H241257   5.206   4.340   2.820  0.3143 -0.2270 -0.8144
 5688TIP3   OH241258   4.538   0.651   2.976  0.2294  0.4423 -0.0933
 5688TIP3    H141259   4.586   0.633   3.058 -2.1733  1.2037  1.5914
 5688TIP3    H241260   4.490   0.570   2.959  1.1143  0.1030 -1.1045
 5689TIP3   OH241261   5.500   1.500   0.316  0.5025 -0.4046  0.5037
 5689TIP3    H141262   5.553   1.547   0.380 -0.5826  1.8394 -0.1652
 5689TIP3    H241263   5.531   1.530   0.231  0.1222 -1.3257  0.0174
 5690TIP3   OH241264   2.692   6.424   1.525  0.0179 -0.0839  0.4813
 5690TIP3    H141265   2.618   6.393   1.473  0.4131 -0.3045  0.0407
 5690TIP3    H241266   2.754   6.351   1.524  0.8493  0.6033 -0.3530
 5691TIP3   OH241267   3.048   3.627   1.924  0.4769  0.0177 -0.2876
 5691TIP3    H141268   3.093   3.547   1.897 -0.4337 -0.5577 -0.1414
 5691TIP3    H241269   2.956   3.612   1.902  0.6853  2.4289 -3.6319
 5692TIP3   OH241270   1.139   4.485   1.728 -0.0599  0.7706  0.4356
 5692TIP3    H141271   1.181   4.451   1.649  2.0044  2.0312  0.9172
 5692TIP3    H241272   1.066   4.424   1.744  0.4553 -0.4600 -1.4852
 5693TIP3   OH241273   5.359   4.411   2.876 -0.4112 -0.1404  0.3075
 5693TIP3    H141274   5.440   4.412   2.927 -1.2576 -0.7274  1.7193
 5693TIP3    H241275   5.374   4.473   2.805  1.5937 -0.8975  0.0237
 5694TIP3   OH241276   0.272   2.560   1.632  0.3006 -0.0821 -0.2047
 5694TIP3    H141277   0.210   2.546   1.561 -0.7151  2.7071  0.0019
 5694TIP3    H241278   0.220   2.600   1.702  2.1354  1.6704  0.2552
 5695TIP3   OH241279   6.219   5.489   3.563  0.1369  0.0796 -0.5640
 5695TIP3    H141280   6.167   5.551   3.614 -0.2659 -0.9512  0.3173
 5695TIP3    H241281   6.238   5.535   3.482  1.3795  2.0504  0.7541
 5696TIP3   OH241282   4.446   0.906   3.947 -0.0749  0.2656  0.1787
 5696TIP3    H141283   4.463   0.975   4.011 -0.0844 -0.6271  1.1708
 5696TIP3    H241284   4.352   0.887   3.956 -0.4944  1.3950 -1.4187
 5697TIP3   OH241285   6.005   4.784   2.371 -0.0783 -0.7120 -0.2174
 5697TIP3    H141286   6.030   4.865   2.327 -2.0335 -1.3753 -2.8019
 5697TIP3    H241287   6.056   4.716   2.327 -1.4478 -1.3016 -0.9571
 5698TIP3   OH241288   5.784   5.264   2.117 -0.2798 -0.0560 -0.6294
 5698TIP3    H141289   5.738   5.338   2.077 -0.3031  1.5738  2.1379
 5698TIP3    H241290   5.719   5.194   2.120 -1.6001  1.1633  0.3026
 5699TIP3   OH241291   4.888   5.992   1.502 -0.6026  0.0247  0.4680
 5699TIP3    H141292   4.841   6.061   1.550 -1.5450 -0.4858  0.3233
 5699TIP3    H241293   4.818   5.943   1.458  0.0179 -1.1302  0.7246
 5700TIP3   OH241294   2.755   0.887   4.419  0.2341 -0.4566 -0.0926
 5700TIP3    H141295   2.763   0.797   4.448  1.5185 -0.0370  0.9518
 5700TIP3    H241296   2.815   0.936   4.476 -0.7712  1.1180 -0.3311
 5701TIP3   OH241297   0.428   2.943   0.374 -0.0386  0.2476  0.0093
 5701TIP3    H141298   0.336   2.918   0.363  0.1821 -1.4120  1.4168
 5701TIP3    H241299   0.477   2.870   0.336  0.6824  0.5629  0.3124
 5702TIP3   OH241300   4.570   2.386   0.407  0.0702 -0.0895  0.2253
 5702TIP3    H141301   4.587   2.450   0.339  3.2382 -0.6903  0.3198
 5702TIP3    H241302   4.480   2.404   0.435  0.1806  3.0049 -1.0580
 5703TIP3   OH241303   1.957   5.149   3.489 -0.2120  0.1280  0.7459
 5703TIP3    H141304   2.031   5.100   3.452 -0.8740 -0.7078  0.5111
 5703TIP3    H241305   1.891   5.149   3.421 -0.6686  0.3501  1.1810
 5704TIP3   OH241306   2.575   1.494   2.209 -0.1306  0.2350 -0.0368
 5704TIP3    H141307   2.482   1.480   2.227 -0.1298  0.4239  0.1249
 5704TIP3    H241308   2.577   1.536   2.124 -0.4333  3.4659  1.3897
 5705TIP3   OH241309   2.063   0.835   2.682 -0.8641  0.9459  0.2200
 5705TIP3    H141310   2.020   0.817   2.599 -2.5214  0.4056  1.1438
 5705TIP3    H241311   2.008   0.901   2.723 -0.7898  0.2871  1.4243
 5706TIP3   OH241312   6.192   2.133   0.810 -0.5471  0.6640  0.2964
 5706TIP3    H141313   6.287   2.144   0.823  0.3777 -2.1851 -2.7206
 5706TIP3    H241314   6.169   2.204   0.750 -0.1404  0.9040  0.4170
 5707TIP3   OH241315   5.499   6.216   2.689 -0.2854 -0.0614  0.0493
 5707TIP3    H141316   5.446   6.146   2.727 -0.2732  1.3857  2.9878
 5707TIP3    H241317   5.490   6.204   2.594 -2.2435 -2.5206  0.4511
 5708TIP3   OH241318   5.726   3.563   2.096 -0.2040  0.2084  0.2824
 5708TIP3    H141319   5.650   3.574   2.152 -1.4336 -1.5272 -0.9417
 5708TIP3    H241320   5.759   3.652   2.083 -1.7624  0.9637  1.1773
 5709TIP3   OH241321   6.511   5.315   2.521 -0.3315 -0.2040  0.1061
 5709TIP3    H141322   6.416   5.301   2.523 -0.7866  2.0230 -1.8941
 5709TIP3    H241323   6.539   5.281   2.436  0.4196  0.3901  0.1033
 5710TIP3   OH241324   4.899   1.704   3.694 -0.0800 -0.2491 -0.1052
 5710TIP3    H141325   4.983   1.746   3.710 -0.6422  0.1389  2.1029
 5710TIP3    H241326   4.892   1.636   3.760 -1.6976  0.0496  0.0736
 5711TIP3   OH241327   5.458   2.614   0.683 -0.6389 -0.6329 -0.0679
 5711TIP3    H141328   5.386   2.574   0.635  0.1982 -2.0046 -0.2190
 5711TIP3    H241329   5.520   2.642   0.616 -0.4613 -0.5931  0.1095
 5712TIP3   OH241330   3.072   1.651   1.073  0.1485  0.3415  0.3644
 5712TIP3    H141331   3.140   1.589   1.047  0.3493  0.6901  0.0582
 5712TIP3    H241332   3.063   1.637   1.168 -0.8487 -1.1833  0.0796
 5713TIP3   OH241333   2.236   5.335   4.004  0.1877  0.2711 -0.3780
 5713TIP3    H141334   2.182   5.316   4.081  0.5849  0.9254  0.0753
 5713TIP3    H241335   2.181   5.310   3.929 -1.8216  3.2266 -0.0719
 5714TIP3   OH241336   4.609   5.335   1.505 -0.0497  0.3548 -0.0541
 5714TIP3    H141337   4.528   5.331   1.455 -0.1844  2.3753 -0.0724
 5714TIP3    H241338   4.589   5.290   1.587 -0.2420 -1.7781 -1.1922
 5715TIP3   OH241339   3.136   5.897   3.755  0.0272 -0.3783  0.3307
 5715TIP3    H141340   3.231   5.905   3.746  0.2327  0.2341  2.5127
 5715TIP3    H241341   3.101   5.970   3.704  0.7913 -0.0527  0.2614
 5716TIP3   OH241342   3.875   0.542   0.851 -0.3201 -0.2314  0.2084
 5716TIP3    H141343   3.889   0.620   0.905  0.8318  0.4110 -0.9668
 5716TIP3    H241344   3.921   0.561   0.769  0.2091 -2.2586 -0.0094
 5717TIP3   OH241345   3.292   1.992   1.442 -0.0049 -0.3497  0.3787
 5717TIP3    H141346   3.357   2.037   1.496  0.9574 -0.7132 -0.4462
 5717TIP3    H241347   3.238   2.062   1.406 -0.2667 -0.0627  1.3087
 5718TIP3   OH241348   1.281   6.311   0.603  0.2748  0.2993  0.4633
 5718TIP3    H141349   1.207   6.368   0.581 -0.1157 -0.2139  0.4437
 5718TIP3    H241350   1.244   6.223   0.607  1.2480 -0.2743 -1.6059
 5719TIP3   OH241351   6.578   3.336   0.829 -0.2237  0.4598 -0.4238
 5719TIP3    H141352   6.603   3.245   0.809  1.2800  0.7314  0.0923
 5719TIP3    H241353   6.651   3.388   0.796  0.4058  1.2282  2.0010
 5720TIP3   OH241354   2.110   3.889   1.122 -0.3102 -0.6362 -0.5938
 5720TIP3    H141355   2.145   3.873   1.210  1.6600  1.6828 -0.8305
 5720TIP3    H241356   2.040   3.952   1.136 -0.7194 -1.0855 -0.6054
 5721TIP3   OH241357   3.417   5.004   0.874 -0.3173  0.5996 -0.3018
 5721TIP3    H141358   3.324   5.014   0.854 -0.6170  1.5378  1.3340
 5721TIP3    H241359   3.460   5.074   0.826 -0.6183  0.8923 -0.1521
 5722TIP3   OH241360   5.582   1.180   2.858  0.3180  0.2944  0.5175
 5722TIP3    H141361   5.644   1.227   2.913  0.9111 -1.3073  1.2923
 5722TIP3    H241362   5.496   1.215   2.882  0.7916  1.5150  0.4818
 5723TIP3   OH241363   3.313   3.781   0.478 -0.0934 -0.3782  0.3761
 5723TIP3    H141364   3.406   3.761   0.484  0.1184  0.2416 -0.7566
 5723TIP3    H241365   3.291   3.818   0.564  1.3481  2.1049 -0.2304
 5724TIP3   OH241366   3.116   4.485   2.712  0.4907  0.3064  0.2855
 5724TIP3    H141367   3.088   4.526   2.794 -0.5383 -0.8116  0.5198
 5724TIP3    H241368   3.210   4.470   2.723  0.1879 -0.7304  1.6877
 5725TIP3   OH241369   1.031   0.522   1.179 -0.0432 -0.2704  0.7188
 5725TIP3    H141370   1.076   0.498   1.259  1.1973  0.4719  0.2718
 5725TIP3    H241371   1.098   0.515   1.111 -0.6176  0.7860  0.0231
 5726TIP3   OH241372   3.400   2.867   1.797 -0.3261 -0.0256  0.7079
 5726TIP3    H141373   3.319   2.860   1.746 -1.2777  1.6987  1.9033
 5726TIP3    H241374   3.448   2.786   1.776 -1.9174 -0.6621 -0.7352
 5727TIP3   OH241375   2.579   4.860   4.099 -0.0481  0.5452 -0.0211
 5727TIP3    H141376   2.617   4.937   4.058  0.7475  0.6317  0.8382
 5727TIP3    H241377   2.524   4.895   4.169 -0.1410  0.3490  0.0049
 5728TIP3   OH241378   6.559   5.382   0.685  0.6773 -0.4339  0.6356
 5728TIP3    H141379   6.477   5.332   0.679  1.6856 -2.1470  0.4485
 5728TIP3    H241380   6.620   5.322   0.728  2.2900  0.2027 -0.6724
 5729TIP3   OH241381   2.067   5.203   1.689  0.1949  0.6697 -0.2204
 5729TIP3    H141382   2.145   5.209   1.744  0.1930  0.6115 -0.2108
 5729TIP3    H241383   2.099   5.214   1.599  0.5595 -1.6020 -0.4385
 5730TIP3   OH241384   3.685   5.782   2.127 -0.0387 -0.2220 -0.0205
 5730TIP3    H141385   3.661   5.840   2.055  0.8538 -0.3577 -0.4480
 5730TIP3    H241386   3.637   5.701   2.109  1.6104 -0.9339 -1.5664
 5731TIP3   OH241387   4.522   3.555   2.341 -0.0200  0.4626 -0.0478
 5731TIP3    H141388   4.485   3.566   2.429 -1.9647  1.6518 -0.9561
 5731TIP3    H241389   4.609   3.596   2.347 -0.2548  0.8425  1.2236
 5732TIP3   OH241390   5.776   0.035   2.918 -0.5886  0.3831 -0.0948
 5732TIP3    H141391   5.699  -0.022   2.912  0.1754 -0.5247 -2.3952
 5732TIP3    H241392   5.762   0.086   2.998 -2.5332 -1.2442  0.6934
 5733TIP3   OH241393   2.485   6.164   2.195  0.1886 -0.3754  0.1349
 5733TIP3    H141394   2.504   6.109   2.271 -0.1669  0.6034  0.9592
 5733TIP3    H241395   2.401   6.205   2.215  0.5003  0.5578 -0.4013
 5734TIP3   OH241396   1.972   2.754   2.866  0.3574 -0.1338  0.0476
 5734TIP3    H141397   1.939   2.687   2.926 -1.8379  2.2330  1.7181
 5734TIP3    H241398   1.990   2.708   2.785 -2.3254 -2.5312  0.6712
 5735TIP3   OH241399   0.598   1.630   1.295  0.2375  0.1286  0.0427
 5735TIP3    H141400   0.690   1.617   1.316 -0.0560 -0.9970  0.7521
 5735TIP3    H241401   0.552   1.611   1.376 -0.6813 -0.2920 -0.5564
 5736TIP3   OH241402   3.922   4.108   1.999  0.0152  0.3466 -0.2949
 5736TIP3    H141403   3.891   4.140   1.914 -1.5062 -1.0462 -0.3262
 5736TIP3    H241404   3.871   4.157   2.063  1.0257  1.2596 -0.1626
 5737TIP3   OH241405   1.130   0.034   1.058  0.6912  0.6790 -0.3215
 5737TIP3    H141406   1.185  -0.035   1.095 -0.8417  0.3719  1.5369
 5737TIP3    H241407   1.189   0.083   1.001  2.3576 -0.8532 -0.0145
 5738TIP3   OH241408   2.837   3.405   2.459  0.4809 -0.1393  0.3384
 5738TIP3    H141409   2.751   3.372   2.484  0.3643 -0.0676  0.0305
 5738TIP3    H241410   2.831   3.500   2.468 -0.0046  0.0123 -1.3031
 5739TIP3   OH241411   5.863   4.122   2.330  0.3980  0.2271  0.4874
 5739TIP3    H141412   5.816   4.195   2.372 -0.7243 -0.5078  0.5720
 5739TIP3    H241413   5.824   4.043   2.369 -0.3032 -0.4868 -1.5104
 5740TIP3   OH241414   2.726   4.991   2.506  0.3529  0.2116 -0.0506
 5740TIP3    H141415   2.664   5.055   2.470 -0.0004  0.2613  0.6315
 5740TIP3    H241416   2.671   4.930   2.555  0.9577  1.0538  1.7613
 5741TIP3   OH241417   3.323   5.296   0.662 -0.1910  0.3894 -0.4226
 5741TIP3    H141418   3.411   5.259   0.671 -0.2268  0.5311  0.7027
 5741TIP3    H241419   3.267   5.221   0.641  0.0624  0.1435 -0.2298
 5742TIP3   OH241420   5.452   2.902   2.404  1.1744 -0.2785 -0.0318
 5742TIP3    H141421   5.497   2.926   2.323  1.2239  1.2326  0.4086
 5742TIP3    H241422   5.488   2.962   2.470 -1.7698  1.3512  0.2470
 5743TIP3   OH241423   5.000   6.259  11.062 -0.6982 -0.2408  0.2887
 5743TIP3    H141424   4.938   6.234  10.994 -0.3048 -0.3670 -0.0340
 5743TIP3    H241425   5.069   6.306  11.015  0.1996 -1.3869  0.3994
 5744TIP3   OH241426   0.708   2.510   1.495 -0.3550  0.5311 -0.5908
 5744TIP3    H141427   0.742   2.516   1.584 -2.9350  1.1736  0.4394
 5744TIP3    H241428   0.638   2.444   1.500 -0.7423  0.7977 -2.0642
 5745TIP3   OH241429   4.693   6.041   1.834 -0.1345 -0.0888 -0.5686
 5745TIP3    H141430   4.612   6.085   1.861 -0.2999 -0.4550 -0.4647
 5745TIP3    H241431   4.727   6.095   1.762 -0.2883  0.2579 -0.3836
 5746TIP3   OH241432   6.062   4.607   3.240 -0.7696  0.3771 -0.1061
 5746TIP3    H141433   6.021   4.679   3.289 -1.6530  0.8736 -1.5014
 5746TIP3    H241434   5.988   4.559   3.201 -0.2002 -1.4025  0.9143
 5747TIP3   OH241435   4.288   1.349   3.755  0.2880 -0.3966  0.0016
 5747TIP3    H141436   4.303   1.281   3.689 -0.4192 -0.7995  0.2419
 5747TIP3    H241437   4.230   1.412   3.713  0.1074 -0.4797  0.1246
 5748TIP3   OH241438   3.376   3.010   2.971 -0.3999 -0.0638  0.2320
 5748TIP3    H141439   3.288   3.042   2.992 -0.4586  1.4195 -2.0046
 5748TIP3    H241440   3.362   2.921   2.938 -0.9911  0.0235  0.2424
 5749TIP3   OH241441   3.008   5.626   0.932  0.3803 -0.2486  0.4130
 5749TIP3    H141442   3.044   5.713   0.916 -0.4398  0.1882  0.9203
 5749TIP3    H241443   2.966   5.602   0.849  0.5107 -0.1154  0.3087
 5750TIP3   OH241444   3.393   2.346   2.714  0.3305  0.3842 -0.7909
 5750TIP3    H141445   3.371   2.431   2.754  0.5685  0.9632 -1.8451
 5750TIP3    H241446   3.471   2.365   2.662 -1.1201  0.1674 -3.1673
 5751TIP3   OH241447   5.557   1.345   2.658 -0.5181  0.0454 -0.5253
 5751TIP3    H141448   5.601   1.325   2.575 -1.1309 -0.4747 -0.7321
 5751TIP3    H241449   5.581   1.272   2.715 -0.8166 -0.0518 -0.5249
 5752TIP3   OH241450   2.061   2.045   2.292  0.1616  0.1079 -0.3176
 5752TIP3    H141451   2.105   1.989   2.356 -0.6073  0.3837  0.4747
 5752TIP3    H241452   2.060   2.132   2.333 -0.1200  0.3452 -0.8116
 5753TIP3   OH241453   1.211   2.774   2.353 -0.2165  0.1166 -0.4700
 5753TIP3    H141454   1.260   2.719   2.292 -0.9558 -1.6991  0.5035
 5753TIP3    H241455   1.277   2.825   2.400  0.7665 -2.0781  0.6293
 5754TIP3   OH241456   5.378   6.080   1.689 -0.5080  0.1640  0.1119
 5754TIP3    H141457   5.324   6.051   1.616  0.6634  0.6018 -0.9587
 5754TIP3    H241458   5.369   6.175   1.690 -0.0981  0.2067  0.1725
 5755TIP3   OH241459   2.684   6.154   0.899 -0.0236  0.1392  0.0653
 5755TIP3    H141460   2.734   6.231   0.874  0.5986 -0.9197 -2.2258
 5755TIP3    H241461   2.593   6.178   0.882  0.1220  0.5582 -0.1307
 5756TIP3   OH241462   4.984   6.168   3.703  0.5767 -0.9576 -0.4871
 5756TIP3    H141463   4.930   6.212   3.638  0.0028 -0.5056  0.2733
 5756TIP3    H241464   5.067   6.215   3.700 -0.5687  1.4686  1.5385
 5757TIP3   OH241465   5.285   1.761   0.684 -0.2753 -0.3661  0.3607
 5757TIP3    H141466   5.323   1.784   0.768  0.7222 -0.2672 -0.1055
 5757TIP3    H241467   5.291   1.841   0.632 -0.3957 -0.5770  0.0164
 5758TIP3   OH241468   0.029   6.561   3.045 -0.5634 -0.4671  0.0142
 5758TIP3    H141469   0.111   6.555   2.995 -0.2126 -1.4216  0.6764
 5758TIP3    H241470  -0.036   6.588   2.980  0.4782  1.5609 -0.2813
 5759TIP3   OH241471   5.725   0.960   3.029 -0.4530 -0.4817 -0.2421
 5759TIP3    H141472   5.719   0.865   3.028  1.0722 -0.6118  0.3261
 5759TIP3    H241473   5.698   0.986   2.941  0.5713 -1.5727 -0.9134
 5760TIP3   OH241474   3.131   4.646   2.490  0.1957 -0.0805  0.3336
 5760TIP3    H141475   3.134   4.593   2.570  4.0166  0.9957  1.1263
 5760TIP3    H241476   3.151   4.735   2.519  2.2946  0.2555 -1.8129
 5761TIP3   OH241477   1.891   4.990   4.049 -0.1008 -0.4674 -0.0950
 5761TIP3    H141478   1.851   5.073   4.075 -0.6545 -0.2774 -1.4739
 5761TIP3    H241479   1.826   4.923   4.072  0.1179 -0.4663  0.5259
 5762TIP3   OH241480   3.714   0.245   1.339 -0.4882  0.5008 -0.3415
 5762TIP3    H141481   3.682   0.248   1.248  1.6003  0.8875 -1.1105
 5762TIP3    H241482   3.685   0.160   1.371  1.5452 -1.1697 -2.5422
 5763TIP3   OH241483   5.010   0.664   1.837  0.4500 -0.4558  0.2426
 5763TIP3    H141484   4.958   0.649   1.758  3.1988 -2.5464 -1.3872
 5763TIP3    H241485   5.048   0.751   1.826 -0.8249  0.1349  0.3520
 5764TIP3   OH241486   5.844   5.386   3.574  0.4472 -0.6143  0.2429
 5764TIP3    H141487   5.859   5.475   3.543 -0.2659 -0.2297  0.9659
 5764TIP3    H241488   5.896   5.379   3.654  0.8604 -0.9990 -0.0578
 5765TIP3   OH241489   5.825   3.154   1.248  0.3151 -0.0931  0.8942
 5765TIP3    H141490   5.881   3.204   1.307 -0.2730  0.8120  0.7108
 5765TIP3    H241491   5.860   3.171   1.161 -1.1529  1.8127  0.5986
 5766TIP3   OH241492   5.400   4.910   2.830 -0.6772 -0.3119 -0.1512
 5766TIP3    H141493   5.372   4.869   2.749 -0.2080 -0.6433 -0.1529
 5766TIP3    H241494   5.383   5.003   2.818  0.1486 -0.2546 -0.9498
 5767TIP3   OH241495   2.467   0.619   4.416 -0.0613 -0.1519  0.5112
 5767TIP3    H141496   2.535   0.557   4.440  1.9864  0.4369 -3.0617
 5767TIP3    H241497   2.385   0.578   4.445  1.1236 -4.6771 -1.6977
 5768TIP3   OH241498   4.353   3.294   1.040 -0.8724  0.0320  0.1653
 5768TIP3    H141499   4.388   3.364   0.986 -0.7194 -0.9220 -1.0218
 5768TIP3    H241500   4.259   3.292   1.021 -0.8689 -0.1105  0.1582
 5769TIP3   OH241501   2.916   5.914   4.122 -0.3834  0.2074  0.2646
 5769TIP3    H141502   2.884   5.885   4.208  1.7594 -0.8983  0.7644
 5769TIP3    H241503   2.885   5.846   4.062 -0.4924  0.0934  0.4464
 5770TIP3   OH241504   1.702   0.941   2.983  0.6233 -0.0656 -0.1820
 5770TIP3    H141505   1.717   0.880   2.911  1.3233 -0.1242  0.0065
 5770TIP3    H241506   1.642   1.007   2.947  0.8078 -0.2034 -0.7507
 5771TIP3   OH241507   1.504   5.995   4.730  0.0050  0.4038  0.3004
 5771TIP3    H141508   1.421   6.031   4.764  1.0830  1.3240  2.1240
 5771TIP3    H241509   1.558   6.073   4.714  1.4331 -0.2527  1.6979
 5772TIP3   OH241510   3.685   4.057   2.300  0.5645 -0.0677 -0.0824
 5772TIP3    H141511   3.685   4.116   2.225  1.0359 -0.1601 -0.1565
 5772TIP3    H241512   3.777   4.046   2.322  0.6000 -1.8614 -0.9419
 5773TIP3   OH241513   3.506   5.805   1.711  0.3471  0.4800 -0.0123
 5773TIP3    H141514   3.434   5.811   1.774 -0.7193 -0.7403 -1.0654
 5773TIP3    H241515   3.508   5.891   1.669  0.6220  1.0752  1.1634
 5774TIP3   OH241516   1.583   6.568   1.552 -0.0445  0.0360 -0.2722
 5774TIP3    H141517   1.499   6.609   1.572 -0.2777 -1.7917  3.1762
 5774TIP3    H241518   1.646   6.613   1.609  0.2760 -1.9949  1.0908
 5775TIP3   OH241519   4.261   3.900   2.225 -0.5861 -0.2880 -0.3332
 5775TIP3    H141520   4.174   3.882   2.189 -0.4693 -2.0010  0.1698
 5775TIP3    H241521   4.317   3.833   2.187  0.4839  0.6558 -0.4593
 5776TIP3   OH241522   0.479   6.183   3.747 -0.1391  0.4247 -0.0970
 5776TIP3    H141523   0.500   6.155   3.835  1.1232  0.3290 -0.4043
 5776TIP3    H241524   0.412   6.251   3.758  1.3289  1.7623  1.0798
 5777TIP3   OH241525   3.795   6.649   0.542 -0.0635 -0.3147 -0.1999
 5777TIP3    H141526   3.891   6.646   0.545 -0.0411  0.0003 -0.5744
 5777TIP3    H241527   3.773   6.627   0.452 -0.3535 -0.5510 -0.0732
 5778TIP3   OH241528   1.740   0.777   2.718  0.2110  0.2552 -0.0258
 5778TIP3    H141529   1.783   0.699   2.684  0.4417  0.0139  0.8241
 5778TIP3    H241530   1.653   0.747   2.743  0.3682  0.2323  0.4867
 5779TIP3   OH241531   5.082   4.002   2.567  0.1650 -0.4944 -0.4864
 5779TIP3    H141532   5.008   4.019   2.625  1.6862  1.7859  0.9572
 5779TIP3    H241533   5.153   3.975   2.625  1.0779 -0.4539 -1.5432
 5780TIP3   OH241534   3.678   4.777   3.311  0.0037  0.2973 -0.6023
 5780TIP3    H141535   3.589   4.797   3.337 -0.4180 -0.1118 -1.6745
 5780TIP3    H241536   3.731   4.847   3.350 -0.5409 -0.3294  1.3770
 5781TIP3   OH241537   0.651   2.908   3.129  0.4348 -0.6630  0.3308
 5781TIP3    H141538   0.622   2.985   3.080 -1.4201 -0.8288  1.1004
 5781TIP3    H241539   0.719   2.941   3.187  0.6992  0.0842 -0.3760
 5782TIP3   OH241540   0.532   3.626   1.033  0.1377  0.0130  0.2066
 5782TIP3    H141541   0.468   3.619   1.104  0.3930 -0.1939  0.4164
 5782TIP3    H241542   0.494   3.691   0.973  0.7214  1.4872  1.3908
 5783TIP3   OH241543   5.144   4.657   2.766  0.2489 -0.2624  0.3560
 5783TIP3    H141544   5.128   4.562   2.762 -0.7202 -0.1442  1.1204
 5783TIP3    H241545   5.190   4.670   2.849 -0.6937  0.0795  0.8272
 5784TIP3   OH241546   3.773   2.511   1.603 -0.4090  0.1123  0.4028
 5784TIP3    H141547   3.783   2.580   1.537 -1.2780 -0.5717 -0.4707
 5784TIP3    H241548   3.863   2.488   1.627 -0.0871  2.2384  1.4779
 5785TIP3   OH241549   3.399   6.428   3.725  0.7029  0.2865  0.6048
 5785TIP3    H141550   3.464   6.416   3.794  1.3127  1.0545  0.1715
 5785TIP3    H241551   3.374   6.520   3.731 -0.6944 -0.0877  1.0555
 5786TIP3   OH241552   0.826   4.819   1.053  0.7145 -0.0986 -0.4178
 5786TIP3    H141553   0.818   4.895   1.111 -3.1655 -0.4229 -0.2156
 5786TIP3    H241554   0.809   4.853   0.965 -0.5871 -0.5652 -0.3807
 5787TIP3   OH241555   3.666   3.005   2.834  0.2330  0.5017 -0.1078
 5787TIP3    H141556   3.725   3.016   2.909 -0.2855 -0.9268  0.5492
 5787TIP3    H241557   3.583   2.980   2.873 -0.4744  1.2545 -1.1010
 5788TIP3   OH241558   4.008   5.821   2.943  0.5618  0.0185  0.5048
 5788TIP3    H141559   3.919   5.847   2.968  0.1578  0.2982 -1.1339
 5788TIP3    H241560   3.995   5.752   2.878  1.4979  1.1359 -0.9165
 5789TIP3   OH241561   2.211   3.295   4.047  0.6723  0.0215  0.1458
 5789TIP3    H141562   2.268   3.237   4.098 -0.7272 -2.0490 -0.5354
 5789TIP3    H241563   2.268   3.332   3.980  1.9281  0.6692  1.4976
 5790TIP3   OH241564   1.771   5.998   4.164  0.0951 -0.3746  0.9578
 5790TIP3    H141565   1.830   6.016   4.237  0.4497 -0.3771  0.6765
 5790TIP3    H241566   1.829   5.977   4.091 -0.2299  0.4545  0.4439
 5791TIP3   OH241567   2.218   4.540   3.124  0.0372  0.1940  0.2522
 5791TIP3    H141568   2.254   4.625   3.147 -1.9670  1.0605  0.3684
 5791TIP3    H241569   2.224   4.489   3.206 -0.3062  0.7961  0.6573
 5792TIP3   OH241570   2.358   6.170   4.221 -0.0749  0.1434 -0.1048
 5792TIP3    H141571   2.409   6.249   4.241 -1.2476  1.4079 -1.8339
 5792TIP3    H241572   2.393   6.104   4.279 -0.1927  2.3555  2.6929
 5793TIP3   OH241573   0.524   6.643   0.615  0.5814 -0.4641  0.2207
 5793TIP3    H141574   0.531   6.700   0.692  1.0916 -1.7349  1.1411
 5793TIP3    H241575   0.434   6.657   0.583 -1.7945 -3.9706  4.3902
 5794TIP3   OH241576   1.368   4.888   2.523  0.2626  0.0056 -0.3136
 5794TIP3    H141577   1.329   4.859   2.440 -1.4493 -2.0393  1.0962
 5794TIP3    H241578   1.293   4.907   2.579  1.3427 -0.2807  1.2740
 5795TIP3   OH241579   6.102   5.494   1.888  0.4649  0.0452  0.0221
 5795TIP3    H141580   6.123   5.445   1.808  0.6762  1.3808 -0.7587
 5795TIP3    H241581   6.008   5.513   1.880  0.5981  0.6267 -0.1563
 5796TIP3   OH241582   5.135   5.718   0.801  0.1886  0.0792 -0.2517
 5796TIP3    H141583   5.226   5.730   0.773  0.1003  1.1048 -0.1245
 5796TIP3    H241584   5.140   5.656   0.873  1.1598  2.4476  1.8534
 5797TIP3   OH241585   5.909   4.537   0.800 -0.2674  0.2978 -0.2494
 5797TIP3    H141586   5.981   4.509   0.856  0.3157 -0.1094 -1.1847
 5797TIP3    H241587   5.858   4.597   0.855  1.2407  1.2461  0.1729
 5798TIP3   OH241588   3.665   1.018   2.904  0.0366 -0.1281 -0.3041
 5798TIP3    H141589   3.577   1.054   2.892 -0.1805 -0.2081  0.9149
 5798TIP3    H241590   3.694   1.053   2.988  0.5500 -1.3388  0.0391
 5799TIP3   OH241591   4.010   2.815   2.574  0.0569  0.2300 -0.8200
 5799TIP3    H141592   4.072   2.762   2.625  0.5019  2.1246  0.7603
 5799TIP3    H241593   3.925   2.796   2.613  0.2566  0.8703 -0.0456
 5800TIP3   OH241594   3.831   5.812   1.806  0.3026  0.2991 -0.3364
 5800TIP3    H141595   3.893   5.769   1.746 -0.5964 -0.7897 -0.5233
 5800TIP3    H241596   3.746   5.772   1.785 -0.1703  0.5025  1.1015
 5801TIP3   OH241597   5.696   2.455   1.708 -0.3838  0.1618  0.5088
 5801TIP3    H141598   5.656   2.504   1.780 -0.7333 -1.2877  1.3310
 5801TIP3    H241599   5.624   2.406   1.669  0.4999 -2.6652  2.1563
 5802TIP3   OH241600   2.099   6.322   2.176 -0.2281  0.4885 -0.5008
 5802TIP3    H141601   2.187   6.346   2.147  0.3212 -0.6308  0.1605
 5802TIP3    H241602   2.061   6.275   2.101 -0.6244  1.7406 -1.1170
 5803TIP3   OH241603   3.954   6.050   3.692  0.2280 -0.8341  0.1329
 5803TIP3    H141604   3.874   6.065   3.742 -0.3516  2.3972 -1.5249
 5803TIP3    H241605   4.024   6.070   3.753 -0.3084 -1.0489  0.8365
 5804TIP3   OH241606   0.445   2.375   1.549 -0.0226  0.0331 -0.5982
 5804TIP3    H141607   0.486   2.324   1.619 -1.7739  0.1621  0.5864
 5804TIP3    H241608   0.389   2.438   1.595 -3.0394 -1.3796 -2.0441
 5805TIP3   OH241609   4.207   4.542   4.147  0.0481  0.2029  0.1769
 5805TIP3    H141610   4.178   4.549   4.238  1.6271 -0.3663  0.7642
 5805TIP3    H241611   4.237   4.452   4.138 -1.2627 -0.1297 -1.3165
 5806TIP3   OH241612   0.442   6.454   2.745 -0.1326 -0.3639  0.2936
 5806TIP3    H141613   0.444   6.375   2.800 -0.5602 -1.0739 -0.6795
 5806TIP3    H241614   0.533   6.463   2.714 -0.4028 -1.4851 -0.9401
 5807TIP3   OH241615   6.217   0.099   3.976  0.1448  0.1268 -0.0817
 5807TIP3    H141616   6.199   0.052   4.057  2.9555 -1.0364 -0.0343
 5807TIP3    H241617   6.180   0.044   3.907 -1.3337  0.6122  0.2783
 5808TIP3   OH241618   0.991   0.817   3.369  0.0486 -0.1611  0.6283
 5808TIP3    H141619   0.983   0.876   3.444 -0.8186  0.4890  0.0383
 5808TIP3    H241620   1.072   0.844   3.325 -0.4659  0.7569  0.2264
 5809TIP3   OH241621   1.979   1.859   3.871 -0.2145 -0.3157 -0.3982
 5809TIP3    H141622   2.038   1.806   3.924 -0.4039  0.4912  0.6592
 5809TIP3    H241623   2.035   1.926   3.832 -0.3226  0.1021  0.1453
 5810TIP3   OH241624   1.056   0.420   0.850 -0.2926 -0.2303 -0.4298
 5810TIP3    H141625   1.066   0.352   0.783  1.3413  1.7942 -2.3537
 5810TIP3    H241626   0.994   0.482   0.813 -1.7842 -0.5871  1.3176
 5811TIP3   OH241627   4.152   5.627   0.785  0.1876  0.5693 -0.2753
 5811TIP3    H141628   4.056   5.622   0.793  0.1529  2.8179  1.8472
 5811TIP3    H241629   4.182   5.537   0.800 -1.5910 -0.5196 -2.5657
 5812TIP3   OH241630   1.778   6.513   2.603 -0.6817  0.2982  0.1372
 5812TIP3    H141631   1.684   6.528   2.599 -0.8276 -0.2415  1.1147
 5812TIP3    H241632   1.792   6.433   2.552 -0.3863  1.7092 -2.1020
 5813TIP3   OH241633   5.044   4.332   3.040  0.4129 -0.4967  0.1953
 5813TIP3    H141634   5.026   4.239   3.055  2.3238 -0.9288  0.0623
 5813TIP3    H241635   5.072   4.337   2.949 -0.4427  0.3605 -0.0419
 5814TIP3   OH241636   4.136   1.351   3.203 -0.1053  0.1070 -0.3081
 5814TIP3    H141637   4.178   1.350   3.289 -0.2817 -1.3108 -0.2264
 5814TIP3    H241638   4.051   1.311   3.217  0.1248 -0.7518 -1.2650
 5815TIP3   OH241639   3.864   1.373   4.238 -0.1517  0.1793 -0.3092
 5815TIP3    H141640   3.849   1.357   4.145 -2.0222  0.2774 -0.0510
 5815TIP3    H241641   3.861   1.287   4.279 -1.2440  0.3022 -0.1055
 5816TIP3   OH241642   3.110   4.278   1.350  0.7479  0.1310 -0.6216
 5816TIP3    H141643   3.133   4.251   1.261  0.7344  2.2609 -1.3433
 5816TIP3    H241644   3.015   4.287   1.348  0.6393 -0.8186 -0.0633
 5817TIP3   OH241645   6.220   2.070   1.728 -0.1276  0.1270  0.2590
 5817TIP3    H141646   6.224   2.074   1.824  0.2065  0.2245  0.2408
 5817TIP3    H241647   6.256   2.154   1.699  0.5928 -0.2560  0.0281
 5818TIP3   OH241648   2.987   4.423   3.766 -0.5560 -0.5593  0.0093
 5818TIP3    H141649   2.938   4.360   3.713 -0.6964  0.3141 -0.9251
 5818TIP3    H241650   2.955   4.408   3.856 -0.5476 -1.8334 -0.1846
 5819TIP3   OH241651   1.226   5.457   1.385 -0.0790  0.1548 -0.1739
 5819TIP3    H141652   1.302   5.411   1.349 -2.2467 -2.4993 -1.7677
 5819TIP3    H241653   1.183   5.392   1.440 -2.5134  0.6818 -1.3159
 5820TIP3   OH241654   6.598   0.794   3.072  0.3565 -0.1392 -0.4422
 5820TIP3    H141655   6.542   0.727   3.110  1.6919 -1.4981 -0.7865
 5820TIP3    H241656   6.637   0.839   3.147  2.1313 -2.0838 -0.1231
 5821TIP3   OH241657   5.421   1.184   1.438 -0.8283  0.4755  0.3684
 5821TIP3    H141658   5.482   1.239   1.388 -2.1371  1.2635 -0.3970
 5821TIP3    H241659   5.474   1.109   1.465 -0.0284  0.0515 -2.1474
 5822TIP3   OH241660   3.540   1.601   1.180  0.2027  0.3271 -0.5978
 5822TIP3    H141661   3.462   1.572   1.228 -1.7673  2.1474 -2.4399
 5822TIP3    H241662   3.608   1.538   1.204 -1.7695 -1.2950  1.2066
 5823TIP3   OH241663   5.263   4.583   3.346 -0.1005 -0.6983 -0.9198
 5823TIP3    H141664   5.351   4.554   3.320  0.5788  0.0281  0.4476
 5823TIP3    H241665   5.235   4.518   3.410  1.4542  1.4269  2.2097
 5824TIP3   OH241666   2.326   0.951   4.239 -0.5038  0.2162  0.5003
 5824TIP3    H141667   2.421   0.936   4.242 -0.8638 -2.4044  0.8091
 5824TIP3    H241668   2.291   0.874   4.194 -2.4889  1.3341  0.0089
 5825TIP3   OH241669   1.775   3.108   1.814  0.4799  0.0616 -0.2012
 5825TIP3    H141670   1.691   3.125   1.771  0.5320 -0.2668 -0.4331
 5825TIP3    H241671   1.834   3.174   1.778  0.1735  0.6837  0.4145
 5826TIP3   OH241672   5.054   6.040   1.756  0.2740  0.3059 -0.2709
 5826TIP3    H141673   5.044   5.991   1.675  0.1065 -2.2974  1.2208
 5826TIP3    H241674   5.028   6.129   1.733 -0.0045 -0.3756 -2.9862
 5827TIP3   OH241675   1.428   6.397   2.959 -0.0954  0.5601 -0.1093
 5827TIP3    H141676   1.413   6.303   2.968 -0.6572  0.7086  0.6147
 5827TIP3    H241677   1.409   6.433   3.046 -2.3284  1.6447 -0.9671
 5828TIP3   OH241678   0.221   2.264   1.776  0.1851 -0.0381  0.2074
 5828TIP3    H141679   0.161   2.198   1.744 -0.6550  0.4428  0.7410
 5828TIP3    H241680   0.240   2.237   1.866  0.4102  0.0530  0.1868
 5829TIP3   OH241681   4.999   2.652   2.155 -0.2376 -0.2462  0.3195
 5829TIP3    H141682   5.060   2.722   2.177 -2.5289  1.9747  0.1419
 5829TIP3    H241683   4.971   2.673   2.066 -1.6314 -0.8525  0.5901
 5830TIP3   OH241684   3.090   0.288   1.491 -1.0873  0.1451  0.4631
 5830TIP3    H141685   3.127   0.209   1.452 -0.5886 -0.0690  1.3288
 5830TIP3    H241686   3.062   0.260   1.579 -0.5046  1.0280  0.9394
 5831TIP3   OH241687   3.905   3.024   1.170  0.5346 -0.1253  0.1424
 5831TIP3    H141688   3.929   2.947   1.117 -1.4456 -0.5647 -0.1731
 5831TIP3    H241689   3.866   2.988   1.249  0.3112  0.5697  0.3541
 5832TIP3   OH241690   2.626   4.808   0.897 -0.5692  0.3055 -0.5323
 5832TIP3    H141691   2.650   4.741   0.962  0.3741  1.0030 -0.1437
 5832TIP3    H241692   2.620   4.889   0.947  0.2121  0.8601 -1.3191
 5833TIP3   OH241693   4.218   3.430   2.217 -0.2660  0.2832  0.1571
 5833TIP3    H141694   4.222   3.349   2.267  1.9795  1.0661  1.3863
 5833TIP3    H241695   4.290   3.424   2.154  0.7166  1.7408  1.0611
 5834TIP3   OH241696   6.457   5.038   0.775  0.1365 -0.1115  0.0391
 5834TIP3    H141697   6.483   4.948   0.756 -0.0048  0.0169 -0.8128
 5834TIP3    H241698   6.539   5.085   0.785  0.2504  0.0326 -1.3633
 5835TIP3   OH241699   4.265   6.306   0.563 -0.1481  0.4527  1.2070
 5835TIP3    H141700   4.229   6.218   0.570 -0.6679  0.3861 -1.4269
 5835TIP3    H241701   4.191   6.364   0.581 -0.5231  0.3169  0.1688
 5836TIP3   OH241702   2.440   1.093   0.691  0.5282  0.4568  0.3728
 5836TIP3    H141703   2.371   1.145   0.650  2.3064  0.8667 -2.3890
 5836TIP3    H241704   2.393   1.024   0.738 -1.7844  2.0981  0.6608
 5837TIP3   OH241705   3.248   2.913   1.001 -0.8073 -0.0901 -0.5889
 5837TIP3    H141706   3.310   2.865   0.946  0.9012  0.5724  0.6462
 5837TIP3    H241707   3.262   2.876   1.089  0.0135  2.0531  0.2510
 5838TIP3   OH241708   4.225   0.387   2.696  0.2192 -0.2236  0.4463
 5838TIP3    H141709   4.263   0.413   2.612 -0.9430 -1.2425 -0.4235
 5838TIP3    H241710   4.132   0.372   2.676  0.1674 -1.6310  1.6623
 5839TIP3   OH241711   3.867   6.523   1.735  0.2210  0.2806  0.0818
 5839TIP3    H141712   3.810   6.538   1.810 -0.3159 -0.5411 -0.1453
 5839TIP3    H241713   3.952   6.500   1.773 -0.5498 -2.1230  0.5197
 5840TIP3   OH241714   3.488   1.610   3.361  0.6366 -0.2150 -0.5331
 5840TIP3    H141715   3.498   1.619   3.267 -2.1883  0.3814 -0.8469
 5840TIP3    H241716   3.427   1.537   3.372  0.8659 -0.2289  0.8594
 5841TIP3   OH241717   1.100   3.146   1.116  0.0311  0.0466  0.7949
 5841TIP3    H141718   1.169   3.186   1.169 -0.1342  1.9194 -0.3297
 5841TIP3    H241719   1.020   3.194   1.140 -0.0079  1.1024 -1.2384
 5842TIP3   OH241720   4.477   5.741   2.679  0.8269  0.2670  0.2353
 5842TIP3    H141721   4.427   5.722   2.599 -1.8042  0.8775  1.6245
 5842TIP3    H241722   4.513   5.656   2.705 -0.4577 -0.4465 -0.2248
 5843TIP3   OH241723   4.953   2.269   1.523  0.0647  0.0196  0.2726
 5843TIP3    H141724   4.862   2.292   1.504 -0.0361  0.1962  0.9493
 5843TIP3    H241725   4.948   2.190   1.576  0.2895  0.2128  0.5886
 5844TIP3   OH241726   0.167   6.227   3.297 -0.3161 -0.0777 -0.0574
 5844TIP3    H141727   0.098   6.245   3.233 -0.9136 -0.4528  0.4613
 5844TIP3    H241728   0.133   6.263   3.379  0.1185 -0.2366  0.1955
 5845TIP3   OH241729   4.956   1.253   2.563 -0.2130 -0.0019 -0.0716
 5845TIP3    H141730   4.867   1.274   2.591  0.8635  1.5227  2.5693
 5845TIP3    H241731   4.990   1.195   2.631  0.8991 -0.4331 -0.9482
 5846TIP3   OH241732   4.712   1.846   3.550  0.4064 -0.0264 -0.1732
 5846TIP3    H141733   4.626   1.821   3.584  0.7470 -1.0601 -0.0187
 5846TIP3    H241734   4.774   1.809   3.613  0.9686  3.0190  1.2365
 5847TIP3   OH241735   3.184   1.799   3.453 -0.2277  0.2449  0.2926
 5847TIP3    H141736   3.153   1.728   3.509 -1.6239 -0.3016 -1.0857
 5847TIP3    H241737   3.243   1.849   3.509 -1.1450 -0.5551  2.0888
 5848TIP3   OH241738   6.543   6.272   3.334 -0.1610 -0.6650  0.3265
 5848TIP3    H141739   6.561   6.281   3.240 -3.8717  0.6942 -0.4130
 5848TIP3    H241740   6.532   6.178   3.348  1.3328 -0.9708 -0.3307
 5849TIP3   OH241741   6.393   6.144   0.617  0.4002  0.2843 -0.4753
 5849TIP3    H141742   6.364   6.063   0.575 -0.7651  0.7421 -0.5747
 5849TIP3    H241743   6.463   6.116   0.677  0.0181 -0.7856 -0.5070
 5850TIP3   OH241744   3.073   1.076   0.691 -0.4184 -0.3508  0.2697
 5850TIP3    H141745   3.117   1.089   0.607 -1.0848 -1.1396 -0.2209
 5850TIP3    H241746   3.007   1.010   0.673 -1.0082 -0.0536  1.2729
 5851TIP3   OH241747   1.473   1.879   1.988  0.2266  0.2939  0.4435
 5851TIP3    H141748   1.560   1.912   1.964  0.1154  0.3958  0.1768
 5851TIP3    H241749   1.421   1.889   1.908  0.4223 -1.2979  0.0788
 5852TIP3   OH241750   2.528   0.005   0.761  0.1003 -0.3754  0.0534
 5852TIP3    H141751   2.462   0.032   0.697 -0.4668  0.1719  0.8490
 5852TIP3    H241752   2.538   0.082   0.818 -0.2399 -1.2359  1.3036
 5853TIP3   OH241753   0.761   3.049   2.734  0.0126 -0.2561 -0.4466
 5853TIP3    H141754   0.665   3.053   2.730  0.0529  0.1564 -1.2482
 5853TIP3    H241755   0.785   2.983   2.669  0.3066  0.1662 -0.7685
 5854TIP3   OH241756   2.673   3.028   1.408  0.0588  0.1879  0.5601
 5854TIP3    H141757   2.682   3.113   1.450  1.1538 -0.5089  1.8147
 5854TIP3    H241758   2.750   2.979   1.436  0.7413 -0.4458 -2.0646
 5855TIP3   OH241759   1.656   3.399   4.170  0.4220 -0.1170 -0.2050
 5855TIP3    H141760   1.610   3.368   4.092  0.6296  2.6713 -1.5543
 5855TIP3    H241761   1.594   3.385   4.241 -1.4177  0.8779 -1.5259
 5856TIP3   OH241762   5.948   6.572   0.800 -0.2821 -0.5258  0.3224
 5856TIP3    H141763   5.962   6.614   0.715  1.0942  1.8653  1.5947
 5856TIP3    H241764   5.872   6.618   0.837 -0.3748 -0.9779  0.6973
 5857TIP3   OH241765   2.401   3.547   3.374 -0.0979  0.0310 -0.0446
 5857TIP3    H141766   2.490   3.573   3.350  0.5449 -1.6833  0.3561
 5857TIP3    H241767   2.383   3.595   3.455  0.2209  0.8457 -0.4480
 5858TIP3   OH241768   3.805   6.366   1.508 -0.3105 -0.4289 -0.3575
 5858TIP3    H141769   3.762   6.422   1.443  1.2307 -0.2881 -1.3221
 5858TIP3    H241770   3.812   6.420   1.586  0.7974  0.6309 -1.1530
 5859TIP3   OH241771   6.544   2.480   1.085 -0.2128  0.1423 -0.3845
 5859TIP3    H141772   6.577   2.419   1.019 -1.4551 -0.6374 -0.3200
 5859TIP3    H241773   6.485   2.538   1.038 -0.3851  0.1792 -0.1229
 5860TIP3   OH241774   3.890   2.127   3.009 -0.4226  0.4515  0.6547
 5860TIP3    H141775   3.926   2.047   3.048 -0.2252  0.5043  0.5860
 5860TIP3    H241776   3.929   2.198   3.061  0.1275  0.5391  0.1468
 5861TIP3   OH241777   5.119   0.542   1.445  0.0603  0.0474  0.8252
 5861TIP3    H141778   5.167   0.607   1.496 -0.7293  1.5678 -0.3003
 5861TIP3    H241779   5.095   0.475   1.509  2.1147  0.1026  1.7438
 5862TIP3   OH241780   2.906   1.915   1.346 -0.1367  0.7869  0.2845
 5862TIP3    H141781   2.865   1.943   1.264  0.1571 -0.1640 -0.1990
 5862TIP3    H241782   2.930   1.824   1.331 -2.6014 -0.3478  2.4081
 5863TIP3   OH241783   2.292   2.545   1.244  0.4925  0.2621 -0.0278
 5863TIP3    H141784   2.357   2.584   1.185  0.6961 -0.0206  0.0061
 5863TIP3    H241785   2.318   2.453   1.250 -1.0343 -0.3437 -1.5571
 5864TIP3   OH241786   3.824   2.682   0.530  0.5407 -0.0213 -0.3797
 5864TIP3    H141787   3.748   2.671   0.588  0.4410  0.8282 -0.3465
 5864TIP3    H241788   3.865   2.595   0.529 -1.2896 -0.9325 -1.6146
 5865TIP3   OH241789   5.909   0.479   2.348 -0.2902  0.3422 -0.4148
 5865TIP3    H141790   5.873   0.513   2.266  2.1001 -1.6720 -2.4295
 5865TIP3    H241791   5.892   0.385   2.345 -2.2800  0.4240  2.6640
 5866TIP3   OH241792   4.697   6.394   2.030  0.0878  0.6203  0.1180
 5866TIP3    H141793   4.731   6.339   2.100  0.2666  1.1082  0.4174
 5866TIP3    H241794   4.716   6.483   2.058  0.9079  0.7928 -0.9228
 5867TIP3   OH241795   3.376   5.555   3.741  0.1207 -0.2247 -0.0894
 5867TIP3    H141796   3.385   5.585   3.650  2.7441 -0.7898 -0.0807
 5867TIP3    H241797   3.415   5.468   3.741  0.4273 -0.1134  1.6411
 5868TIP3   OH241798   2.017   5.519   2.370 -0.0983  0.5294 -0.1078
 5868TIP3    H141799   2.002   5.432   2.333 -0.3910 -0.8560  2.9542
 5868TIP3    H241800   2.110   5.518   2.396 -0.9160 -0.4507  3.3098
 5869TIP3   OH241801   1.886   5.295   2.265  0.0500  0.3549  0.3383
 5869TIP3    H141802   1.863   5.348   2.189 -1.8643  0.7668  1.1448
 5869TIP3    H241803   1.807   5.244   2.284  1.3304 -1.6777  0.5190
 5870TIP3   OH241804   6.366   0.865   3.591  0.3793  0.4709  0.3577
 5870TIP3    H141805   6.400   0.911   3.514 -1.8033  1.4754 -0.0701
 5870TIP3    H241806   6.421   0.896   3.663  0.9252  1.3788 -0.4178
 5871TIP3   OH241807   0.849   3.068   0.732 -0.1535 -0.0879  0.5417
 5871TIP3    H141808   0.792   3.051   0.657  1.9562  0.3125 -1.2600
 5871TIP3    H241809   0.792   3.110   0.796 -1.8155  0.5869 -1.2648
 5872TIP3   OH241810   3.631   2.319   0.858 -0.8203 -0.4658 -0.2989
 5872TIP3    H141811   3.605   2.231   0.833 -0.2509 -0.3900 -1.2034
 5872TIP3    H241812   3.727   2.316   0.861 -0.8138 -0.0086  0.1687
 5873TIP3   OH241813   3.991   4.592   2.996  0.5230  0.1214 -0.2327
 5873TIP3    H141814   4.021   4.623   2.910  1.2246 -0.8140 -0.3444
 5873TIP3    H241815   3.908   4.637   3.010 -0.8799 -1.5202 -2.5281
 5874TIP3   OH241816   4.770   5.515   2.147  0.0555 -0.7370 -0.3663
 5874TIP3    H141817   4.818   5.598   2.145 -0.9201 -0.0530  1.7129
 5874TIP3    H241818   4.838   5.448   2.141  0.9128  0.1931 -1.4178
 5875TIP3   OH241819   3.259   5.539   2.995  0.3078 -0.0182 -0.1689
 5875TIP3    H141820   3.314   5.520   2.919 -1.8667 -3.1269 -1.1505
 5875TIP3    H241821   3.179   5.575   2.958 -1.0041 -2.0969  0.4973
 5876TIP3   OH241822   2.954   3.391   2.847 -0.1585  0.2240  0.1473
 5876TIP3    H141823   3.011   3.314   2.860 -1.6314 -0.7340  1.1713
 5876TIP3    H241824   2.971   3.417   2.756  0.0261 -1.6325 -0.3941
 5877TIP3   OH241825   1.769   0.637   2.365  0.0337  0.0591  0.5552
 5877TIP3    H141826   1.781   0.586   2.444 -0.8587 -0.5817  0.2984
 5877TIP3    H241827   1.799   0.580   2.294  1.4956  0.8872  0.4590
 5878TIP3   OH241828   2.849   0.681   1.333 -0.2892  0.3947 -0.1972
 5878TIP3    H141829   2.780   0.715   1.390  0.2218  1.0490  0.0473
 5878TIP3    H241830   2.914   0.645   1.393  0.2114  1.0077 -0.3619
 5879TIP3   OH241831   4.360   5.393   2.317 -0.6483 -0.0398 -0.3514
 5879TIP3    H141832   4.378   5.396   2.223 -1.4823  3.3756 -0.5546
 5879TIP3    H241833   4.445   5.382   2.358 -0.2577 -1.4675 -1.4654
 5880TIP3   OH241834   2.577   4.116   1.825 -0.5120 -0.4427  0.4354
 5880TIP3    H141835   2.493   4.077   1.800  0.5336 -2.2043 -0.5084
 5880TIP3    H241836   2.568   4.133   1.919 -1.7201 -1.1046  0.4700
 5881TIP3   OH241837   1.904   2.324   0.538  0.5871  0.2562 -0.0467
 5881TIP3    H141838   1.809   2.311   0.534  0.5468 -0.4402  1.9285
 5881TIP3    H241839   1.934   2.255   0.597  1.8980  2.3807  1.9068
 5882TIP3   OH241840   3.454   6.164   3.416  0.8045 -0.3134 -0.2514
 5882TIP3    H141841   3.391   6.236   3.422  1.5340  0.2854  0.4627
 5882TIP3    H241842   3.500   6.166   3.500  0.2827 -2.1434  0.1272
 5883TIP3   OH241843   5.325   1.795   0.980 -0.0863 -0.2366  0.1950
 5883TIP3    H141844   5.330   1.891   0.978 -1.3003 -0.1792 -0.4034
 5883TIP3    H241845   5.239   1.776   1.018 -0.6400 -1.0687 -1.4062
 5884TIP3   OH241846   5.131   2.772   1.149 -0.0856 -0.0121 -0.1858
 5884TIP3    H141847   5.115   2.793   1.057  2.1078 -0.6706 -0.7748
 5884TIP3    H241848   5.105   2.851   1.197 -1.1277  0.3918 -1.3679
 5885TIP3   OH241849   5.131   1.223   2.022 -0.0801  0.3938  0.1957
 5885TIP3    H141850   5.130   1.190   2.112 -0.9335 -0.2793 -0.0434
 5885TIP3    H241851   5.042   1.255   2.008 -0.2743 -0.5356 -0.7730
 5886TIP3   OH241852   2.875   6.376   0.812  0.0586 -0.4551 -0.0388
 5886TIP3    H141853   2.898   6.407   0.724  0.6047  1.4012  0.7082
 5886TIP3    H241854   2.850   6.455   0.859 -1.2527 -1.5629  1.2036
 5887TIP3   OH241855   1.767   4.509   2.184 -0.1323  0.4735  0.3032
 5887TIP3    H141856   1.753   4.528   2.277 -3.5671 -1.9695  0.4841
 5887TIP3    H241857   1.716   4.575   2.138 -0.7476  0.0002  0.3000
 5888TIP3   OH241858   4.918   4.244   0.602 -0.1564  0.0374  0.6553
 5888TIP3    H141859   5.010   4.218   0.606  0.1854  0.8643 -0.9876
 5888TIP3    H241860   4.919   4.338   0.621 -0.6075  0.1480  0.1465
 5889TIP3   OH241861   3.912   5.685   3.534 -0.2062  1.0531  0.4273
 5889TIP3    H141862   3.825   5.704   3.568 -0.3540  0.8650  0.1588
 5889TIP3    H241863   3.912   5.591   3.519  0.4521  0.8555  1.5650
 5890TIP3   OH241864   1.801   0.106   1.522 -0.2346 -0.1394  0.0497
 5890TIP3    H141865   1.761   0.058   1.450 -1.5431 -0.0244  0.6839
 5890TIP3    H241866   1.892   0.118   1.495 -0.2192 -1.7591 -0.7374
 5891TIP3   OH241867   6.424   1.968   2.729  0.7374  0.2005  0.5470
 5891TIP3    H141868   6.474   2.004   2.655  1.6440 -2.3119 -0.1551
 5891TIP3    H241869   6.336   1.957   2.695  0.5091  1.3692  0.6894
 5892TIP3   OH241870   6.133   3.282   0.860 -0.4835  0.0314 -0.2701
 5892TIP3    H141871   6.168   3.243   0.780  1.3412  1.2154 -0.1009
 5892TIP3    H241872   6.183   3.363   0.871 -1.1279  0.2012  1.7436
 5893TIP3   OH241873   0.612   5.319   2.080  0.6196 -0.6840  0.0862
 5893TIP3    H141874   0.610   5.285   2.169 -1.6123 -2.6428 -0.6012
 5893TIP3    H241875   0.520   5.339   2.060  1.0957 -0.0978 -1.7229
 5894TIP3   OH241876   1.809   1.477   3.542 -0.2953 -0.1724 -0.1469
 5894TIP3    H141877   1.845   1.416   3.606 -0.9132 -0.2173  0.1693
 5894TIP3    H241878   1.840   1.563   3.571 -1.1824 -0.1047  0.6661
 5895TIP3   OH241879   0.746   4.926   0.824  0.3035  0.0579 -0.2894
 5895TIP3    H141880   0.710   5.014   0.837  1.1694  0.5803 -1.2516
 5895TIP3    H241881   0.669   4.871   0.808 -0.2212  0.7226 -0.1067
 5896TIP3   OH241882   0.814   5.559   1.688  0.1531 -0.2080 -0.1470
 5896TIP3    H141883   0.757   5.497   1.733  0.8339  1.0380  2.6464
 5896TIP3    H241884   0.754   5.627   1.656 -0.1109  0.5708  1.8694
 5897TIP3   OH241885   0.456   1.516   1.519  0.2617 -0.1234  0.2031
 5897TIP3    H141886   0.437   1.528   1.612  0.0792  0.3440  0.1095
 5897TIP3    H241887   0.376   1.545   1.475  0.6796  0.5381 -0.1392
 5898TIP3   OH241888   2.640   1.166   1.617 -0.1575 -0.1027 -0.3512
 5898TIP3    H141889   2.726   1.161   1.660 -0.6403  0.4009  0.7269
 5898TIP3    H241890   2.627   1.259   1.600  0.8023 -0.4277 -3.3250
 5899TIP3   OH241891   0.974   4.215   2.877  0.6003  0.1545  0.5419
 5899TIP3    H141892   0.922   4.149   2.830 -0.0654  0.0887  1.3559
 5899TIP3    H241893   1.025   4.164   2.939  1.5596  0.2328 -0.1589
 5900TIP3   OH241894   1.668   5.188   2.999 -0.1523 -0.4322 -0.4031
 5900TIP3    H141895   1.728   5.255   2.965  0.1700 -0.4098  0.2075
 5900TIP3    H241896   1.722   5.110   3.011 -0.4676 -0.7222 -0.8384
 5901TIP3   OH241897   3.214   1.119   0.930  0.3608 -0.0528  0.5714
 5901TIP3    H141898   3.169   1.127   0.845 -1.3665 -0.6893  1.3643
 5901TIP3    H241899   3.268   1.041   0.921  0.3960  0.0338 -0.0306
 5902TIP3   OH241900   2.041   0.818   1.373  0.5972  0.6525 -0.2273
 5902TIP3    H141901   2.025   0.731   1.337 -0.1975  1.6486 -2.4509
 5902TIP3    H241902   1.976   0.828   1.442  2.1629 -1.3163  1.6694
 5903TIP3   OH241903   1.522   4.431   1.502  0.1772  0.9949 -0.1413
 5903TIP3    H141904   1.561   4.503   1.452 -0.0272  0.9939 -0.3015
 5903TIP3    H241905   1.577   4.424   1.580 -0.0495  1.5922  0.0764
 5904TIP3   OH241906   6.043   3.863   2.912  0.5365 -0.4846 -0.1044
 5904TIP3    H141907   5.954   3.891   2.929  0.3261 -0.6267 -0.9402
 5904TIP3    H241908   6.097   3.917   2.970  0.0574  0.8784 -0.8859
 5905TIP3   OH241909   3.350   0.258   0.809 -0.2871 -0.0186 -0.0169
 5905TIP3    H141910   3.372   0.191   0.744 -2.6719 -1.1098  0.1868
 5905TIP3    H241911   3.404   0.333   0.785  1.0708 -1.3563 -1.4407
 5906TIP3   OH241912   5.686   0.894   1.148 -0.5639 -0.0718 -0.4962
 5906TIP3    H141913   5.723   0.828   1.206 -1.2059 -0.1396 -0.1568
 5906TIP3    H241914   5.732   0.975   1.171 -0.1757 -0.2832 -0.5226
 5907TIP3   OH241915   5.033   4.379   2.045 -0.2016  0.1643  0.2043
 5907TIP3    H141916   5.121   4.411   2.027  0.3532 -0.8314  0.9941
 5907TIP3    H241917   4.989   4.377   1.960  1.0979 -0.9058 -0.4703
 5908TIP3   OH241918   3.913   5.177   0.673 -0.4197 -0.3910 -0.0224
 5908TIP3    H141919   3.854   5.252   0.662 -0.8376 -0.8590 -1.1327
 5908TIP3    H241920   3.982   5.209   0.731 -0.2109  1.0920 -1.0201
 5909TIP3   OH241921   5.672   5.343   1.180 -0.4148 -0.2786 -0.3374
 5909TIP3    H141922   5.661   5.431   1.215 -0.7666 -0.7368  0.7238
 5909TIP3    H241923   5.683   5.287   1.256  0.8831 -1.0269 -1.0345
 5910TIP3   OH241924   0.363   2.846   2.890  0.0838 -0.0289  0.1256
 5910TIP3    H141925   0.402   2.845   2.802  1.1058 -0.7461  0.5720
 5910TIP3    H241926   0.320   2.932   2.895  1.3451  0.6781 -0.5105
 5911TIP3   OH241927   6.455   4.340   1.730 -0.2543 -0.0014  0.3958
 5911TIP3    H141928   6.406   4.355   1.649  0.3767  1.1633  0.2030
 5911TIP3    H241929   6.446   4.422   1.779 -0.4372 -0.6113  1.4102
 5912TIP3   OH241930   0.810   5.637   2.220  0.4135  0.3307 -0.1011
 5912TIP3    H141931   0.803   5.609   2.312 -1.9588  0.0145 -0.3011
 5912TIP3    H241932   0.811   5.556   2.170  0.5248  0.5087 -0.3904
 5913TIP3   OH241933   4.233   1.525   2.320  0.6382 -0.1365  0.2758
 5913TIP3    H141934   4.297   1.590   2.349  0.2730  0.3513  0.0117
 5913TIP3    H241935   4.214   1.474   2.399  0.9758  0.0374  0.4715
 5914TIP3   OH241936   3.817   0.433   2.732  0.5707  0.1996 -0.4305
 5914TIP3    H141937   3.814   0.474   2.818  0.2432  1.1562 -0.8838
 5914TIP3    H241938   3.799   0.504   2.671  0.8611 -0.4535 -1.2966
 5915TIP3   OH241939   3.284   4.478   3.808  0.4023 -0.2208 -0.4449
 5915TIP3    H141940   3.312   4.396   3.849  0.1451  0.4673  1.1887
 5915TIP3    H241941   3.192   4.488   3.834  0.1745  0.1448 -1.3703
 5916TIP3   OH241942   2.380   1.839   0.669 -0.2549  0.4009  0.4046
 5916TIP3    H141943   2.383   1.930   0.639 -0.3869 -0.0169 -0.9151
 5916TIP3    H241944   2.287   1.817   0.669 -0.1323 -0.2222 -0.8735
 5917TIP3   OH241945   0.029   6.400   0.886  0.3274 -0.2973 -0.2106
 5917TIP3    H141946   0.009   6.365   0.973 -0.0723 -1.7481 -0.8455
 5917TIP3    H241947   0.097   6.465   0.901  0.7970 -1.0487  1.1038
 5918TIP3   OH241948   2.452   3.615   1.111 -0.3464  0.1348  0.2038
 5918TIP3    H141949   2.405   3.621   1.195 -0.9159  0.6619 -0.1465
 5918TIP3    H241950   2.541   3.589   1.136  0.0308  2.1256  1.1622
 5919TIP3   OH241951   2.890   3.922   3.516 -0.3494 -0.2059 -0.5305
 5919TIP3    H141952   2.812   3.977   3.512 -0.3802 -0.2337 -0.3160
 5919TIP3    H241953   2.872   3.859   3.586 -0.1988 -0.3113 -0.5855
 5920TIP3   OH241954   3.174   0.673   1.237 -0.7221  0.0238  0.0123
 5920TIP3    H141955   3.089   0.642   1.268 -0.1849  0.8401  2.5365
 5920TIP3    H241956   3.224   0.593   1.221 -1.4033 -0.4497  0.1878
 5921TIP3   OH241957   4.155   0.572   4.162 -0.4348 -0.3892 -0.0476
 5921TIP3    H141958   4.142   0.666   4.168 -2.1634 -0.6149  0.4242
 5921TIP3    H241959   4.231   0.554   4.218 -2.4083  0.3057  3.0966
 5922TIP3   OH241960   4.914   5.526   1.519 -0.2353  0.5597  0.2106
 5922TIP3    H141961   4.922   5.431   1.529 -1.3997  0.4619  0.3576
 5922TIP3    H241962   4.903   5.559   1.608  1.8543  1.0384  0.3339
 5923TIP3   OH241963   2.897   3.508   3.284 -0.1369 -0.0255  0.3312
 5923TIP3    H141964   2.862   3.420   3.271  1.0675 -0.4336 -0.3247
 5923TIP3    H241965   2.921   3.511   3.377  0.1125 -0.5066  0.2835
 5924TIP3   OH241966   0.732   3.765   0.478 -0.0079  0.0315  0.2617
 5924TIP3    H141967   0.749   3.820   0.401  0.3572 -1.7366 -0.9730
 5924TIP3    H241968   0.819   3.751   0.516  0.3835 -2.2646 -1.3023
 5925TIP3   OH241969   0.337   3.709   1.669  0.1158  0.0527 -0.1729
 5925TIP3    H141970   0.257   3.717   1.618 -0.1594 -0.2443  0.2069
 5925TIP3    H241971   0.408   3.720   1.604 -0.1989 -2.0265 -0.9610
 5926TIP3   OH241972   5.369   0.533   3.371 -0.6863  0.4562  0.3028
 5926TIP3    H141973   5.340   0.614   3.414 -0.5538  0.7634 -0.1757
 5926TIP3    H241974   5.464   0.538   3.375 -0.5871  1.5639 -1.9278
 5927TIP3   OH241975   5.527   6.288   2.982 -0.5141 -0.0752  0.2667
 5927TIP3    H141976   5.614   6.319   3.004 -0.3888 -1.0533  1.2726
 5927TIP3    H241977   5.496   6.245   3.062 -1.3786 -0.9143 -0.4895
 5928TIP3   OH241978   5.106   2.489   2.886  0.0580  0.5175  0.1796
 5928TIP3    H141979   5.036   2.436   2.924  0.5835 -0.7258 -0.4912
 5928TIP3    H241980   5.108   2.569   2.938 -1.1923  0.1453  0.8308
 5929TIP3   OH241981   4.134   6.154   3.244  0.1756  0.5625 -0.5732
 5929TIP3    H141982   4.203   6.187   3.187 -0.5961  1.1657 -1.1833
 5929TIP3    H241983   4.178   6.092   3.301  1.0781  0.3479 -1.4666
 5930TIP3   OH241984   3.662   3.015   1.846 -0.0995 -0.1487 -0.1717
 5930TIP3    H141985   3.579   2.971   1.827 -0.0352 -0.0193 -0.7776
 5930TIP3    H241986   3.676   3.073   1.771  0.4013  0.0375  0.0597
 5931TIP3   OH241987   2.400   0.812   1.098  0.0290 -0.3324  0.2219
 5931TIP3    H141988   2.385   0.833   1.006 -1.8444 -1.7194  0.1611
 5931TIP3    H241989   2.488   0.774   1.100  0.1157 -0.2154 -0.9798
 5932TIP3   OH241990   2.431   3.370   2.930  0.0526  0.0983 -0.5559
 5932TIP3    H141991   2.526   3.365   2.925  0.1332 -0.0786  0.7001
 5932TIP3    H241992   2.402   3.279   2.932 -0.1536  0.1519 -1.0960
 5933TIP3   OH241993   5.356   4.197   2.257  0.5635  0.3379  0.2033
 5933TIP3    H141994   5.295   4.188   2.331 -0.4769 -2.0116 -0.8358
 5933TIP3    H241995   5.413   4.120   2.264  1.8730  1.2327 -0.2477
 5934TIP3   OH241996   5.273   1.800   2.112 -0.2956 -0.2099  0.2160
 5934TIP3    H141997   5.226   1.843   2.184  0.6938  0.5260  0.4542
 5934TIP3    H241998   5.250   1.708   2.119 -0.1127 -0.1685  1.5677
 5935TIP3   OH241999   5.669   5.631   1.197 -0.3561  0.0370  0.0820
 5935TIP3    H142000   5.658   5.726   1.197  1.7390  0.3275  0.1618
 5935TIP3    H242001   5.746   5.615   1.143 -0.6808 -1.6330  0.0427
 5936TIP3   OH242002   5.067   4.823   1.408 -0.4150 -0.0604 -0.1121
 5936TIP3    H142003   5.006   4.896   1.411 -0.4404 -0.0873  0.0083
 5936TIP3    H242004   5.017   4.752   1.367 -0.5861 -0.2012  0.3447
 5937TIP3   OH242005   6.291   0.404   2.185  0.3175  0.0383 -0.0660
 5937TIP3    H142006   6.313   0.316   2.154  0.1662 -1.0715  2.7214
 5937TIP3    H242007   6.353   0.461   2.139  0.5184 -1.5004 -1.8451
 5938TIP3   OH242008   1.154   4.269   2.620 -0.0379  0.4080  0.3963
 5938TIP3    H142009   1.209   4.201   2.581 -0.4173  0.2319  0.1583
 5938TIP3    H242010   1.209   4.346   2.622  0.2649  0.1960  0.2878
 5939TIP3   OH242011   5.451   3.776   2.532  0.6889  0.0508 -0.3741
 5939TIP3    H142012   5.439   3.682   2.524  0.7706  0.1247 -1.5241
 5939TIP3    H242013   5.516   3.786   2.602  0.9786 -0.7639 -0.5119
 5940TIP3   OH242014   1.560   6.549   4.191 -0.7014  0.4026 -0.1463
 5940TIP3    H142015   1.518   6.579   4.110  0.3104  0.1384 -0.7876
 5940TIP3    H242016   1.606   6.469   4.166 -0.3373  0.3392  0.6843
 5941TIP3   OH242017   4.879   1.319   0.596  0.3305 -0.3484 -0.4551
 5941TIP3    H142018   4.930   1.312   0.676 -2.0244 -0.0382  1.1903
 5941TIP3    H242019   4.845   1.231   0.581  1.9493 -0.7500 -2.0212
 5942TIP3   OH242020   3.491   2.850   2.559 -0.2733 -0.3563 -0.5862
 5942TIP3    H142021   3.409   2.810   2.588  0.6718 -0.9413  1.4864
 5942TIP3    H242022   3.557   2.816   2.619  1.1507  1.7269 -0.8547
 5943TIP3   OH242023   0.259   4.422   4.375  0.3074  0.3414  0.3841
 5943TIP3    H142024   0.268   4.342   4.323 -2.0222  1.7407 -2.4428
 5943TIP3    H242025   0.168   4.421   4.404 -0.1090  2.4149 -0.6549
 5944TIP3   OH242026   1.988   4.064   3.221 -0.2939 -0.5546  0.1963
 5944TIP3    H142027   2.040   4.030   3.148  1.6536  0.7274  0.9038
 5944TIP3    H242028   1.995   4.160   3.212 -0.0407 -0.3703  1.9943
 5945TIP3   OH242029   2.938   2.831   3.368 -0.2709 -0.5829  0.0332
 5945TIP3    H142030   2.883   2.810   3.443 -1.3046  1.1875 -0.1716
 5945TIP3    H242031   3.022   2.856   3.405 -0.7857  0.3109  0.6095
 5946TIP3   OH242032   4.823   6.133   3.453 -0.6014  0.2050 -0.0320
 5946TIP3    H142033   4.730   6.119   3.434 -1.5646  1.1249  3.2832
 5946TIP3    H242034   4.831   6.228   3.460  0.5202  0.1160  0.0039
 5947TIP3   OH242035   4.717   2.459   0.624  0.3773 -0.0492 -0.3228
 5947TIP3    H142036   4.675   2.410   0.694 -0.3093  0.4587 -0.3688
 5947TIP3    H242037   4.663   2.441   0.546  0.5290  0.2079 -0.4908
 5948TIP3   OH242038   3.236   5.944   2.182  0.2115  0.1561  0.2980
 5948TIP3    H142039   3.175   5.942   2.255  1.3791  1.2783  1.3640
 5948TIP3    H242040   3.321   5.964   2.222  0.8431  1.0637 -1.3827
 5949TIP3   OH242041   4.208   5.852   3.132 -0.0755 -0.1992 -0.0067
 5949TIP3    H142042   4.164   5.811   3.207 -2.3580  0.5665 -0.8369
 5949TIP3    H242043   4.171   5.807   3.056 -0.5747  1.5026 -0.8105
 5950TIP3   OH242044   5.179   5.194   1.166 -0.6673  0.4525 -0.3290
 5950TIP3    H142045   5.172   5.273   1.221 -2.8693  0.0307  0.1073
 5950TIP3    H242046   5.091   5.156   1.168  0.3456 -2.0963 -0.4417
 5951TIP3   OH242047   3.966   2.320   2.759 -0.7298  0.6483 -0.0372
 5951TIP3    H142048   3.912   2.388   2.798  0.4569  1.0577  0.9575
 5951TIP3    H242049   3.952   2.243   2.814  1.4702  1.4117  1.7577
 5952TIP3   OH242050   6.119   1.068   2.734  0.0974 -0.0364  0.0287
 5952TIP3    H142051   6.115   1.140   2.796  0.9637 -1.4238  1.8049
 5952TIP3    H242052   6.033   1.027   2.737 -0.3384  0.7948 -0.8497
 5953TIP3   OH242053   4.393   1.177   2.743 -0.0265  0.2636 -0.2195
 5953TIP3    H142054   4.334   1.195   2.817 -0.9071 -0.0002 -0.8310
 5953TIP3    H242055   4.384   1.253   2.686 -0.9080 -0.4043 -1.0125
 5954TIP3   OH242056   0.193   2.540   2.129 -0.0535 -0.4633  0.3120
 5954TIP3    H142057   0.174   2.632   2.148  0.6540 -0.0032 -1.0840
 5954TIP3    H242058   0.109   2.503   2.103  0.1856  0.6526 -2.3306
 5955TIP3   OH242059   5.571   2.010   1.913  0.3172  0.0806  0.3413
 5955TIP3    H142060   5.658   2.046   1.930  0.4768  0.0664 -0.4269
 5955TIP3    H242061   5.570   1.927   1.959  1.3180 -0.7023 -0.9897
 5956TIP3   OH242062   5.432   3.980  12.223 -0.0886  0.3489 -0.0871
 5956TIP3    H142063   5.491   3.906  12.216 -1.1409 -0.3984 -1.4847
 5956TIP3    H242064   5.474   4.050  12.173 -0.4761 -0.2599 -1.2949
 5957TIP3   OH242065   3.743   0.226   4.526  0.5911 -0.2582  0.6858
 5957TIP3    H142066   3.703   0.200   4.442  1.3859 -0.5065  0.3779
 5957TIP3    H242067   3.678   0.202   4.592  0.7590 -1.9017  0.3109
 5958TIP3   OH242068   1.434   2.224   3.284 -0.6424  0.1197  0.2165
 5958TIP3    H142069   1.428   2.276   3.364  1.2709  0.3515  0.2639
 5958TIP3    H242070   1.384   2.273   3.219 -0.1175  1.2579  0.6447
 5959TIP3   OH242071   1.191   6.311   1.194 -0.8484  0.3241 -0.4372
 5959TIP3    H142072   1.177   6.279   1.283  0.3196 -2.8853 -1.2784
 5959TIP3    H242073   1.104   6.308   1.153 -1.1297  0.3842  0.1458
 5960TIP3   OH242074   3.767   2.788   2.706  0.1769  0.6072  0.2042
 5960TIP3    H142075   3.774   2.708   2.758 -1.8499  0.0646 -0.2342
 5960TIP3    H242076   3.743   2.856   2.769  0.8876  0.6495  0.4315
 5961TIP3   OH242077   3.263   1.143   1.201 -0.4600 -1.0188  0.1739
 5961TIP3    H142078   3.253   1.155   1.107 -0.3578 -1.2956  0.1266
 5961TIP3    H242079   3.200   1.075   1.224 -1.1352 -0.3087  0.4635
 5962TIP3   OH242080   4.135   3.456   2.744  0.2950 -0.3202 -0.2124
 5962TIP3    H142081   4.187   3.479   2.821  0.0917 -1.5387  0.3145
 5962TIP3    H242082   4.199   3.420   2.682  0.2998 -0.3898 -0.1674
 5963TIP3   OH242083   2.546   3.826   3.030  0.3243  0.1446 -0.0144
 5963TIP3    H142084   2.616   3.761   3.031  0.5362  0.2811 -1.8290
 5963TIP3    H242085   2.576   3.892   2.966 -1.6532 -0.0620 -1.2399
 5964TIP3   OH242086   4.176   2.099   2.938  0.7532  0.0801  0.5231
 5964TIP3    H142087   4.151   2.158   3.010  0.6713 -1.3137  1.6830
 5964TIP3    H242088   4.247   2.145   2.893 -0.0736  1.5652  0.6702
 5965TIP3   OH242089   4.775   5.713   2.927  0.2756 -0.1719 -0.0234
 5965TIP3    H142090   4.790   5.792   2.876 -0.1692 -0.9702 -1.4440
 5965TIP3    H242091   4.720   5.742   3.000  0.4315  0.8879 -0.3156
 5966TIP3   OH242092   1.961   4.726   2.359 -0.6145 -0.5652  0.1632
 5966TIP3    H142093   1.921   4.793   2.304  0.0600  1.2713  1.7896
 5966TIP3    H242094   1.889   4.688   2.409 -0.7981  0.2227  0.5093
 5967TIP3   OH242095   5.887   1.324   1.042 -0.3592  0.6541  0.3170
 5967TIP3    H142096   5.846   1.409   1.030  0.7179  1.2873  1.0042
 5967TIP3    H242097   5.932   1.307   0.959 -0.9114  0.5583  0.0339
 5968TIP3   OH242098   3.119   5.936   2.872 -0.2140 -0.2294 -0.3147
 5968TIP3    H142099   3.122   5.840   2.873  2.7698 -0.2325 -0.6108
 5968TIP3    H242100   3.172   5.961   2.797  0.7696  1.6486  0.9341
 5969TIP3   OH242101   5.718   3.826   2.331 -0.0951 -0.7942 -0.9607
 5969TIP3    H142102   5.738   3.793   2.243  0.1961 -0.0498 -1.1834
 5969TIP3    H242103   5.770   3.771   2.389 -0.0663 -1.1073 -1.2768
 5970TIP3   OH242104   5.100   1.386   2.878 -0.5029 -0.0292  0.1145
 5970TIP3    H142105   5.104   1.305   2.930  0.3041  0.0561  0.1946
 5970TIP3    H242106   5.108   1.357   2.787  0.4375 -0.0038  0.1761
 5971TIP3   OH242107   2.076   4.710   1.748  0.0829  0.0451 -0.6031
 5971TIP3    H142108   2.118   4.796   1.755  0.4597 -0.1164 -0.8425
 5971TIP3    H242109   2.148   4.649   1.735 -0.2758 -0.1576 -1.7246
 5972TIP3   OH242110   4.624   3.715   1.809  0.0334 -0.0933 -0.1721
 5972TIP3    H142111   4.669   3.745   1.887 -0.1410  0.4553 -0.2805
 5972TIP3    H242112   4.625   3.790   1.750 -0.3493 -0.3193 -0.4708
 5973TIP3   OH242113   1.359   4.172   0.531  0.1673  0.2223  0.3192
 5973TIP3    H142114   1.308   4.199   0.608 -1.3402  0.9586 -0.8906
 5973TIP3    H242115   1.438   4.133   0.568  0.5983  2.6497  2.2393
 5974TIP3   OH242116   4.907   5.249   3.836  0.6071 -0.2125  0.0925
 5974TIP3    H142117   4.812   5.256   3.826  0.6390 -0.1153 -0.1409
 5974TIP3    H242118   4.918   5.178   3.899  0.3828 -0.3728 -0.0422
 5975TIP3   OH242119   0.251   3.358   1.109 -0.3901  0.1602  0.1271
 5975TIP3    H142120   0.306   3.369   1.032  1.7664  0.6217  1.6270
 5975TIP3    H242121   0.232   3.447   1.139  2.3497  0.1254  2.4004
 5976TIP3   OH242122   2.298   1.272   1.503 -0.0540 -0.0979 -0.5267
 5976TIP3    H142123   2.383   1.293   1.541  0.2251 -2.1501  0.1032
 5976TIP3    H242124   2.277   1.348   1.448  0.8391  1.7107  1.4779
 5977TIP3   OH242125   6.206   0.667   3.721  0.0590  0.1758 -0.3654
 5977TIP3    H142126   6.150   0.629   3.654  0.5753  0.7356 -1.1315
 5977TIP3    H242127   6.267   0.722   3.673  2.0862 -1.3527  0.2932
 5978TIP3   OH242128   2.132   4.098   0.816 -0.7149  0.5919  0.6597
 5978TIP3    H142129   2.194   4.143   0.759  1.9996 -1.5980  1.6603
 5978TIP3    H242130   2.152   4.005   0.805 -4.4212 -0.3424  0.4941
 5979TIP3   OH242131   5.829   0.210   3.714  0.2443  0.1381 -0.6228
 5979TIP3    H142132   5.734   0.217   3.699  0.1646 -2.0246 -1.4685
 5979TIP3    H242133   5.844   0.117   3.726  2.4127  0.3500 -1.3603
 5980TIP3   OH242134   1.662   6.207   1.809 -0.3279 -0.1100  1.0728
 5980TIP3    H142135   1.618   6.168   1.884 -0.5625 -1.2309  0.3740
 5980TIP3    H242136   1.593   6.216   1.743  0.3376 -1.3195  0.1793
 5981TIP3   OH242137   6.482   3.074   3.178  0.1018 -0.2445 -0.8432
 5981TIP3    H142138   6.508   3.031   3.260  0.9624  0.4949 -0.7101
 5981TIP3    H242139   6.544   3.041   3.113 -0.2018 -0.3718 -1.0698
 5982TIP3   OH242140   5.542   1.790   2.035  0.0632 -0.3377 -0.1451
 5982TIP3    H142141   5.447   1.792   2.031  0.0231 -0.0985  0.8752
 5982TIP3    H242142   5.563   1.775   2.127  1.0370  1.4385 -0.0405
 5983TIP3   OH242143   4.372   2.374   1.756 -0.2033 -0.2734  0.1949
 5983TIP3    H142144   4.466   2.358   1.754 -0.3490 -1.1547 -0.1590
 5983TIP3    H242145   4.360   2.433   1.830  0.6898  0.3357 -0.1275
 5984TIP3   OH242146   0.189   2.299   1.132 -0.6056  0.1495 -0.1664
 5984TIP3    H142147   0.133   2.233   1.173  0.2521 -0.4027  0.1171
 5984TIP3    H242148   0.265   2.305   1.188  0.7137 -0.7834 -1.7583
 5985TIP3   OH242149   1.741   0.439   2.145 -0.0389  0.2659  0.1908
 5985TIP3    H142150   1.741   0.412   2.053  0.3423  0.6746  0.0672
 5985TIP3    H242151   1.805   0.381   2.187  0.5407  0.7542 -0.0091
 5986TIP3   OH242152   2.243   5.799   2.352 -0.1044 -0.0692  0.4376
 5986TIP3    H142153   2.254   5.707   2.376  0.0553  0.0664  0.8965
 5986TIP3    H242154   2.241   5.799   2.256  0.9719 -0.4389  0.4001
 5987TIP3   OH242155   6.382   5.629   4.137 -0.1841 -0.0529 -0.5680
 5987TIP3    H142156   6.309   5.674   4.180  0.7851  1.6183 -0.6092
 5987TIP3    H242157   6.354   5.537   4.134 -1.6071  0.2808  0.8259
 5988TIP3   OH242158   0.607   3.174   3.043 -0.0298 -0.6550 -0.3693
 5988TIP3    H142159   0.523   3.193   3.001 -0.0709  0.6881  0.2594
 5988TIP3    H242160   0.584   3.153   3.133  0.2919 -0.3540 -0.2128
 5989TIP3   OH242161   4.680   6.485   3.334  0.2096 -0.5884  0.8695
 5989TIP3    H142162   4.599   6.452   3.372 -0.4003  0.6193  0.6681
 5989TIP3    H242163   4.680   6.579   3.354  1.7358 -0.6233  1.1747
 5990TIP3   OH242164   5.161   3.088   3.478  0.0245 -0.0245 -0.0319
 5990TIP3    H142165   5.185   3.157   3.539 -1.6870  1.0891 -0.5210
 5990TIP3    H242166   5.190   3.007   3.519 -0.0740  0.7872  1.6955
 5991TIP3   OH242167   5.165   2.650   1.614  0.5858 -0.6668 -0.7182
 5991TIP3    H142168   5.226   2.702   1.561  1.6091  0.5874  1.5442
 5991TIP3    H242169   5.101   2.713   1.646  0.4585 -1.2243  0.1589
 5992TIP3   OH242170   5.208   3.563   1.687  0.5050 -0.8077  0.0535
 5992TIP3    H142171   5.291   3.545   1.731  0.7027  0.3037  0.1870
 5992TIP3    H242172   5.180   3.479   1.652  1.1650 -1.4019  0.9063
 5993TIP3   OH242173   5.676   6.695   1.933 -0.0460 -0.1581  0.0021
 5993TIP3    H142174   5.669   6.788   1.914 -2.9336 -0.2281  0.2543
 5993TIP3    H242175   5.728   6.690   2.013 -1.6560  1.4614  1.2186
 5994TIP3   OH242176   0.624   4.291   1.921  0.1106 -0.2947  0.0068
 5994TIP3    H142177   0.617   4.313   1.828  1.5726  0.4780  0.0480
 5994TIP3    H242178   0.674   4.363   1.959  1.7550 -1.8181  0.8953
 5995TIP3   OH242179   5.799   2.445   1.007 -0.0398 -0.2475 -0.2382
 5995TIP3    H142180   5.863   2.380   0.978  0.7773  0.9983 -1.2893
 5995TIP3    H242181   5.734   2.448   0.937 -0.5043 -0.4912  0.1759
 5996TIP3   OH242182   0.184   1.721   3.598 -0.1827 -0.2308  0.2406
 5996TIP3    H142183   0.237   1.669   3.537  1.8445  0.4937  1.3024
 5996TIP3    H242184   0.105   1.744   3.548  0.6275 -1.1072 -1.5086
 5997TIP3   OH242185   4.587   4.625   1.634 -0.4604 -0.3612  0.3202
 5997TIP3    H142186   4.591   4.533   1.607 -0.5879 -0.0441 -0.8366
 5997TIP3    H242187   4.509   4.631   1.689  0.3298 -1.2280  1.5915
 5998TIP3   OH242188   0.298   0.163   1.441 -0.0584  0.9256 -0.3022
 5998TIP3    H142189   0.247   0.211   1.507 -0.0777 -0.2154  0.5468
 5998TIP3    H242190   0.379   0.138   1.486  0.7639  1.7263 -1.2920
 5999TIP3   OH242191   6.030   1.402   0.549 -0.1463  0.1441  0.1163
 5999TIP3    H142192   6.005   1.381   0.459  1.4484  1.4368 -0.7003
 5999TIP3    H242193   6.085   1.480   0.540 -0.7276  0.8724  2.3252
 6000TIP3   OH242194   2.302   3.586   4.283 -0.5890  0.1958 -0.8769
 6000TIP3    H142195   2.209   3.589   4.260 -0.8644  0.3722  0.1971
 6000TIP3    H242196   2.317   3.667   4.332  0.5102  0.9117 -2.3263
 6001TIP3   OH242197   4.189   5.193   4.119 -0.0777 -0.2082  0.2853
 6001TIP3    H142198   4.239   5.130   4.171 -1.7819 -0.5022  1.6621
 6001TIP3    H242199   4.210   5.278   4.158  1.5545  0.0161 -1.0171
 6002TIP3   OH242200   2.030   5.449   1.247  0.1837  0.2559  0.0122
 6002TIP3    H142201   1.948   5.433   1.202  0.7058  1.1019 -1.2852
 6002TIP3    H242202   2.011   5.523   1.306  0.4665  1.7616 -1.7030
 6003TIP3   OH242203   6.268   3.381   1.446  1.1486  0.0375 -0.4392
 6003TIP3    H142204   6.306   3.467   1.466  0.8611 -0.0043  0.2957
 6003TIP3    H242205   6.312   3.354   1.365  1.6401  0.6291 -0.3779
 6004TIP3   OH242206   0.412   3.066   2.363 -0.8616  0.3345 -0.0980
 6004TIP3    H142207   0.371   2.980   2.366 -0.1241  0.0042  1.8225
 6004TIP3    H242208   0.439   3.077   2.272  1.2685 -2.5495  0.0771
 6005TIP3   OH242209   1.412   2.581   2.251  0.1946 -0.0392 -0.5238
 6005TIP3    H142210   1.494   2.531   2.251  1.1763  1.5114 -1.4958
 6005TIP3    H242211   1.352   2.526   2.301  1.7741 -1.2800  0.1251
 6006TIP3   OH242212   4.464   0.577   1.928  0.1838 -0.5674 -0.2119
 6006TIP3    H142213   4.402   0.555   1.859  0.1604 -1.0844 -0.0306
 6006TIP3    H242214   4.452   0.671   1.942 -1.1964 -0.8244  0.4501
 6007TIP3   OH242215   2.865   0.916   0.622  0.9344 -0.0201 -0.0038
 6007TIP3    H142216   2.795   0.928   0.558  2.1511  0.1463 -1.3580
 6007TIP3    H242217   2.834   0.845   0.678 -0.7360  0.7139  0.0618
 6008TIP3   OH242218   0.416   1.329   2.678 -0.0095  0.6082  0.0725
 6008TIP3    H142219   0.401   1.394   2.747  1.9503  0.0824  1.0760
 6008TIP3    H242220   0.338   1.273   2.680 -0.4010  1.1694  1.2312
 6009TIP3   OH242221   0.689   1.130   0.585 -0.0503 -0.2366 -0.4330
 6009TIP3    H142222   0.597   1.112   0.565 -0.6227  0.3314  1.4388
 6009TIP3    H242223   0.707   1.215   0.545 -0.8482  0.4092  0.5453
 6010TIP3   OH242224   0.223   1.754   1.117 -0.0525 -0.5022  0.0932
 6010TIP3    H142225   0.262   1.805   1.046  0.6253 -0.7431  0.2823
 6010TIP3    H242226   0.237   1.809   1.195  1.1176 -1.1684  0.3787
 6011TIP3   OH242227   5.303   0.799   0.865 -0.2668 -0.2340  0.1423
 6011TIP3    H142228   5.357   0.847   0.802 -1.7576  1.2462 -0.0566
 6011TIP3    H242229   5.324   0.840   0.949 -0.6242 -0.0668  0.1503
 6012TIP3   OH242230   6.546   4.221   2.498 -0.2974  0.7038  0.3839
 6012TIP3    H142231   6.480   4.248   2.562 -0.3312 -0.1442  0.7270
 6012TIP3    H242232   6.569   4.132   2.525  0.2072  0.6024 -0.3708
 6013TIP3   OH242233   0.532   4.888   2.202  0.0301 -0.0360 -0.0933
 6013TIP3    H142234   0.551   4.945   2.276 -0.4051 -0.4342  0.3385
 6013TIP3    H242235   0.611   4.836   2.190  0.3707  0.5457 -0.3898
 6014TIP3   OH242236   0.614   2.011   2.495 -0.6002  0.2501  0.5420
 6014TIP3    H142237   0.667   2.081   2.457 -2.0882  0.8472 -0.5335
 6014TIP3    H242238   0.675   1.939   2.509  0.6109  1.1444 -0.0199
 6015TIP3   OH242239   0.689   2.169   0.724 -0.4730 -0.4658  0.2201
 6015TIP3    H142240   0.665   2.076   0.730  1.2380 -0.9575 -0.0715
 6015TIP3    H242241   0.759   2.172   0.659 -0.3690  1.0250  0.3624
 6016TIP3   OH242242   3.225   2.055   1.859  0.3638 -0.3177  0.2689
 6016TIP3    H142243   3.231   2.148   1.879 -0.7785 -0.4776  1.5062
 6016TIP3    H242244   3.195   2.015   1.940  0.9295 -1.7921 -0.2071
 6017TIP3   OH242245   0.072   2.002   3.341  0.7115  0.5624 -0.3803
 6017TIP3    H142246   0.096   2.066   3.408 -0.8898  1.4723 -0.6137
 6017TIP3    H242247   0.030   1.931   3.391  1.3182  0.3031 -0.2387
 6018TIP3   OH242248   2.142   1.421   2.070 -0.2641  0.2283  0.1387
 6018TIP3    H142249   2.059   1.468   2.060 -0.9598 -1.0677 -0.4778
 6018TIP3    H242250   2.123   1.332   2.038  1.1136 -0.3520  0.8511
 6019TIP3   OH242251   2.889   6.659   1.461  0.3969  0.2763 -0.4347
 6019TIP3    H142252   2.850   6.723   1.520 -1.1033  0.8886 -1.9980
 6019TIP3    H242253   2.954   6.709   1.411  0.7411  0.0595 -0.2122
 6020TIP3   OH242254   5.435   1.950   1.649 -0.3066  0.2786  0.3031
 6020TIP3    H142255   5.468   1.919   1.733 -0.2035 -0.5145 -0.0208
 6020TIP3    H242256   5.512   1.987   1.605  0.2567 -1.7485 -0.5325
 6021TIP3   OH242257   0.270   4.610   3.186  0.0906  0.1415 -0.5396
 6021TIP3    H142258   0.283   4.515   3.196 -0.1823  0.0124 -1.3733
 6021TIP3    H242259   0.244   4.621   3.095 -0.7609  0.9293 -0.2083
 6022TIP3   OH242260   3.595   4.866   3.995 -0.2757 -0.0428 -0.1644
 6022TIP3    H142261   3.515   4.816   3.983 -1.5039  1.3207  1.7243
 6022TIP3    H242262   3.578   4.920   4.073  2.2176  0.8014 -0.1174
 6023TIP3   OH242263   1.835   0.432   3.385 -0.3776 -0.0100  0.4248
 6023TIP3    H142264   1.822   0.516   3.429 -0.8181 -0.1719  0.6197
 6023TIP3    H242265   1.925   0.434   3.354 -0.5852  0.8072 -0.1565
 6024TIP3   OH242266   0.949   6.383   3.575 -0.2901  0.0104 -0.1194
 6024TIP3    H142267   0.880   6.327   3.611  0.2166 -0.8660 -0.4803
 6024TIP3    H242268   1.005   6.403   3.649 -0.2577 -0.2925 -0.0606
 6025TIP3   OH242269   4.632   1.821   0.907  0.6192  0.0177 -0.5715
 6025TIP3    H142270   4.539   1.839   0.889  0.7107  0.7381 -0.3413
 6025TIP3    H242271   4.675   1.833   0.823  0.5606  0.0670 -0.5945
 6026TIP3   OH242272   0.788   3.334   2.448  0.1940  0.5647 -0.1390
 6026TIP3    H142273   0.803   3.260   2.389  0.6101  1.9192 -1.8066
 6026TIP3    H242274   0.848   3.320   2.521 -0.0150 -0.9274 -0.2353
 6027TIP3   OH242275   0.121   5.420   2.948  0.4094  0.2067  0.5330
 6027TIP3    H142276   0.064   5.472   3.004  1.2007  1.6842  0.0244
 6027TIP3    H242277   0.099   5.329   2.969 -2.3743  0.6814  0.0901
 6028TIP3   OH242278   3.356   6.452   3.442  0.2630  0.3639  0.1010
 6028TIP3    H142279   3.269   6.446   3.404 -0.4807 -0.1796  1.7842
 6028TIP3    H242280   3.343   6.433   3.535  2.0674  1.0007  0.5309
 6029TIP3   OH242281   6.230   4.718   1.361  0.1104 -0.0277 -0.0037
 6029TIP3    H142282   6.174   4.719   1.283 -0.9873  2.1302  0.7182
 6029TIP3    H242283   6.170   4.698   1.433  0.9190 -0.9414  0.4397
 6030TIP3   OH242284   4.259   0.080   2.790 -0.5168 -0.3468  0.4630
 6030TIP3    H142285   4.288  -0.007   2.763  1.1000  0.2815  0.0683
 6030TIP3    H242286   4.261   0.131   2.709  2.0539  0.9476  1.2362
 6031TIP3   OH242287   1.572   4.745   2.611  0.1194 -0.0345  0.0656
 6031TIP3    H142288   1.618   4.829   2.612 -0.9574  0.5859  2.1923
 6031TIP3    H242289   1.489   4.764   2.567 -0.9210  0.5353  2.1614
 6032TIP3   OH242290   3.480   0.094   3.410  0.4611 -0.7604  0.0442
 6032TIP3    H142291   3.531   0.017   3.436 -0.4008 -1.6516 -0.7665
 6032TIP3    H242292   3.401   0.057   3.370  0.0289  0.5578 -0.3741
 6033TIP3   OH242293   0.318   0.715   3.639 -0.0951  0.6120 -0.0045
 6033TIP3    H142294   0.235   0.686   3.600  0.3866 -1.3556  0.3279
 6033TIP3    H242295   0.311   0.689   3.731  0.7244  0.8154  0.1208
 6034TIP3   OH242296   2.365   5.648   2.933  0.7750 -0.0005 -0.9995
 6034TIP3    H142297   2.353   5.620   2.842 -0.2257  0.1970 -0.9357
 6034TIP3    H242298   2.313   5.587   2.984  2.5358 -1.0569 -0.3916
 6035TIP3   OH242299   2.380   5.176   1.423  0.7208  0.3096 -0.1568
 6035TIP3    H142300   2.418   5.103   1.373 -3.0855 -1.7291 -0.4041
 6035TIP3    H242301   2.421   5.171   1.509  2.5178 -0.3384 -1.0081
 6036TIP3   OH242302   5.814   5.452   2.651 -0.0307  0.2911  0.3001
 6036TIP3    H142303   5.894   5.504   2.654 -0.5082  1.1155 -0.6756
 6036TIP3    H242304   5.798   5.426   2.742 -0.2892  2.6596  0.9975
 6037TIP3   OH242305   2.166   4.607   2.223  0.0920  0.1517  0.1419
 6037TIP3    H142306   2.100   4.643   2.281 -0.6871 -0.0112 -0.6217
 6037TIP3    H242307   2.249   4.622   2.268 -0.4034  0.9647  0.8034
 6038TIP3   OH242308   2.656   2.055   2.035  0.1311 -0.2473 -0.2368
 6038TIP3    H142309   2.719   2.027   1.968  0.3746 -0.2592 -0.0002
 6038TIP3    H242310   2.581   2.087   1.984 -0.1066 -1.2107 -0.5185
 6039TIP3   OH242311   1.153   3.000   3.101 -0.7166  0.2468 -0.0306
 6039TIP3    H142312   1.082   2.972   3.042 -0.8078 -0.2619  0.3110
 6039TIP3    H242313   1.208   2.922   3.110  0.8455  1.0910 -1.6364
 6040TIP3   OH242314   4.926   3.935   2.351 -0.3386  0.1914 -0.2624
 6040TIP3    H142315   4.927   4.008   2.289  1.4758  1.0248  0.6690
 6040TIP3    H242316   4.971   3.969   2.429 -0.4490 -1.5712  0.6121
 6041TIP3   OH242317   3.549   3.529   2.678  0.0596 -0.2336 -0.2416
 6041TIP3    H142318   3.632   3.498   2.642 -0.8010 -1.3966 -1.3433
 6041TIP3    H242319   3.487   3.519   2.605 -1.5049 -1.4626  1.1717
 6042TIP3   OH242320   0.437   1.572   2.863 -0.0176  0.1292 -0.1370
 6042TIP3    H142321   0.352   1.583   2.906 -0.3950 -0.2232 -0.7847
 6042TIP3    H242322   0.424   1.606   2.775  0.1266 -1.1572 -0.6702
 6043TIP3   OH242323   2.778   5.840   4.358 -0.8434 -0.3604  0.4214
 6043TIP3    H142324   2.793   5.764   4.301  1.1779 -1.3161  2.0732
 6043TIP3    H242325   2.748   5.802   4.441  1.0151  0.4766  1.5602
 6044TIP3   OH242326   4.778   5.290   1.295  0.1250  0.0842  0.0682
 6044TIP3    H142327   4.719   5.296   1.370 -2.4536 -1.5430 -1.6854
 6044TIP3    H242328   4.862   5.264   1.333 -0.9222 -0.1269  2.4215
 6045TIP3   OH242329   5.179   6.201   1.233 -0.2419 -0.3850  0.4021
 6045TIP3    H142330   5.265   6.243   1.227 -0.3283 -0.3177 -0.5837
 6045TIP3    H242331   5.163   6.169   1.144 -1.0374 -0.7918  0.6924
 6046TIP3   OH242332   2.528   4.421   1.390  0.0279 -0.3120 -0.3047
 6046TIP3    H142333   2.556   4.421   1.482  0.7588 -0.1112 -0.5209
 6046TIP3    H242334   2.487   4.507   1.378  0.9707  0.1406 -0.4558
 6047TIP3   OH242335   1.571   5.174   4.443 -0.1570 -0.1560 -1.1698
 6047TIP3    H142336   1.503   5.241   4.444  1.3428  1.5130  0.7228
 6047TIP3    H242337   1.551   5.119   4.368 -2.9387  0.8764 -1.2961
 6048TIP3   OH242338   1.468   6.678   3.931 -0.0734 -0.2160  0.2558
 6048TIP3    H142339   1.502   6.766   3.910 -0.5848 -0.2717 -0.8923
 6048TIP3    H242340   1.517   6.620   3.872  0.5539 -0.7670  1.2968
 6049TIP3   OH242341   3.458   4.509   1.719 -0.5857  0.1849 -0.1799
 6049TIP3    H142342   3.418   4.466   1.643 -0.6082 -0.6751  0.3020
 6049TIP3    H242343   3.390   4.569   1.751 -1.0378 -0.3525 -0.1101
 6050TIP3   OH242344   3.878   1.917   1.809 -0.0098 -0.2398 -0.0041
 6050TIP3    H142345   3.785   1.936   1.818 -0.4238 -2.4374  0.8363
 6050TIP3    H242346   3.912   1.988   1.754 -2.3792  0.0379 -1.2071
 6051TIP3   OH242347   6.663   6.686   2.410  0.2904  0.0214  0.1245
 6051TIP3    H142348   6.719   6.713   2.337 -0.9365  3.3286  0.2018
 6051TIP3    H242349   6.616   6.766   2.434 -1.0024 -1.4773  3.1065
 6052TIP3   OH242350   3.707   6.025   2.740  0.1750 -0.2358  0.4437
 6052TIP3    H142351   3.741   5.988   2.821 -0.8706 -2.5056 -0.0606
 6052TIP3    H242352   3.612   6.013   2.746  0.1698 -2.4275 -1.8887
 6053TIP3   OH242353   1.773   0.044   2.798 -0.0889 -0.0827  0.2814
 6053TIP3    H142354   1.712  -0.023   2.765 -1.5813  1.0507  0.6128
 6053TIP3    H242355   1.820  -0.000   2.869 -1.8233 -0.5155  1.2265
 6054TIP3   OH242356   0.285   4.162   2.623  0.0653  0.3360 -0.4779
 6054TIP3    H142357   0.244   4.186   2.540  0.4198  2.4651 -0.0952
 6054TIP3    H242358   0.375   4.142   2.599 -0.4323 -1.5462 -0.9200
 6055TIP3   OH242359   0.137   4.723   3.947  0.1203 -0.0844  0.0025
 6055TIP3    H142360   0.194   4.765   4.012  0.0787 -0.4433  0.2708
 6055TIP3    H242361   0.137   4.630   3.971  0.2431 -0.2488 -0.6148
 6056TIP3   OH242362   2.054   4.578   2.876 -0.0626  0.7161  0.1408
 6056TIP3    H142363   2.136   4.557   2.921 -0.2089 -0.5509 -0.1453
 6056TIP3    H242364   2.034   4.500   2.825 -1.3466  1.0870  0.0362
 6057TIP3   OH242365   1.032   3.760   0.497  0.1106 -0.4593 -0.4587
 6057TIP3    H142366   1.100   3.701   0.531  1.4693  0.3679 -1.6036
 6057TIP3    H242367   1.081   3.824   0.444 -1.3345  1.5541  0.5374
 6058TIP3   OH242368   2.119   1.164   2.464  0.3945 -0.0346  0.6158
 6058TIP3    H142369   2.191   1.102   2.454  0.9309  0.4838  1.1990
 6058TIP3    H242370   2.128   1.197   2.553 -0.4218  0.2182  0.6101
 6059TIP3   OH242371   2.654   1.031   2.052  0.2507  0.7254 -0.1602
 6059TIP3    H142372   2.639   0.980   2.132 -0.1672 -0.6990 -1.0896
 6059TIP3    H242373   2.747   1.053   2.054  0.2557  0.6386  0.6806
 6060TIP3   OH242374   1.551   6.600   1.270 -0.5495 -0.3124  0.2922
 6060TIP3    H142375   1.643   6.618   1.252 -1.0808  3.4060  0.5239
 6060TIP3    H242376   1.550   6.554   1.354  1.0662  0.8637  0.9911
 6061TIP3   OH242377   4.143   5.390   3.627 -0.2354  0.7313 -0.4740
 6061TIP3    H142378   4.128   5.296   3.623 -0.1874  0.7121 -0.1992
 6061TIP3    H242379   4.140   5.419   3.535  1.0861  0.2539 -0.6890
 6062TIP3   OH242380   0.862   3.854   1.361 -0.2126 -1.1089  0.0281
 6062TIP3    H142381   0.771   3.882   1.348  0.6013  1.0533 -1.6287
 6062TIP3    H242382   0.877   3.789   1.294  0.3346  0.9600 -1.9896
 6063TIP3   OH242383   6.642   0.437   1.168 -0.1762  0.3121  0.1757
 6063TIP3    H142384   6.662   0.528   1.189  0.1981  0.2635  0.0417
 6063TIP3    H242385   6.613   0.399   1.250  1.0544  0.1794  0.5664
 6064TIP3   OH242386   1.497   0.255   3.567  0.2056  0.0466 -0.1528
 6064TIP3    H142387   1.485   0.342   3.529  0.8930  0.3424  0.2926
 6064TIP3    H242388   1.586   0.231   3.543  1.1366  0.7817  2.3140
 6065TIP3   OH242389   2.281   5.187   1.867  0.0900 -0.0235  0.0846
 6065TIP3    H142390   2.356   5.174   1.809  0.8874  1.3521  0.7600
 6065TIP3    H242391   2.319   5.203   1.953 -0.8446  2.3712  0.1524
 6066TIP3   OH242392   5.996   2.769   2.311 -0.1489 -0.3380  0.2897
 6066TIP3    H142393   5.942   2.758   2.390  1.5702 -0.6057  1.4904
 6066TIP3    H242394   6.070   2.709   2.324  1.0509  0.8456 -0.7255
 6067TIP3   OH242395   2.474   0.205   0.964 -0.1022  0.1702 -0.0812
 6067TIP3    H142396   2.400   0.159   1.002 -0.6373  1.8873  1.0797
 6067TIP3    H242397   2.529   0.228   1.039  0.4984  0.7853 -0.6936
 6068TIP3   OH242398   5.994   2.913   1.622 -0.1485  0.4309 -0.3098
 6068TIP3    H142399   6.069   2.914   1.562  0.9869  2.2857  1.0690
 6068TIP3    H242400   6.032   2.903   1.709 -1.7711 -2.2359  0.2149
 6069TIP3   OH242401   6.174   4.124   3.803  0.6745  0.3521 -0.4325
 6069TIP3    H142402   6.113   4.131   3.729  0.0185 -2.0153 -0.2078
 6069TIP3    H242403   6.260   4.117   3.763  0.3768 -0.3234 -0.9768
 6070TIP3   OH242404   4.517   5.249   1.159  0.0576  0.0941 -0.3421
 6070TIP3    H142405   4.608   5.263   1.185 -0.1093 -2.2680  2.0049
 6070TIP3    H242406   4.466   5.274   1.236 -1.1784  0.0657 -1.1277
 6071TIP3   OH242407   4.346   6.536   2.616 -0.9817  0.5254  0.0803
 6071TIP3    H142408   4.424   6.558   2.667 -0.2594 -0.6625 -0.4562
 6071TIP3    H242409   4.301   6.469   2.667 -0.5813 -0.2208 -0.5149
 6072TIP3   OH242410   1.560   6.176   4.430 -0.1297 -0.2145 -0.4102
 6072TIP3    H142411   1.542   6.270   4.443 -0.3607 -0.4772  1.3671
 6072TIP3    H242412   1.639   6.160   4.482 -1.4707 -1.4879  1.3410
 6073TIP3   OH242413   6.146   2.062   3.044  0.1503  0.5355  0.2208
 6073TIP3    H142414   6.109   2.135   2.994 -1.0067  0.3179  0.7388
 6073TIP3    H242415   6.085   1.990   3.031  0.6551  0.0127  0.6860
 6074TIP3   OH242416   0.340   5.715   1.679 -0.1522  0.6086 -0.1831
 6074TIP3    H142417   0.280   5.766   1.733  0.3989  0.3395  0.6968
 6074TIP3    H242418   0.330   5.625   1.710  1.9999  0.7953  1.2462
 6075TIP3   OH242419   3.351   4.404   2.837 -0.0284 -0.1705  0.8852
 6075TIP3    H142420   3.393   4.481   2.797 -1.0093  0.2612  0.6636
 6075TIP3    H242421   3.384   4.330   2.786  0.6622  0.1350  0.8808
 6076TIP3   OH242422   0.304   4.288   1.690 -0.1204  0.3218 -0.3580
 6076TIP3    H142423   0.288   4.333   1.773 -0.9550 -0.1658 -0.2405
 6076TIP3    H242424   0.219   4.289   1.646  0.6079  1.7401 -1.8186
 6077TIP3   OH242425   3.264   4.889   2.118  0.2979 -0.0309 -0.5093
 6077TIP3    H142426   3.304   4.924   2.198  1.0828 -0.5303 -0.6757
 6077TIP3    H242427   3.235   4.801   2.142 -1.3901  0.5712 -0.1841
 6078TIP3   OH242428   4.941   0.710   1.256  0.0799 -0.4207  0.2718
 6078TIP3    H142429   4.995   0.638   1.222  0.3162 -0.2734  0.3395
 6078TIP3    H242430   4.859   0.667   1.280  0.6681 -0.8939  1.5058
 6079TIP3   OH242431   2.219   0.449   2.929 -0.4690  0.0914  0.2853
 6079TIP3    H142432   2.272   0.380   2.889 -1.4214  0.8284 -2.4798
 6079TIP3    H242433   2.279   0.523   2.937 -0.6540  0.4692 -1.4733
 6080TIP3   OH242434   0.169   1.411   1.611  0.5067 -0.0796 -0.4913
 6080TIP3    H142435   0.158   1.321   1.582  1.9096 -0.6883  0.7460
 6080TIP3    H242436   0.198   1.458   1.533 -2.1553 -0.1807 -1.6797
 6081TIP3   OH242437   3.077   5.504   1.185  0.0808 -0.8091 -0.6173
 6081TIP3    H142438   3.000   5.477   1.235  0.2662 -0.2119  0.0065
 6081TIP3    H242439   3.044   5.568   1.122  0.0594 -0.5717 -0.3674
 6082TIP3   OH242440   1.049   5.636   3.735  0.0393  0.2253 -0.5584
 6082TIP3    H142441   0.981   5.609   3.797  2.1554 -0.2215  1.7310
 6082TIP3    H242442   1.110   5.562   3.733  0.9394  0.9730 -1.8159
 6083TIP3   OH242443   5.513   0.105   3.830  0.0527  0.2579  0.6487
 6083TIP3    H142444   5.524   0.053   3.751 -0.1153  1.2685 -0.0689
 6083TIP3    H242445   5.578   0.071   3.891  1.8124  0.9718 -0.7324
 6084TIP3   OH242446   0.682   5.187   0.860 -0.5587 -0.2158  0.3402
 6084TIP3    H142447   0.775   5.196   0.840 -0.3341  0.7016  1.7054
 6084TIP3    H242448   0.648   5.276   0.859 -1.5892 -0.5826 -0.7436
 6085TIP3   OH242449   1.585   6.114   3.959 -0.0746  0.0585  0.1757
 6085TIP3    H142450   1.605   6.038   3.905  0.7697  0.6015 -0.2985
 6085TIP3    H242451   1.665   6.131   4.008  0.2693  1.4951 -0.8042
 6086TIP3   OH242452   2.196   0.238   3.094 -0.4402 -0.1695 -0.4665
 6086TIP3    H142453   2.133   0.276   3.156  0.2059 -1.2552  0.9223
 6086TIP3    H242454   2.205   0.303   3.025  1.3961  2.7137  2.2696
 6087TIP3   OH242455   3.907   4.413   0.756  0.1829  0.3245 -1.0326
 6087TIP3    H142456   3.961   4.469   0.701 -1.2999  2.2691 -0.6113
 6087TIP3    H242457   3.958   4.403   0.837  1.3759 -0.7337 -1.8619
 6088TIP3   OH242458   5.641   1.617   0.534  0.0379 -0.3615  0.2025
 6088TIP3    H142459   5.646   1.584   0.623  2.6466  0.7509  0.5626
 6088TIP3    H242460   5.619   1.709   0.544 -1.5753 -0.6425 -0.4638
 6089TIP3   OH242461   0.600   3.632   3.281 -0.5107  0.6499  0.5078
 6089TIP3    H142462   0.608   3.538   3.300  1.8370  0.8173  0.7263
 6089TIP3    H242463   0.576   3.672   3.364  0.0399  0.3792  0.8036
 6090TIP3   OH242464   3.260   5.231   1.072  0.3203 -0.1792  0.3333
 6090TIP3    H142465   3.288   5.186   1.151  1.0434  0.5636  0.5204
 6090TIP3    H242466   3.265   5.324   1.094 -1.5019  0.0053  0.0789
 6091TIP3   OH242467   6.545   5.501   2.115 -0.2199 -0.0552  0.0187
 6091TIP3    H142468   6.590   5.585   2.112  0.6409 -0.4885  0.4819
 6091TIP3    H242469   6.458   5.522   2.150  0.0231  0.6209  0.2318
 6092TIP3   OH242470   1.445   6.395   0.885  0.0233  0.3923  0.5636
 6092TIP3    H142471   1.471   6.306   0.909 -3.8759 -0.6583  1.5047
 6092TIP3    H242472   1.429   6.438   0.969 -4.3890 -0.2332  0.2480
 6093TIP3   OH242473   3.526   1.300   1.000 -0.6732 -0.1226  0.1808
 6093TIP3    H142474   3.528   1.305   1.095 -0.0358 -2.1773  0.3196
 6093TIP3    H242475   3.511   1.207   0.981 -0.9688  0.2704 -1.7291
 6094TIP3   OH242476   4.522   1.684   1.791 -0.1501 -0.7063 -0.2957
 6094TIP3    H142477   4.555   1.766   1.830  3.2514 -1.5315 -1.0886
 6094TIP3    H242478   4.438   1.708   1.753 -0.2314  1.8963  1.2721
 6095TIP3   OH242479   3.013   0.028   2.546 -0.1814  0.0323 -0.3176
 6095TIP3    H142480   3.035   0.120   2.561  0.2920 -0.2306  0.6687
 6095TIP3    H242481   3.075  -0.001   2.479 -1.2506  0.7807 -1.7021
 6096TIP3   OH242482   2.984   3.902   1.950  0.1862  0.3707 -0.0295
 6096TIP3    H142483   3.005   3.811   1.931 -0.6064  0.4599 -1.4967
 6096TIP3    H242484   3.023   3.919   2.036  1.5296 -0.9282 -0.3560
 6097TIP3   OH242485   0.522   4.754   2.575  0.0295 -0.4136 -0.4560
 6097TIP3    H142486   0.609   4.791   2.583 -0.6614  1.8472 -2.3924
 6097TIP3    H242487   0.524   4.703   2.495  0.2254 -2.5543  0.8372
 6098TIP3   OH242488   1.360   5.100   1.353  0.3362  0.2976 -0.1997
 6098TIP3    H142489   1.364   5.182   1.302 -0.7046  0.6295  0.2217
 6098TIP3    H242490   1.282   5.056   1.321  0.9122 -0.5776 -0.4476
 6099TIP3   OH242491   3.397   0.793   1.300  0.1810 -0.7017 -0.2956
 6099TIP3    H142492   3.458   0.720   1.317  0.4110 -0.5554 -0.4917
 6099TIP3    H242493   3.325   0.753   1.251 -0.0577 -0.9491  0.2467
 6100TIP3   OH242494   2.308   1.003   3.698 -0.4505  0.0600 -0.6663
 6100TIP3    H142495   2.241   1.054   3.743 -0.6744 -0.4344 -0.4321
 6100TIP3    H242496   2.383   1.003   3.758 -0.4617  0.0837 -0.6524
 6101TIP3   OH242497   0.869   6.115   2.345 -0.0012 -0.4543 -0.5551
 6101TIP3    H142498   0.919   6.161   2.278  2.1955 -0.6788  0.8216
 6101TIP3    H242499   0.922   6.038   2.366 -0.9595 -0.7611  0.9040
 6102TIP3   OH242500   5.827   2.488   1.953 -0.0415 -0.1118  0.4219
 6102TIP3    H142501   5.835   2.473   1.858  1.3482 -1.4430  0.7039
 6102TIP3    H242502   5.904   2.540   1.976 -0.6014  0.5734  0.7555
 6103TIP3   OH242503   6.176   5.893   0.795  0.1393  0.2494 -0.0201
 6103TIP3    H142504   6.245   5.893   0.729  0.3467 -0.3465  0.1925
 6103TIP3    H242505   6.150   5.985   0.802 -2.6939 -0.0135 -3.8045
 6104TIP3   OH242506   2.494   4.522   3.767 -0.1590 -0.1184 -0.5761
 6104TIP3    H142507   2.552   4.519   3.691 -0.3256  1.2969 -0.7849
 6104TIP3    H242508   2.418   4.471   3.740  0.2776 -0.5880 -0.9291
 6105TIP3   OH242509   0.566   5.432   0.843 -0.2672  0.7145  0.5460
 6105TIP3    H142510   0.596   5.487   0.916 -0.7417  2.4585 -0.5193
 6105TIP3    H242511   0.585   5.483   0.765  0.8930 -1.4279 -0.6678
 6106TIP3   OH242512   1.781   6.296   0.729  0.0417  0.2564 -0.8599
 6106TIP3    H142513   1.861   6.262   0.688  0.1164  0.5924 -0.9905
 6106TIP3    H242514   1.721   6.311   0.656  0.0826  0.6077 -0.8188
 6107TIP3   OH242515   2.534   5.439   3.923  0.0005 -0.2255  0.2318
 6107TIP3    H142516   2.534   5.529   3.955 -0.1274  0.3015 -1.1837
 6107TIP3    H242517   2.505   5.446   3.832  3.1368 -1.2913 -0.9917
 6108TIP3   OH242518   0.012   5.895   3.400 -0.0197  0.1332  0.0628
 6108TIP3    H142519   0.039   5.894   3.309  0.4846 -0.9691  0.2086
 6108TIP3    H242520   0.094   5.892   3.449 -0.2865  0.6681  0.5570
 6109TIP3   OH242521   6.458   6.543   0.335 -0.3310  0.0086  0.3222
 6109TIP3    H142522   6.443   6.629   0.374  1.0097  0.4049  0.0195
 6109TIP3    H242523   6.552   6.530   0.341  0.1477  0.4694 -3.4293
 6110TIP3   OH242524   3.520   5.858   3.759  0.1568 -0.4136 -0.4575
 6110TIP3    H142525   3.549   5.769   3.741 -0.8086 -0.4506 -1.9773
 6110TIP3    H242526   3.470   5.884   3.682  0.0572  1.3018  0.1251
 6111TIP3   OH242527   6.500   1.148   2.343 -0.5842 -0.2532 -0.6548
 6111TIP3    H142528   6.492   1.071   2.400  0.8802 -0.4452 -0.6787
 6111TIP3    H242529   6.426   1.140   2.282 -0.4991 -1.6101 -0.6063
 6112TIP3   OH242530   5.565   2.900   2.165 -0.0622 -0.6430  0.2781
 6112TIP3    H142531   5.566   2.925   2.073  1.4608 -0.0662  0.4100
 6112TIP3    H242532   5.634   2.834   2.173  1.4755  0.9750  1.3617
 6113TIP3   OH242533   1.505   0.676   2.844 -0.1444  0.1949 -0.1565
 6113TIP3    H142534   1.557   0.672   2.924 -0.0887 -1.9046 -0.2396
 6113TIP3    H242535   1.481   0.585   2.826 -0.8433  0.7019 -2.0880
 6114TIP3   OH242536   5.653   3.804   3.207  0.3000  0.3411 -0.3018
 6114TIP3    H142537   5.652   3.876   3.269 -0.2333  1.6056 -1.7281
 6114TIP3    H242538   5.716   3.742   3.243  0.0651  1.0636  1.4379
 6115TIP3   OH242539   3.745   3.370   1.311  0.1826 -0.4591 -0.5974
 6115TIP3    H142540   3.763   3.327   1.227 -1.4583 -1.4812 -0.4685
 6115TIP3    H242541   3.735   3.298   1.373  0.4305  0.2543  0.2884
 6116TIP3   OH242542   0.537   4.083   2.548 -0.0436  0.2497  0.2554
 6116TIP3    H142543   0.595   4.153   2.516  0.9821  0.1107  1.7166
 6116TIP3    H242544   0.573   4.003   2.509  1.3508  0.0508  1.8514
 6117TIP3   OH242545   6.211   4.001   3.070  0.4119 -0.3398  0.8879
 6117TIP3    H142546   6.209   4.064   3.141 -0.6688  1.0555 -0.3053
 6117TIP3    H242547   6.257   4.046   2.999 -1.6581 -0.2274 -0.4945
 6118TIP3   OH242548   5.578   1.206   0.546  0.4902  0.0249 -0.2866
 6118TIP3    H142549   5.566   1.264   0.622  0.4793 -0.2777 -0.0586
 6118TIP3    H242550   5.574   1.265   0.471  1.1945  0.4333 -0.0192
 6119TIP3   OH242551   2.833   5.460   2.099 -0.2376 -0.0883  0.2287
 6119TIP3    H142552   2.878   5.386   2.059  0.2609  0.0206  0.5775
 6119TIP3    H242553   2.740   5.435   2.100 -0.3204  0.0577 -1.3125
 6120TIP3   OH242554   2.142   2.877   3.025 -0.1675 -0.6008 -0.4308
 6120TIP3    H142555   2.083   2.813   2.986 -0.6992  0.3818 -1.2751
 6120TIP3    H242556   2.126   2.957   2.976  1.4229 -0.1446 -0.2612
 6121TIP3   OH242557   4.805   3.385   1.829  0.5905  0.3937 -0.6113
 6121TIP3    H142558   4.802   3.413   1.921  0.2245  0.9397 -0.7888
 6121TIP3    H242559   4.861   3.307   1.830  2.1733  1.4864 -0.2033
 6122TIP3   OH242560   0.759   1.742   3.285  0.5104  0.6973 -0.0106
 6122TIP3    H142561   0.673   1.709   3.314  1.1097  0.5477  1.6965
 6122TIP3    H242562   0.819   1.669   3.300  0.5974 -0.1848 -3.6677
 6123TIP3   OH242563   4.205   3.001   2.088 -0.1678  0.2779 -0.1915
 6123TIP3    H142564   4.185   2.955   2.169  1.8539  1.5032  1.1005
 6123TIP3    H242565   4.129   2.986   2.032 -1.2131 -1.3869  1.5677
 6124TIP3   OH242566   1.788   2.177   1.691  0.3057 -0.4920  0.2711
 6124TIP3    H142567   1.805   2.221   1.774  0.8336 -0.8461  0.3573
 6124TIP3    H242568   1.703   2.211   1.662  1.2044  1.4216 -0.2243
 6125TIP3   OH242569   3.990   5.894   0.922  0.3383  0.4334  0.5557
 6125TIP3    H142570   4.052   5.894   0.848 -0.4807 -0.6958 -0.1636
 6125TIP3    H242571   3.968   5.802   0.934 -0.9831  0.7930  0.9904
 6126TIP3   OH242572   1.521   0.097   2.040  0.4296 -0.3821  0.7434
 6126TIP3    H142573   1.603   0.121   2.082 -0.4550 -1.5131  3.2948
 6126TIP3    H242574   1.540   0.101   1.946  3.9026 -2.3066  1.1994
 6127TIP3   OH242575   6.302   4.826   3.386  0.4639  0.2365  0.6714
 6127TIP3    H142576   6.344   4.875   3.315 -1.1480  1.0476  0.2337
 6127TIP3    H242577   6.239   4.769   3.342 -0.6516  0.8412  1.4332
 6128TIP3   OH242578   1.894   0.194   1.769  0.0016 -0.3225 -0.1291
 6128TIP3    H142579   1.836   0.188   1.693  1.8342  0.8256 -1.7050
 6128TIP3    H242580   1.980   0.167   1.736  1.1596  1.6286  1.1326
 6129TIP3   OH242581   6.654   4.563   1.445 -0.0133  0.0336  0.1232
 6129TIP3    H142582   6.749   4.552   1.446  0.0916  0.8879  0.3768
 6129TIP3    H242583   6.641   4.655   1.421 -0.7120  0.5021  2.1006
 6130TIP3   OH242584   4.989   0.385   3.588  0.3535 -0.0286 -0.3548
 6130TIP3    H142585   5.048   0.454   3.619  2.1127 -1.8639  0.5772
 6130TIP3    H242586   4.952   0.347   3.667  0.2993 -0.8868 -0.7785
 6131TIP3   OH242587   5.396   0.339   3.814 -0.0367 -0.7657 -0.6380
 6131TIP3    H142588   5.428   0.250   3.801  1.9626 -0.0317 -1.0233
 6131TIP3    H242589   5.421   0.361   3.904 -2.2639 -1.2202  0.1688
 6132TIP3   OH242590   4.108   5.517   2.353  0.0258  0.5980 -0.3665
 6132TIP3    H142591   4.088   5.489   2.442 -0.8674 -0.5803 -0.9244
 6132TIP3    H242592   4.174   5.455   2.322 -0.4930  0.3110 -0.9112
 6133TIP3   OH242593   1.452   0.218   1.276 -0.3159  0.1276  0.3588
 6133TIP3    H142594   1.435   0.137   1.324 -1.8129  0.2992  0.1844
 6133TIP3    H242595   1.547   0.224   1.272 -0.1267 -0.0884  2.9351
 6134TIP3   OH242596   3.153   3.419   0.333  0.1997 -0.3835 -0.0543
 6134TIP3    H142597   3.144   3.385   0.244  0.7339 -1.0862  0.1471
 6134TIP3    H242598   3.066   3.411   0.371  0.1608 -0.8851 -0.2404
 6135TIP3   OH242599   5.420   0.996   0.697 -0.2751 -0.3468 -0.0873
 6135TIP3    H142600   5.463   1.061   0.641 -0.3733 -0.6237 -0.4863
 6135TIP3    H242601   5.358   1.047   0.749 -0.8977 -0.2136 -0.9313
 6136TIP3   OH242602   4.639   0.266   1.283 -0.4099  0.3941  0.0813
 6136TIP3    H142603   4.579   0.255   1.357  0.3232 -1.2073  0.4889
 6136TIP3    H242604   4.585   0.255   1.205 -1.0136  1.1343  0.3831
 6137TIP3   OH242605   1.937   2.867   0.830 -0.4954  0.0489  0.1396
 6137TIP3    H142606   1.985   2.861   0.913 -1.3342  1.3814  0.7671
 6137TIP3    H242607   2.000   2.842   0.763  1.1484  1.8419  0.9058
 6138TIP3   OH242608   2.292   5.523   2.411  0.0921 -0.1207 -0.1354
 6138TIP3    H142609   2.307   5.445   2.464  2.4645  0.0570 -0.4116
 6138TIP3    H242610   2.374   5.535   2.363  0.5279  3.4253  1.1300
 6139TIP3   OH242611   3.726   2.620   2.389  0.0272  0.0541 -0.0311
 6139TIP3    H142612   3.754   2.701   2.433 -1.3707  0.2162  0.6059
 6139TIP3    H242613   3.769   2.550   2.439  0.1117  0.3389  0.3016
 6140TIP3   OH242614   6.096   2.516   1.028  0.2311 -0.0732 -0.3080
 6140TIP3    H142615   6.042   2.438   1.012 -0.7367  0.7375 -1.1058
 6140TIP3    H242616   6.057   2.557   1.104  0.5185 -0.1543 -0.1126
 6141TIP3   OH242617   5.452   2.341   2.620  0.1430  0.5328 -0.1571
 6141TIP3    H142618   5.357   2.325   2.621  0.2332 -0.2076  1.8165
 6141TIP3    H242619   5.468   2.392   2.699  1.2901  1.5504 -1.0034
 6142TIP3   OH242620   5.064   1.701   1.835  0.5018 -0.1582 -0.1380
 6142TIP3    H142621   5.106   1.705   1.750 -0.2791  0.4778 -0.5123
 6142TIP3    H242622   5.122   1.647   1.889  1.2158 -0.2056 -0.9429
 6143TIP3   OH242623   3.886   3.571   2.779  1.0023 -0.2432 -0.4542
 6143TIP3    H142624   3.976   3.544   2.759  1.2801  1.1289 -1.1913
 6143TIP3    H242625   3.835   3.542   2.704  1.0374 -0.0245 -0.5635
 6144TIP3   OH242626   5.252   2.846   3.291 -0.4494 -0.5260 -0.0345
 6144TIP3    H142627   5.284   2.846   3.381 -0.2390 -1.0721 -0.0996
 6144TIP3    H242628   5.184   2.913   3.288  2.7802  3.1012 -0.6397
 6145TIP3   OH242629   5.926   2.452   0.508  0.0807  0.4913 -0.0092
 6145TIP3    H142630   5.927   2.356   0.514  0.8129  0.4883 -0.1848
 6145TIP3    H242631   6.018   2.477   0.510 -0.0769  1.1388 -0.8761
 6146TIP3   OH242632   3.895   0.791   0.673  0.4975  0.6330  0.7654
 6146TIP3    H142633   3.950   0.860   0.637 -0.7414  0.1803 -2.3137
 6146TIP3    H242634   3.818   0.838   0.707  0.7762  0.9259  1.0012
 6147TIP3   OH242635   3.454   0.231   1.908 -0.2024 -0.1510  0.2175
 6147TIP3    H142636   3.545   0.261   1.906 -0.2761  0.1839 -2.4713
 6147TIP3    H242637   3.453   0.161   1.973  1.6339  0.8153  1.3542
 6148TIP3   OH242638   5.353   4.182   3.439  0.0751 -0.8202  0.0991
 6148TIP3    H142639   5.369   4.134   3.520  1.9257 -0.5774 -0.0777
 6148TIP3    H242640   5.271   4.145   3.405 -1.7123  0.2804  2.9023
 6149TIP3   OH242641   3.130   1.373   0.435  0.5668  0.4836  0.6773
 6149TIP3    H142642   3.145   1.451   0.382 -2.5955  1.2210  0.6352
 6149TIP3    H242643   3.112   1.406   0.523  1.3334 -0.3738  1.1618
 6150TIP3   OH242644   4.865   6.677   3.187  0.3346  0.6411  0.1576
 6150TIP3    H142645   4.770   6.682   3.201  0.4274  1.7957  0.4566
 6150TIP3    H242646   4.902   6.705   3.271  0.9516 -0.5150  0.2803
 6151TIP3   OH242647   1.591   6.624   0.727 -0.3691 -0.1987  0.8553
 6151TIP3    H142648   1.504   6.644   0.760 -1.1278 -0.9994 -0.5571
 6151TIP3    H242649   1.600   6.530   0.738 -0.4499 -0.4109 -0.6763
 6152TIP3   OH242650   1.414   4.385   4.128  0.1687  0.2794  0.0252
 6152TIP3    H142651   1.498   4.396   4.172  1.1342 -2.8919 -0.7700
 6152TIP3    H242652   1.350   4.378   4.198  0.9104  0.4100  0.7276
 6153TIP3   OH242653   5.620   6.194   2.089  0.1113  0.0169  0.4068
 6153TIP3    H142654   5.711   6.203   2.117  0.1546  1.4812 -0.1226
 6153TIP3    H242655   5.586   6.283   2.089 -1.4029 -0.5261  0.7890
 6154TIP3   OH242656   2.328   5.858   5.023 -0.3090 -0.0146 -0.3150
 6154TIP3    H142657   2.250   5.802   5.016 -0.1142 -0.2217 -0.8485
 6154TIP3    H242658   2.387   5.825   4.956 -0.7386  1.7078 -1.6257
 6155TIP3   OH242659   4.557   5.826   0.833 -0.1030  0.4463  0.4163
 6155TIP3    H142660   4.620   5.758   0.857 -0.3071 -0.3372 -1.1537
 6155TIP3    H242661   4.611   5.901   0.808  0.3957 -0.7299 -2.4968
 6156TIP3   OH242662   5.987   3.580   3.764 -0.7397  0.2763 -0.6609
 6156TIP3    H142663   5.912   3.539   3.806 -0.3153 -1.4106 -1.4726
 6156TIP3    H242664   6.031   3.628   3.835 -1.6082 -0.1497  0.1880
 6157TIP3   OH242665   2.968   0.219   2.819  0.0965 -0.2810  0.1015
 6157TIP3    H142666   3.019   0.242   2.741  0.0839  0.3496  0.2775
 6157TIP3    H242667   2.877   0.220   2.790  0.1325 -0.7753 -0.0513
 6158TIP3   OH242668   2.617   2.283   1.486 -0.0817 -0.8006 -0.0913
 6158TIP3    H142669   2.662   2.223   1.544 -1.1702 -0.8222  0.7728
 6158TIP3    H242670   2.618   2.367   1.532  1.3604 -0.1400 -1.2503
 6159TIP3   OH242671   0.471   6.208   0.752 -0.5030 -0.3853  0.0887
 6159TIP3    H142672   0.381   6.195   0.782 -0.1257 -1.1589  0.9117
 6159TIP3    H242673   0.462   6.263   0.674 -1.7385 -0.9578 -0.1972
 6160TIP3   OH242674   2.408   2.389   1.729 -0.1079 -0.0099  0.0053
 6160TIP3    H142675   2.502   2.396   1.746  0.2272  0.8539 -1.9908
 6160TIP3    H242676   2.370   2.470   1.763  0.3486  1.0414 -1.8608
 6161TIP3   OH242677   2.815   5.125   0.769 -0.2184 -0.6059  0.1301
 6161TIP3    H142678   2.808   5.122   0.865 -1.3087 -0.2874  0.0724
 6161TIP3    H242679   2.885   5.189   0.753 -0.7176  0.1101  0.7077
 6162TIP3   OH242680   4.669   4.962   1.261 -0.5304  0.3391 -0.2029
 6162TIP3    H142681   4.704   4.967   1.350  0.7259  0.2867 -0.6693
 6162TIP3    H242682   4.729   4.903   1.215  0.1698  2.0852 -1.6548
 6163TIP3   OH242683   1.010   1.028   0.602  0.7571 -0.2230 -0.4926
 6163TIP3    H142684   1.029   1.110   0.648  0.4446 -0.8368  0.7678
 6163TIP3    H242685   0.926   1.044   0.558 -0.6506 -0.6414  1.8472
 6164TIP3   OH242686   3.868   0.956   3.914 -0.3367  0.4558 -0.0137
 6164TIP3    H142687   3.898   0.917   3.996 -0.6956  2.5610  1.2089
 6164TIP3    H242688   3.774   0.939   3.913  0.1533 -2.8300 -1.9481
 6165TIP3   OH242689   1.621   4.075   2.425 -0.4030 -0.1622 -0.3747
 6165TIP3    H142690   1.574   4.113   2.352  1.4567 -1.5596 -2.4319
 6165TIP3    H242691   1.584   3.988   2.435 -1.1315  0.2668  0.8732
 6166TIP3   OH242692   0.373   1.204   0.684 -0.2293 -0.5050  0.2921
 6166TIP3    H142693   0.344   1.123   0.642  1.9291 -1.2744  0.1197
 6166TIP3    H242694   0.411   1.175   0.768 -0.9346  0.5411  0.9921
 6167TIP3   OH242695   2.471   5.672   0.733  0.3820 -0.1726 -0.0620
 6167TIP3    H142696   2.417   5.730   0.787 -0.0728  1.5183 -2.2012
 6167TIP3    H242697   2.412   5.601   0.708  0.0950 -0.0421  0.2326
 6168TIP3   OH242698   3.575   3.862   2.539 -0.2443 -0.5882 -0.0879
 6168TIP3    H142699   3.536   3.781   2.507  3.0019 -2.0474 -0.7080
 6168TIP3    H242700   3.628   3.894   2.466  1.5609 -0.0433  1.3839
 6169TIP3   OH242701   2.396   2.278  11.951 -0.1039  0.2489  0.7767
 6169TIP3    H142702   2.408   2.249  11.861 -1.5229  0.3830  0.5061
 6169TIP3    H242703   2.434   2.209  12.005 -0.9515 -0.7721  0.0916
 6170TIP3   OH242704   0.951   3.488   3.468  0.1054 -0.3111  0.2336
 6170TIP3    H142705   1.016   3.492   3.538 -0.3381  0.1738  0.6279
 6170TIP3    H242706   0.870   3.516   3.509  0.2006  1.8697 -0.9146
 6171TIP3   OH242707   3.591   6.202   2.225  0.0948  0.2508 -0.1741
 6171TIP3    H142708   3.681   6.212   2.259  0.0133  0.8372 -0.1143
 6171TIP3    H242709   3.547   6.283   2.252 -0.7815 -0.5252  0.7989
 6172TIP3   OH242710   4.251   3.830   2.520  0.6110 -0.0542  0.4133
 6172TIP3    H142711   4.248   3.908   2.576  0.8518  0.4820 -0.2949
 6172TIP3    H242712   4.286   3.862   2.436 -3.2144  0.0340 -1.3790
 6173TIP3   OH242713   2.344   6.329   2.026 -0.8876 -0.2916 -0.1768
 6173TIP3    H142714   2.417   6.315   2.088 -1.7940 -1.2396  0.7102
 6173TIP3    H242715   2.380   6.388   1.960 -0.1315  1.5196  1.7381
 6174TIP3   OH242716   4.701   0.425   1.970  0.2562  0.0021 -0.4616
 6174TIP3    H142717   4.628   0.481   1.943 -0.8295 -1.8402 -1.5663
 6174TIP3    H242718   4.681   0.402   2.061  0.6045  1.1500 -0.0647
 6175TIP3   OH242719   2.349   2.570   1.937 -0.0284 -0.5890 -0.5685
 6175TIP3    H142720   2.306   2.654   1.957 -0.7375 -0.3362 -2.8111
 6175TIP3    H242721   2.382   2.539   2.021 -1.1372  1.1718  0.5877
 6176TIP3   OH242722   1.742   0.299   3.975  0.1984 -0.4902  0.0609
 6176TIP3    H142723   1.742   0.305   4.070  1.4087  1.1842 -0.0007
 6176TIP3    H242724   1.654   0.326   3.949 -0.1234 -0.9157  0.6864
 6177TIP3   OH242725   4.182   2.713   0.459  0.3550  0.3190  0.0944
 6177TIP3    H142726   4.110   2.739   0.401 -1.0436  0.1392  1.6745
 6177TIP3    H242727   4.177   2.775   0.532  1.4199 -0.1045  0.5454
 6178TIP3   OH242728   1.754   1.746   2.697 -0.1232  0.0456  0.1342
 6178TIP3    H142729   1.785   1.749   2.607  0.4441 -0.5380  0.2931
 6178TIP3    H242730   1.762   1.836   2.729  3.9203 -0.3933  0.9384
 6179TIP3   OH242731   6.595   3.735   2.716 -0.0773 -0.9188 -0.6525
 6179TIP3    H142732   6.535   3.672   2.757  0.0668 -0.6864 -0.0738
 6179TIP3    H242733   6.648   3.682   2.657  0.0374 -1.3510 -0.1768
 6180TIP3   OH242734   4.864   5.282   0.955  0.0697  0.0752  0.1452
 6180TIP3    H142735   4.791   5.341   0.938  0.8734  0.5067 -2.0705
 6180TIP3    H242736   4.853   5.211   0.892  0.3929 -0.9831  1.2404
 6181TIP3   OH242737   4.814   1.393   1.075  0.7154  0.1388  0.5500
 6181TIP3    H142738   4.842   1.450   1.147  1.5153  1.3885 -0.6918
 6181TIP3    H242739   4.895   1.376   1.027  0.0176  0.2865 -0.6966
 6182TIP3   OH242740   2.163   2.057   1.328  0.6754  0.4044 -0.2019
 6182TIP3    H142741   2.193   2.054   1.238  0.7870  2.1603 -0.2462
 6182TIP3    H242742   2.189   2.143   1.360 -0.6007  0.3665  1.0661
 6183TIP3   OH242743   0.632   3.780   2.793 -0.1881 -0.3498  0.5060
 6183TIP3    H142744   0.545   3.746   2.774 -0.2974  0.9102 -1.5306
 6183TIP3    H242745   0.677   3.707   2.834 -0.8355 -2.6159 -2.4139
 6184TIP3   OH242746   4.087   0.189   2.964  0.4278 -0.1028 -0.3145
 6184TIP3    H142747   4.161   0.163   2.910 -0.2910  0.0080 -1.3958
 6184TIP3    H242748   4.012   0.143   2.926 -0.0304 -0.4176  0.9112
 6185TIP3   OH242749   3.094   4.633   4.037 -0.3955  0.4833 -0.3736
 6185TIP3    H142750   3.173   4.673   4.000 -0.0084 -0.1155 -0.2010
 6185TIP3    H242751   3.032   4.706   4.045  0.1396  0.9600 -0.5023
 6186TIP3   OH242752   0.466   3.723   3.037  0.5338  0.1671 -0.2137
 6186TIP3    H142753   0.488   3.815   3.053  1.9177 -0.2845  0.6515
 6186TIP3    H242754   0.510   3.675   3.107 -0.9828 -1.0888 -0.0625
 6187TIP3   OH242755   1.792   3.322   0.482 -0.2142 -0.3036  0.0531
 6187TIP3    H142756   1.803   3.294   0.573 -1.2077  0.3667  0.4003
 6187TIP3    H242757   1.778   3.240   0.434 -0.7602 -0.5904  0.6781
 6188TIP3   OH242758   6.376   5.146   1.499 -0.3312  0.4877  0.1883
 6188TIP3    H142759   6.312   5.209   1.533  0.5036  2.7304 -2.0623
 6188TIP3    H242760   6.427   5.120   1.575 -1.6609  1.3961  1.4392
 6189TIP3   OH242761   6.178   2.516   1.632 -0.1097 -0.2206  0.2280
 6189TIP3    H142762   6.246   2.577   1.661  0.7611  0.2743 -2.5471
 6189TIP3    H242763   6.138   2.559   1.556 -2.8325 -0.9967  1.1174
 6190TIP3   OH242764   2.731   5.489   3.505  0.2441  0.3365  0.5128
 6190TIP3    H142765   2.738   5.514   3.597 -0.9405  1.5020  0.3239
 6190TIP3    H242766   2.714   5.395   3.506 -1.2556  0.5795  1.5850
 6191TIP3   OH242767   2.924   1.064   2.032 -0.3920  0.0263 -0.6387
 6191TIP3    H142768   2.973   0.987   2.062 -0.7805 -0.3102 -0.8497
 6191TIP3    H242769   2.958   1.081   1.944 -0.9940 -0.5205 -0.9913
 6192TIP3   OH242770   2.460   2.124   3.182 -0.5424  0.3851 -0.1883
 6192TIP3    H142771   2.489   2.177   3.107 -1.9343  2.0661  0.4173
 6192TIP3    H242772   2.535   2.068   3.201  1.1741  2.3992 -0.6345
 6193TIP3   OH242773   5.638   2.439   3.096 -0.2402  0.3802  0.1136
 6193TIP3    H142774   5.703   2.495   3.054  0.1718 -1.0696 -1.2713
 6193TIP3    H242775   5.580   2.412   3.025 -2.5077  1.7475  1.3370
 6194TIP3   OH242776   1.568   5.029   2.437  0.3010 -0.2774  0.3176
 6194TIP3    H142777   1.487   5.002   2.479  0.2812 -3.5249 -1.4325
 6194TIP3    H242778   1.637   4.993   2.492  0.4136 -0.4623  0.0622
 6195TIP3   OH242779   1.539   0.639   3.154 -0.2075  0.0028  0.1521
 6195TIP3    H142780   1.622   0.627   3.108  0.2435  0.3400  0.8691
 6195TIP3    H242781   1.549   0.722   3.200 -0.0122 -1.0903  2.2034
 6196TIP3   OH242782   5.339   5.291   3.124 -0.0480 -0.0023  0.6549
 6196TIP3    H142783   5.353   5.385   3.112  0.3553 -0.0711  0.5548
 6196TIP3    H242784   5.275   5.285   3.195 -2.8961  0.4141 -1.6954
 6197TIP3   OH242785   3.752   0.372   3.406  0.4175  0.1834 -0.1342
 6197TIP3    H142786   3.816   0.311   3.370  0.3976  0.4064 -0.5552
 6197TIP3    H242787   3.673   0.357   3.352 -0.3156 -1.0165  1.1999
 6198TIP3   OH242788   1.951   1.321   1.681 -0.5268  0.7893  0.8311
 6198TIP3    H142789   1.958   1.333   1.587 -0.1322  2.8138  1.0773
 6198TIP3    H242790   2.012   1.250   1.701  2.5933  3.0085  0.0233
 6199TIP3   OH242791   5.649   2.241   2.452 -0.4975 -0.2765 -0.2501
 6199TIP3    H142792   5.575   2.258   2.511 -1.9452 -0.7805 -1.8346
 6199TIP3    H242793   5.611   2.248   2.364  1.3071 -0.7581 -1.1054
 6200TIP3   OH242794   2.679   4.358   1.149  0.7059  0.0633  0.1586
 6200TIP3    H142795   2.688   4.309   1.067 -1.3855  0.8538 -0.6219
 6200TIP3    H242796   2.722   4.304   1.214  2.2452 -0.7063 -1.4115
 6201TIP3   OH242797   4.358   2.060   1.060  0.0344 -0.3243  0.2021
 6201TIP3    H142798   4.410   2.099   0.990  0.9866  1.3089  1.7490
 6201TIP3    H242799   4.421   2.009   1.110 -0.3947 -0.4893  0.5728
 6202TIP3   OH242800   0.764   1.827   0.721  0.4396 -0.8767 -0.1989
 6202TIP3    H142801   0.846   1.819   0.672 -0.1117  1.7367 -1.7399
 6202TIP3    H242802   0.696   1.834   0.654 -0.9297 -1.6948  1.0313
 6203TIP3   OH242803   0.674   6.361   4.407 -0.2954 -0.4866 -0.4316
 6203TIP3    H142804   0.746   6.349   4.469 -0.6231  1.4529  0.4213
 6203TIP3    H242805   0.692   6.446   4.365 -1.6152 -0.3762 -0.8385
 6204TIP3   OH242806   4.777   5.406   3.069 -0.1858  0.2838  0.2281
 6204TIP3    H142807   4.695   5.377   3.109 -0.4323  0.5599 -0.0723
 6204TIP3    H242808   4.791   5.493   3.106  0.2738  0.0090  0.7180
 6205TIP3   OH242809   6.420   3.325   1.224 -0.4070 -0.2404  0.5327
 6205TIP3    H142810   6.512   3.325   1.197 -0.7075  0.4484 -0.5834
 6205TIP3    H242811   6.386   3.242   1.189 -0.0700 -0.8043  1.5135
 6206TIP3   OH242812   5.459   0.551   1.420 -0.0858  0.5654  0.2129
 6206TIP3    H142813   5.537   0.604   1.435 -0.7757  1.3739  1.0944
 6206TIP3    H242814   5.421   0.540   1.507 -0.9909  0.2511 -0.2129
 6207TIP3   OH242815   3.610   2.535   1.067 -0.5212 -0.2271  0.0062
 6207TIP3    H142816   3.533   2.591   1.065  0.5152  1.3291  0.8185
 6207TIP3    H242817   3.612   2.492   0.982 -0.4786  2.3176 -1.3752
 6208TIP3   OH242818   4.710   5.082   3.910  0.8178 -0.6746 -0.2729
 6208TIP3    H142819   4.710   5.033   3.828  0.5364 -2.2810  0.6666
 6208TIP3    H242820   4.781   5.044   3.961  1.1018  0.4284  0.1853
 6209TIP3   OH242821   2.773   1.479   2.723 -0.1912 -0.0195 -0.3500
 6209TIP3    H142822   2.865   1.468   2.703  0.4796  2.4424  0.9587
 6209TIP3    H242823   2.738   1.530   2.650 -0.3715 -0.3762 -0.5160
 6210TIP3   OH242824   4.821   2.729   2.714  0.5980  0.0226 -0.1666
 6210TIP3    H142825   4.788   2.748   2.801  1.1761 -0.6334  0.2049
 6210TIP3    H242826   4.792   2.640   2.696 -0.8368  0.6737 -1.2929
 6211TIP3   OH242827   4.325   0.183   1.366 -0.0384  0.1537  0.4416
 6211TIP3    H142828   4.392   0.218   1.425  1.8550  1.6841 -2.3861
 6211TIP3    H242829   4.273   0.259   1.340 -0.1358 -0.2779 -0.6799
 6212TIP3   OH242830   6.661   4.458   2.847 -0.5821 -0.4588 -1.0659
 6212TIP3    H142831   6.671   4.430   2.938 -1.6125  2.7810  0.1781
 6212TIP3    H242832   6.567   4.454   2.831 -0.7711  1.9918 -0.8446
 6213TIP3   OH242833   5.933   5.534   1.516 -0.2000  0.1204 -0.3374
 6213TIP3    H142834   5.846   5.516   1.553 -1.1248  1.3782 -1.7764
 6213TIP3    H242835   5.951   5.624   1.540  1.0686 -0.3581  0.5699
 6214TIP3   OH242836   1.243   5.065   1.871 -0.3415 -0.4762  0.7721
 6214TIP3    H142837   1.316   5.126   1.885  0.9819 -1.6913 -0.5728
 6214TIP3    H242838   1.165   5.118   1.889  0.7648  1.5012  0.1390
 6215TIP3   OH242839   3.405   6.165   1.934  0.2566 -0.6313 -0.2556
 6215TIP3    H142840   3.495   6.163   1.902  0.9079  1.6276  1.1709
 6215TIP3    H242841   3.397   6.085   1.986  0.5862 -2.0876 -2.3064
 6216TIP3   OH242842   4.172   2.538   2.368  0.3145 -0.1324  0.2092
 6216TIP3    H142843   4.102   2.590   2.329  0.3173 -0.5166 -0.3065
 6216TIP3    H242844   4.183   2.464   2.309 -0.0859 -1.0309  1.2351
 6217TIP3   OH242845   2.849   5.375   1.801  0.0187  0.1467  0.6090
 6217TIP3    H142846   2.762   5.389   1.838 -0.4459 -0.4908 -0.2100
 6217TIP3    H242847   2.841   5.401   1.709  0.4175 -0.8322  0.2785
 6218TIP3   OH242848   1.534   3.164   1.726  0.0818  0.1435  1.1392
 6218TIP3    H142849   1.520   3.235   1.664 -1.4103  0.0344  1.3125
 6218TIP3    H242850   1.446   3.139   1.754  0.6894 -0.0521  3.0217
 6219TIP3   OH242851   1.345   3.268   1.241  0.1471  0.0683  0.3510
 6219TIP3    H142852   1.367   3.185   1.283  1.3567  0.4379  0.4766
 6219TIP3    H242853   1.429   3.311   1.226 -0.4292  1.0738 -0.1376
 6220TIP3   OH242854   2.273   4.845   2.784  0.2437 -0.2264  0.5321
 6220TIP3    H142855   2.242   4.929   2.752 -0.2142 -0.6430 -0.1475
 6220TIP3    H242856   2.240   4.781   2.720 -2.1448 -1.2978  2.6793
 6221TIP3   OH242857   2.127   2.925   1.466 -0.9365  0.0153 -0.3093
 6221TIP3    H142858   2.208   2.959   1.427 -1.2040  0.4092 -0.5377
 6221TIP3    H242859   2.141   2.831   1.475  0.5152  0.3637  1.9535
 6222TIP3   OH242860   4.615   4.839   3.173  0.2194  0.1933  0.1526
 6222TIP3    H142861   4.669   4.774   3.128  1.2638  2.2003 -1.6795
 6222TIP3    H242862   4.667   4.865   3.249  0.4933 -0.0351  0.0466
 6223TIP3   OH242863   2.934   2.366   0.456  0.6569 -0.3691 -0.0220
 6223TIP3    H142864   3.018   2.400   0.423  0.1330  0.8543 -0.1463
 6223TIP3    H242865   2.894   2.441   0.499  0.3685 -1.3897  1.5538
 6224TIP3   OH242866   2.687   1.631   3.311  0.6766 -0.2485  0.3131
 6224TIP3    H142867   2.642   1.586   3.239  0.7468  0.0438  0.0845
 6224TIP3    H242868   2.690   1.566   3.382 -2.2576  0.4462  1.2267
 6225TIP3   OH242869   6.583   1.462   3.246 -0.2558  0.2063  0.2125
 6225TIP3    H142870   6.497   1.500   3.261 -0.8501 -1.3758  1.0271
 6225TIP3    H242871   6.637   1.495   3.318 -1.0945 -1.3630  1.6351
 6226TIP3   OH242872   2.835   5.366   2.896 -1.1053  1.1999  0.1043
 6226TIP3    H142873   2.774   5.327   2.833  0.8652 -0.6973 -0.7593
 6226TIP3    H242874   2.910   5.393   2.843  1.0372 -1.3054  1.6275
 6227TIP3   OH242875   1.892   3.720   3.031  0.4962 -0.4502  0.0651
 6227TIP3    H142876   1.942   3.661   3.088  0.2341 -0.2358  0.5259
 6227TIP3    H242877   1.801   3.711   3.062  0.4642  0.2426  0.1851
 6228TIP3   OH242878   5.383   5.020   1.259 -0.2197  0.3162  0.2352
 6228TIP3    H142879   5.374   4.951   1.194  1.2209  2.0840 -1.9958
 6228TIP3    H242880   5.318   5.085   1.235 -0.5325  0.4508  1.3740
 6229TIP3   OH242881   3.125   4.938   1.382 -0.4616  0.6462  0.2828
 6229TIP3    H142882   3.213   4.941   1.345 -0.5389 -2.7637 -0.5188
 6229TIP3    H242883   3.067   4.945   1.307 -0.7712  0.1340  0.4653
 6230TIP3   OH242884   2.695   3.896   2.788  0.6123  0.2856  0.9296
 6230TIP3    H142885   2.672   3.827   2.725  1.4189  0.9620 -0.1466
 6230TIP3    H242886   2.691   3.977   2.738  0.1697  0.9740  2.0570
 6231TIP3   OH242887   1.224   1.195   1.661  0.1929  0.0066  0.9157
 6231TIP3    H142888   1.288   1.132   1.626  0.5359  0.7275  0.2094
 6231TIP3    H242889   1.262   1.222   1.745  1.2868  1.0627  0.1268
 6232TIP3   OH242890   3.458   1.423   2.510  0.2050  0.4081 -0.2412
 6232TIP3    H142891   3.445   1.390   2.421  0.5408  1.6967 -0.7956
 6232TIP3    H242892   3.456   1.518   2.501  0.0768  0.5668  1.1624
 6233TIP3   OH242893   5.033   3.749   1.040  0.0354 -0.2716 -0.2425
 6233TIP3    H142894   5.004   3.699   0.964  0.9598 -0.6354 -0.3668
 6233TIP3    H242895   5.114   3.792   1.011  1.8221 -2.4206  1.2607
 6234TIP3   OH242896   6.594   0.694   2.702  0.0381 -0.5617 -0.1055
 6234TIP3    H142897   6.626   0.781   2.728  2.0881 -1.1635 -0.3903
 6234TIP3    H242898   6.506   0.709   2.669 -0.4459  1.0862  1.7956
 6235TIP3   OH242899   1.662   3.644   3.457 -0.1220  0.0853  0.1086
 6235TIP3    H142900   1.729   3.610   3.517 -0.9543 -0.1873  0.9271
 6235TIP3    H242901   1.633   3.726   3.497 -0.5493 -0.0009 -0.0127
 6236TIP3   OH242902   0.489   2.334   2.174 -0.5782  0.2496  0.1217
 6236TIP3    H142903   0.442   2.331   2.091 -1.1801  1.0062  0.4255
 6236TIP3    H242904   0.541   2.415   2.170  0.8571 -0.6536 -0.2827
 6237TIP3   OH242905   4.505   6.213   2.730  0.2096  0.4571 -0.6334
 6237TIP3    H142906   4.567   6.283   2.709  0.1447  0.1061 -2.1097
 6237TIP3    H242907   4.438   6.219   2.662 -0.8113  0.1470  0.3260
 6238TIP3   OH242908   3.901   0.202   3.867  0.1344 -0.9877 -0.1349
 6238TIP3    H142909   3.875   0.206   3.774  0.0930 -0.4510 -0.1082
 6238TIP3    H242910   3.828   0.158   3.910 -1.0022  0.8860  0.0038
 6239TIP3   OH242911   0.423   2.187   2.623  0.2036 -0.7175 -0.3125
 6239TIP3    H142912   0.448   2.097   2.606 -1.1769 -1.1784 -0.0206
 6239TIP3    H242913   0.482   2.215   2.693  0.3700 -1.5171 -0.1229
 6240TIP3   OH242914   1.529   5.824   1.052  0.9292  0.4049  0.5573
 6240TIP3    H142915   1.564   5.830   1.141  0.3388  0.7535  0.7708
 6240TIP3    H242916   1.436   5.805   1.064  0.3654  2.5473  0.0853
 6241TIP3   OH242917   1.271   4.300   3.062 -0.2954 -0.7611  0.4312
 6241TIP3    H142918   1.312   4.358   2.999 -2.3485 -0.3254 -0.5604
 6241TIP3    H242919   1.262   4.216   3.016 -1.4342 -0.5561  0.2485
 6242TIP3   OH242920   0.078   6.086   0.531 -0.6943 -0.1169 -0.2406
 6242TIP3    H142921   0.034   6.055   0.453 -1.9493  1.1626 -0.0789
 6242TIP3    H242922   0.031   6.046   0.604  0.4927 -1.3351 -0.0969
 6243TIP3   OH242923   3.656   4.565   0.746 -0.5451 -0.6508 -0.3916
 6243TIP3    H142924   3.646   4.586   0.839 -1.4114 -0.8519 -0.4365
 6243TIP3    H242925   3.706   4.484   0.745 -0.8403 -0.8375 -0.0942
 6244TIP3   OH242926   3.173   4.904   2.568  0.1918 -0.2189  0.3437
 6244TIP3    H142927   3.190   4.929   2.658  1.5210 -1.1997  0.3981
 6244TIP3    H242928   3.243   4.945   2.517 -1.0186  1.0181 -0.3801
 6245TIP3   OH242929   6.199   6.464   2.669  0.0373 -0.3028  0.2383
 6245TIP3    H142930   6.237   6.547   2.642  1.4984 -0.8501  0.5130
 6245TIP3    H242931   6.159   6.428   2.590  2.6635 -1.0436 -0.8707
 6246TIP3   OH242932   2.179   6.251   3.786  0.2456 -0.2301 -0.4921
 6246TIP3    H142933   2.178   6.253   3.690  0.8304  0.3327 -0.4943
 6246TIP3    H242934   2.219   6.334   3.811 -2.0635  0.7172  0.2919
 6247TIP3   OH242935   1.206   4.985   0.529  0.5008  0.4975 -0.1331
 6247TIP3    H142936   1.243   4.946   0.609 -1.7389  0.0540  0.7494
 6247TIP3    H242937   1.111   4.982   0.542  0.0793  0.8923 -2.6124
 6248TIP3   OH242938   2.899   2.810   2.680 -0.3756 -0.4355  0.0198
 6248TIP3    H142939   2.905   2.884   2.619  2.8532  0.4696  1.2519
 6248TIP3    H242940   2.855   2.846   2.757 -0.3322 -0.3076 -0.0157
 6249TIP3   OH242941   2.599   1.672   0.564  0.3933 -0.0415  0.7454
 6249TIP3    H142942   2.620   1.631   0.648  0.1945  1.8134  1.7562
 6249TIP3    H242943   2.547   1.749   0.587  0.0920  0.3588 -1.1101
 6250TIP3   OH242944   0.266   4.816   1.519 -0.3186 -0.1956  0.2314
 6250TIP3    H142945   0.187   4.816   1.466 -1.3087  1.3578  1.6330
 6250TIP3    H242946   0.301   4.727   1.510 -2.2241 -0.9198 -0.4191
 6251TIP3   OH242947   1.254   4.052   1.540 -0.0952 -0.0047  0.3234
 6251TIP3    H142948   1.327   4.021   1.593 -0.2194  0.3078  0.6793
 6251TIP3    H242949   1.223   3.974   1.493 -0.4045 -0.4314  1.2094
 6252TIP3   OH242950   2.999   0.817   3.053 -0.3628  0.3263 -0.0323
 6252TIP3    H142951   3.056   0.883   3.092  0.5290 -0.6993  0.4419
 6252TIP3    H242952   3.022   0.817   2.960 -0.2276  0.5402  0.0009
 6253TIP3   OH242953   2.589   0.441   3.132  0.0304  0.2213  0.2912
 6253TIP3    H142954   2.576   0.466   3.224 -0.8924 -1.7379  0.7610
 6253TIP3    H242955   2.582   0.345   3.133  1.5297  0.0435 -1.6162
 6254TIP3   OH242956   4.840   2.884   1.469 -0.0180  0.3574 -0.0856
 6254TIP3    H142957   4.750   2.902   1.497 -0.1295 -0.4950  0.1350
 6254TIP3    H242958   4.895   2.927   1.534 -0.2708  0.3416  0.1400
 6255TIP3   OH242959   4.298   0.928   2.765 -0.5785  0.0844 -0.6923
 6255TIP3    H142960   4.250   0.934   2.682 -0.5886  3.4166 -0.5781
 6255TIP3    H242961   4.353   1.006   2.766  0.0504 -0.3075  2.0971
 6256TIP3   OH242962   1.856   1.465   3.253 -0.9937 -0.1000  0.1075
 6256TIP3    H142963   1.815   1.515   3.323 -1.8198  0.5169 -0.7832
 6256TIP3    H242964   1.939   1.510   3.237 -1.0815  0.1221  0.2732
 6257TIP3   OH242965   1.283   2.643   3.696  0.2910  0.1742  0.4070
 6257TIP3    H142966   1.376   2.634   3.717  0.4449 -1.6863 -0.8015
 6257TIP3    H242967   1.246   2.556   3.711 -0.4047 -0.2210 -2.7587
 6258TIP3   OH242968   1.045   4.690   2.981 -0.1098 -0.3936  0.2508
 6258TIP3    H142969   1.025   4.627   3.051 -2.4717 -0.8307 -0.7222
 6258TIP3    H242970   1.013   4.648   2.901  2.1473  0.2787 -1.0852
 6259TIP3   OH242971   5.925   6.284   0.817 -0.2828 -0.3149  0.3473
 6259TIP3    H142972   5.944   6.295   0.724 -3.3534 -1.1024 -0.4969
 6259TIP3    H242973   5.916   6.373   0.850 -0.5981 -0.0359 -0.4640
 6260TIP3   OH242974   3.026   5.278   0.691 -0.8602 -0.0446 -0.3512
 6260TIP3    H142975   3.068   5.194   0.674  0.4357  0.1853  1.4033
 6260TIP3    H242976   3.091   5.343   0.666 -1.0635  0.3828  0.1946
 6261TIP3   OH242977   3.708   3.959   1.920  0.0024  0.3161  0.2073
 6261TIP3    H142978   3.801   3.975   1.932 -0.0183 -0.2809  1.2719
 6261TIP3    H242979   3.700   3.926   1.830  0.9036 -0.2875  0.3391
 6262TIP3   OH242980   4.161   6.469   2.889  0.4175 -0.4509  0.2639
 6262TIP3    H142981   4.223   6.407   2.926  0.1033 -1.8158 -1.4183
 6262TIP3    H242982   4.083   6.417   2.870  0.5548  0.1577 -2.2589
 6263TIP3   OH242983   2.719   3.518   1.129 -0.3627 -0.0312  0.1054
 6263TIP3    H142984   2.770   3.522   1.210 -0.6625  0.3784  0.2741
 6263TIP3    H242985   2.780   3.545   1.060  0.4631 -2.1952 -0.0890
 6264TIP3   OH242986   2.525   4.238   3.876 -0.1034 -0.0144  0.3818
 6264TIP3    H142987   2.450   4.217   3.932 -0.7825  1.1121 -0.0898
 6264TIP3    H242988   2.511   4.187   3.796 -0.2594  0.0421  0.3736
 6265TIP3   OH242989   3.213   4.572   3.330 -0.5820  0.3035 -0.4380
 6265TIP3    H142990   3.301   4.592   3.361 -0.6779  1.3445 -0.7803
 6265TIP3    H242991   3.215   4.480   3.307 -0.3490 -0.4094  2.1319
 6266TIP3   OH242992   5.481   5.391   3.651 -0.3291  0.3405 -0.4021
 6266TIP3    H142993   5.576   5.402   3.646 -0.3753  0.7850 -0.3946
 6266TIP3    H242994   5.448   5.480   3.665 -0.7830  0.2828 -1.0517
 6267TIP3   OH242995   0.187   3.618   2.094  0.0088  0.4708  0.2694
 6267TIP3    H142996   0.121   3.635   2.161  2.7682 -0.0507  3.3619
 6267TIP3    H242997   0.190   3.523   2.085 -0.0086  0.5156 -0.3034
 6268TIP3   OH242998   3.047   5.418   2.715  0.8313 -0.1315  0.0939
 6268TIP3    H142999   3.044   5.354   2.644 -1.3746  1.3489 -1.2586
 6268TIP3    H243000   3.076   5.499   2.673  0.3443  0.5741  1.0780
 6269TIP3   OH243001   2.133   5.884   1.263  0.1594 -0.4894 -0.1778
 6269TIP3    H143002   2.068   5.879   1.194  0.5416  1.2469 -0.7148
 6269TIP3    H243003   2.106   5.818   1.327 -1.8233 -0.1652 -0.6289
 6270TIP3   OH243004   0.244   6.240   2.186 -0.0915  0.1745 -0.2735
 6270TIP3    H143005   0.296   6.213   2.111 -0.3314  1.2833 -0.8710
 6270TIP3    H243006   0.296   6.214   2.263  1.3035  1.1414 -0.8454
 6271TIP3   OH243007   6.149   1.876   0.742  0.0774 -0.0451  0.2778
 6271TIP3    H143008   6.054   1.876   0.736  0.1535  1.0831 -3.3955
 6271TIP3    H243009   6.170   1.953   0.795 -1.0595  0.2418  0.3209
 6272TIP3   OH243010   5.252   1.547   0.510  0.3523 -0.2818 -0.5361
 6272TIP3    H143011   5.283   1.621   0.562  2.0524 -1.8025  0.7333
 6272TIP3    H243012   5.316   1.538   0.439  0.1746 -0.5521 -0.6661
 6273TIP3   OH243013   2.681   3.823   0.662  0.3623  0.5177  0.1509
 6273TIP3    H143014   2.673   3.894   0.726 -1.2232  0.7205 -0.2064
 6273TIP3    H243015   2.590   3.800   0.641  0.8444 -0.2719 -1.2203
 6274TIP3   OH243016   2.248   3.462   0.585  0.2316 -0.2598  0.0520
 6274TIP3    H143017   2.167   3.482   0.632  0.1773  0.0560 -0.1754
 6274TIP3    H243018   2.223   3.395   0.522  0.3781 -0.9339  0.7021
 6275TIP3   OH243019   2.570   1.091   3.871 -0.0098  0.1981 -0.1937
 6275TIP3    H143020   2.514   1.148   3.924  2.3851  0.2130  2.5114
 6275TIP3    H243021   2.568   1.007   3.916  1.5794  0.0061 -0.4408
 6276TIP3   OH243022   2.564   6.565   2.577 -0.4272  0.4436 -0.2487
 6276TIP3    H143023   2.570   6.550   2.483  0.8486  0.3943 -0.1696
 6276TIP3    H243024   2.479   6.527   2.602 -0.7604  0.4343 -1.3613
 6277TIP3   OH243025   2.751   3.021   1.842 -0.0191 -0.4231 -0.3243
 6277TIP3    H143026   2.661   3.006   1.813 -1.2069 -0.0693  2.8036
 6277TIP3    H243027   2.743   3.085   1.912  2.9789  1.3880 -1.4482
 6278TIP3   OH243028   4.550   1.767   1.313 -0.6588  0.0939 -0.2578
 6278TIP3    H143029   4.458   1.784   1.331 -0.6926  0.3243 -0.6403
 6278TIP3    H243030   4.592   1.768   1.399 -1.0078  0.0130 -0.0864
 6279TIP3   OH243031   4.813   4.781   1.090 -0.3070  0.2247 -0.6326
 6279TIP3    H143032   4.845   4.723   1.021 -1.3015  0.1451 -1.0360
 6279TIP3    H243033   4.868   4.860   1.082  0.3473 -0.2356 -0.7577
 6280TIP3   OH243034   5.353   1.693   3.254  0.9210  0.5366  0.1661
 6280TIP3    H143035   5.358   1.670   3.161 -0.3386  0.1966  0.1654
 6280TIP3    H243036   5.435   1.660   3.291  0.0520 -2.3266 -0.2098
 6281TIP3   OH243037   6.056   6.068   3.599 -0.2798  0.2816  0.5536
 6281TIP3    H143038   6.008   6.041   3.520 -0.1200 -0.5633  0.7327
 6281TIP3    H243039   6.041   5.997   3.661  2.3147 -0.7290  0.1531
 6282TIP3   OH243040   6.436   1.693   3.121  0.3045  0.0372  0.0927
 6282TIP3    H143041   6.513   1.664   3.072  1.6607  1.0161  1.5340
 6282TIP3    H243042   6.362   1.651   3.077  1.8275 -2.9583  0.1223
 6283TIP3   OH243043   4.826   3.789   1.189 -0.3041 -0.9603 -0.8053
 6283TIP3    H143044   4.875   3.772   1.109  1.1009 -0.1132 -0.1598
 6283TIP3    H243045   4.845   3.714   1.246  0.0295 -0.7702 -0.6623
 6284TIP3   OH243046   6.393   1.770   0.608 -0.2945  0.4692  0.3732
 6284TIP3    H143047   6.333   1.824   0.660 -0.9091 -1.7561  2.1162
 6284TIP3    H243048   6.455   1.735   0.671 -0.1168 -1.1174 -0.6309
 6285TIP3   OH243049   0.935   1.469   2.667 -0.2441 -0.3904  0.6986
 6285TIP3    H143050   0.914   1.377   2.650 -1.9030  0.3517 -1.8728
 6285TIP3    H243051   1.031   1.471   2.668 -0.1619 -2.0525  0.1901
 6286TIP3   OH243052   0.489   0.087   1.618  0.2306  0.4279 -0.2109
 6286TIP3    H143053   0.471  -0.001   1.651 -2.4336  0.6028 -1.0001
 6286TIP3    H243054   0.510   0.138   1.696  1.1065 -0.7214  0.3314
 6287TIP3   OH243055   6.431   6.035   2.362 -0.1718  0.3060 -0.2425
 6287TIP3    H143056   6.411   5.979   2.287 -0.1797 -0.0525  0.0215
 6287TIP3    H243057   6.521   6.064   2.347 -0.6845  1.4724 -1.1521
 6288TIP3   OH243058   0.839   3.694   3.126  0.1365  0.0143  0.0557
 6288TIP3    H143059   0.760   3.691   3.179  0.7971 -1.1494  1.0377
 6288TIP3    H243060   0.811   3.662   3.040 -1.0238  2.2859 -0.4779
 6289TIP3   OH243061   0.400   2.037   3.400 -1.0079  0.3840 -0.3867
 6289TIP3    H143062   0.345   2.110   3.428 -0.6412 -0.1659  1.8943
 6289TIP3    H243063   0.446   2.010   3.478  0.8281 -0.6517 -1.7576
 6290TIP3   OH243064   6.072   2.310   1.813 -0.4964 -0.1615 -0.1121
 6290TIP3    H143065   6.127   2.389   1.815 -0.3930 -0.2359  1.3476
 6290TIP3    H243066   6.093   2.265   1.895 -1.8253 -0.8406 -0.1298
 6291TIP3   OH243067   1.153   2.320   0.816 -0.3473  0.7577 -0.2230
 6291TIP3    H143068   1.067   2.328   0.775 -0.3601 -2.1466 -0.9581
 6291TIP3    H243069   1.134   2.295   0.907 -0.2674  1.7816  0.0853
 6292TIP3   OH243070   3.803   0.515   1.180  0.2777 -0.3294 -0.0448
 6292TIP3    H143071   3.735   0.535   1.245  0.3786 -0.6716  0.1694
 6292TIP3    H243072   3.809   0.420   1.180  0.3247 -0.3296 -0.5121
 6293TIP3   OH243073   0.619   3.222   1.376  0.1029  0.2930  0.5553
 6293TIP3    H143074   0.673   3.170   1.435  0.7971  1.2258  0.7755
 6293TIP3    H243075   0.543   3.168   1.358 -0.2015  0.0401  2.4280
 6294TIP3   OH243076   3.089   6.466   3.351 -0.0922  0.6290  0.0751
 6294TIP3    H143077   3.049   6.478   3.437 -0.2337  0.0513  0.0993
 6294TIP3    H243078   3.055   6.537   3.298  1.6909  2.3113  1.0722
 6295TIP3   OH243079   4.239   4.194   3.294  0.0512 -0.3105 -0.1614
 6295TIP3    H143080   4.328   4.173   3.319  0.2432 -0.8568 -1.2166
 6295TIP3    H243081   4.192   4.205   3.376  1.5776  2.2521  0.4532
 6296TIP3   OH243082   1.811   5.465   0.686 -0.1063  0.2946  0.3715
 6296TIP3    H143083   1.890   5.412   0.672  0.4515  1.2115 -0.0608
 6296TIP3    H243084   1.834   5.551   0.651 -0.9090  0.8950  1.2657
 6297TIP3   OH243085   6.467   2.304   2.773 -0.3189 -0.5267  0.0998
 6297TIP3    H143086   6.427   2.349   2.698  2.6670 -0.7258 -1.7845
 6297TIP3    H243087   6.439   2.213   2.763 -0.6774 -0.3841 -0.2260
 6298TIP3   OH243088   3.329   1.840   1.160 -0.4009  0.4013 -0.2351
 6298TIP3    H143089   3.336   1.873   1.250 -0.7434 -0.6209  0.1869
 6298TIP3    H243090   3.414   1.860   1.121  0.6115 -1.1216  1.0367
 6299TIP3   OH243091   2.267   0.193   3.522 -0.6829  0.1045  0.1251
 6299TIP3    H143092   2.306   0.107   3.508  1.6153  0.8639  1.3266
 6299TIP3    H243093   2.342   0.253   3.526 -1.9823  1.7182  2.3104
 6300TIP3   OH243094   0.943   4.856   0.640  0.7179 -0.0743 -0.0048
 6300TIP3    H143095   0.857   4.878   0.674  0.8931  0.8220 -0.1241
 6300TIP3    H243096   0.975   4.786   0.697  0.8183  1.0792  1.4096
 6301TIP3   OH243097   4.664   6.361   2.330 -0.5152  0.3632 -0.1876
 6301TIP3    H143098   4.569   6.362   2.317 -0.4748 -2.4015 -1.3479
 6301TIP3    H243099   4.681   6.282   2.381  1.2386  0.1863 -0.9587
 6302TIP3   OH243100   4.759   1.937   2.455 -0.1826  0.3443  0.8376
 6302TIP3    H143101   4.811   1.963   2.379 -0.4096 -1.6409 -0.0657
 6302TIP3    H243102   4.719   2.018   2.486 -0.1706  1.1967 -1.2362
 6303TIP3   OH243103   1.849   2.554   3.010 -0.6052  0.0356  0.4201
 6303TIP3    H143104   1.804   2.499   2.946  1.1376  0.8959 -1.6995
 6303TIP3    H243105   1.782   2.614   3.043 -1.5333 -0.3768 -0.6668
 6304TIP3   OH243106   5.495   5.264   2.290 -0.5966 -0.8847  0.3429
 6304TIP3    H143107   5.525   5.187   2.339  0.3769 -1.3934 -0.9814
 6304TIP3    H243108   5.563   5.329   2.302 -0.2620 -1.0722 -0.4283
 6305TIP3   OH243109   2.636   5.057   1.015 -0.2635 -0.1453 -0.4277
 6305TIP3    H143110   2.710   5.081   1.071  0.2258 -0.9018 -0.7269
 6305TIP3    H243111   2.599   5.141   0.986  1.2830  0.2766 -1.3091
 6306TIP3   OH243112   0.155   0.319   1.598  0.0743  0.0249 -0.2301
 6306TIP3    H143113   0.060   0.328   1.603  0.0749 -0.3653  0.7929
 6306TIP3    H243114   0.184   0.396   1.548 -0.6982  0.6738  0.2929
 6307TIP3   OH243115   2.451   3.863   1.359  0.3366  0.5627 -0.1660
 6307TIP3    H143116   2.452   3.956   1.339  0.3137  0.6835  0.3648
 6307TIP3    H243117   2.478   3.858   1.451 -1.3700  0.2055  0.3652
 6308TIP3   OH243118   3.340   1.104   2.561 -0.1560 -0.3052 -0.3432
 6308TIP3    H143119   3.348   1.175   2.624 -1.6324 -2.5320  2.6343
 6308TIP3    H243120   3.272   1.134   2.500  0.6688  1.5741 -0.3933
 6309TIP3   OH243121   0.616   0.378   2.487  0.0588 -0.1765 -0.2975
 6309TIP3    H143122   0.611   0.293   2.530 -1.0982 -0.4610 -0.9558
 6309TIP3    H243123   0.701   0.378   2.444  0.5642 -0.5143  0.6657
 6310TIP3   OH243124   0.579   1.805   1.877  0.2819  0.0967 -0.7593
 6310TIP3    H143125   0.512   1.756   1.829  0.9510 -0.5066 -1.0969
 6310TIP3    H243126   0.594   1.753   1.956 -0.7069  1.0072  0.0563
 6311TIP3   OH243127   2.973   1.342   1.082 -0.2314  0.2210 -0.0861
 6311TIP3    H143128   2.944   1.290   1.007  1.7037 -0.3066 -0.5337
 6311TIP3    H243129   3.042   1.398   1.047 -1.2724  2.0853  0.7163
 6312TIP3   OH243130   0.035   1.842   0.473  0.2211  0.3433  0.0559
 6312TIP3    H143131   0.025   1.891   0.555 -2.2570  0.3213 -0.1417
 6312TIP3    H243132   0.041   1.751   0.500 -3.7488 -0.0429  0.3067
 6313TIP3   OH243133   3.659   1.295   2.673  0.2285 -0.9104  0.7940
 6313TIP3    H143134   3.595   1.342   2.620  1.2321  0.2818  0.5834
 6313TIP3    H243135   3.609   1.263   2.748 -0.4962  0.6410  1.0268
 6314TIP3   OH243136   3.180   4.520   1.951 -0.0326  0.2359 -0.1373
 6314TIP3    H143137   3.178   4.562   2.037 -2.4691 -1.2453  0.5958
 6314TIP3    H243138   3.135   4.582   1.893  0.3995  0.6206 -0.0679
 6315TIP3   OH243139   2.734   0.486   0.904  0.4199 -0.1212  0.2942
 6315TIP3    H143140   2.810   0.498   0.847 -0.1442 -1.1524 -0.6943
 6315TIP3    H243141   2.740   0.395   0.933 -0.1377 -0.0455  0.6625
 6316TIP3   OH243142   0.908   5.896   2.853  0.4281 -0.0433 -0.6742
 6316TIP3    H143143   0.906   5.868   2.944  3.9360 -1.0246 -0.7546
 6316TIP3    H243144   0.884   5.817   2.804  0.8961 -0.2098 -0.6412
 6317TIP3   OH243145   6.180   3.004   1.241 -0.0661 -0.1422 -0.0784
 6317TIP3    H143146   6.104   2.970   1.193  0.4027 -1.2596 -0.0599
 6317TIP3    H243147   6.224   3.061   1.178 -1.5927  1.5634  0.3157
 6318TIP3   OH243148   3.601   6.213   3.644 -0.0670  1.0734  0.1590
 6318TIP3    H143149   3.662   6.154   3.688 -1.0280  0.3840  0.5955
 6318TIP3    H243150   3.640   6.300   3.655  0.1304  0.8206  1.6529
 6319TIP3   OH243151   4.444   4.359   0.801 -0.1683  0.1305  0.5482
 6319TIP3    H143152   4.477   4.272   0.821  0.0082 -0.1330 -0.7944
 6319TIP3    H243153   4.390   4.347   0.723 -1.1549  1.0313  1.0557
 6320TIP3   OH243154   2.757   5.628   4.156 -0.1456  0.0767 -0.6673
 6320TIP3    H143155   2.788   5.637   4.066  0.1366 -0.4340 -0.6238
 6320TIP3    H243156   2.753   5.534   4.171  0.4779  0.1611  0.0798
 6321TIP3   OH243157   3.276   3.954   1.298  0.0227  0.5289 -0.0096
 6321TIP3    H143158   3.337   3.887   1.328 -1.4742 -0.2965  1.3312
 6321TIP3    H243159   3.230   3.983   1.377  0.3042  2.8659 -0.6127
 6322TIP3   OH243160   4.326   0.726   2.563  0.2688  0.0920  0.1307
 6322TIP3    H143161   4.333   0.818   2.536 -4.1246  0.7505  0.4530
 6322TIP3    H243162   4.338   0.728   2.658 -0.5298  0.4927  0.2323
 6323TIP3   OH243163   1.485   0.779   0.397 -0.0452 -0.3476  0.6215
 6323TIP3    H143164   1.446   0.866   0.404  1.1215  0.1867  0.7579
 6323TIP3    H243165   1.413   0.719   0.416 -1.7039  0.4091 -2.5625
 6324TIP3   OH243166   2.068   3.704   4.205 -0.2310 -0.5811  0.1765
 6324TIP3    H143167   2.015   3.777   4.238 -0.6325 -1.0617  0.6124
 6324TIP3    H243168   2.136   3.746   4.153 -2.0964  0.0226 -1.9721
 6325TIP3   OH243169   2.714   4.613   1.189 -0.2381 -0.5105 -0.4429
 6325TIP3    H143170   2.702   4.520   1.170  0.5887 -0.6868 -0.1426
 6325TIP3    H243171   2.641   4.636   1.246 -0.2656 -1.0618 -0.2516
 6326TIP3   OH243172   6.692   1.194   2.792  0.4619  0.2597  0.3806
 6326TIP3    H143173   6.685   1.259   2.861  0.5710  1.2240 -0.4986
 6326TIP3    H243174   6.607   1.194   2.749  1.4066  2.2354 -1.7016
 6327TIP3   OH243175   1.656   3.335   2.355 -0.0927  0.0504 -0.3484
 6327TIP3    H143176   1.700   3.271   2.411 -1.8222 -1.0707 -0.1985
 6327TIP3    H243177   1.642   3.289   2.272  0.2277  0.8625 -0.8658
 6328TIP3   OH243178   6.701   5.382   0.381  0.5412  0.0064  0.2995
 6328TIP3    H143179   6.654   5.383   0.464  0.2574 -0.7511  0.1588
 6328TIP3    H243180   6.636   5.351   0.317  1.0171 -0.3229 -0.0313
 6329TIP3   OH243181   5.694   5.991   3.707 -0.5128 -0.0646  0.3603
 6329TIP3    H143182   5.754   5.917   3.717 -0.1944 -0.1359 -1.7193
 6329TIP3    H243183   5.739   6.052   3.649 -1.1371  1.3954  1.3470
 6330TIP3   OH243184   5.530   4.735   3.025  0.4534  0.0804  0.2007
 6330TIP3    H143185   5.484   4.804   2.977 -1.0253 -1.0097 -0.0363
 6330TIP3    H243186   5.504   4.747   3.116  0.9806  0.4136  0.3125
 6331TIP3   OH243187   0.240   0.054   0.677 -0.1045  0.6384  0.5504
 6331TIP3    H143188   0.264   0.097   0.759  0.5290  1.6333 -0.1337
 6331TIP3    H243189   0.153   0.089   0.656  0.0339  0.9231  0.4453
 6332TIP3   OH243190   2.843   3.855   0.908 -0.2744  0.1396  0.1042
 6332TIP3    H143191   2.867   3.836   0.999  0.3237  0.1361 -0.0443
 6332TIP3    H243192   2.891   3.790   0.857 -2.0815 -1.0737 -0.1160
 6333TIP3   OH243193   3.282   0.916   3.692  0.1829  0.0618 -0.4004
 6333TIP3    H143194   3.236   1.000   3.687 -0.3249 -0.1732  0.1104
 6333TIP3    H243195   3.321   0.915   3.780 -1.3135 -0.9608  0.3142
 6334TIP3   OH243196   5.379   5.164   1.809 -0.4633 -0.4236  0.5448
 6334TIP3    H143197   5.348   5.154   1.719 -2.0545 -1.7693  1.1891
 6334TIP3    H243198   5.446   5.096   1.818 -1.3802 -1.3169  0.7963
 6335TIP3   OH243199   6.629   1.312   1.834  0.0006  0.4703  0.2741
 6335TIP3    H143200   6.688   1.297   1.760 -0.4264  0.6757 -0.1090
 6335TIP3    H243201   6.553   1.355   1.796 -1.1415 -1.2956  0.5003
 6336TIP3   OH243202   1.645   5.544   2.333 -0.8116  0.3867  0.0187
 6336TIP3    H143203   1.697   5.470   2.300 -0.5974  0.0188  1.1302
 6336TIP3    H243204   1.697   5.621   2.312 -1.6141  0.3916 -2.3054
 6337TIP3   OH243205   6.325   5.580   2.277 -0.3769  0.2553 -0.6301
 6337TIP3    H143206   6.280   5.660   2.304  0.2929  0.4796 -0.1489
 6337TIP3    H243207   6.255   5.523   2.244 -0.7019  1.5189 -2.1938
 6338TIP3   OH243208   5.780   2.811   1.815  0.1673 -0.0716  0.0473
 6338TIP3    H143209   5.871   2.790   1.835 -0.0623 -2.0538 -0.8050
 6338TIP3    H243210   5.769   2.902   1.845  2.1475 -0.0994  0.9813
 6339TIP3   OH243211   0.214   0.793   0.948 -0.2909 -0.0984 -0.3225
 6339TIP3    H143212   0.300   0.804   0.908 -0.6818  0.4539 -1.0348
 6339TIP3    H243213   0.229   0.732   1.020  0.4163 -1.2776 -1.4046
 6340TIP3   OH243214   5.798   5.528   1.899 -0.2693 -0.3187 -0.1008
 6340TIP3    H143215   5.711   5.496   1.921 -0.6855  0.9985  0.2266
 6340TIP3    H243216   5.788   5.623   1.889  1.2363 -0.0615  0.4994
 6341TIP3   OH243217   1.751   2.029   3.874  0.5434 -0.1441 -0.2717
 6341TIP3    H143218   1.807   2.106   3.862  0.1636 -0.2511 -3.4364
 6341TIP3    H243219   1.812   1.959   3.900  1.0450  0.8700  1.5091
 6342TIP3   OH243220   2.411   2.968   1.020 -0.0708  0.3616 -0.4191
 6342TIP3    H143221   2.458   3.006   1.094  1.5057 -0.5617 -0.9074
 6342TIP3    H243222   2.384   3.044   0.967 -1.4277  1.0466  1.1634
 6343TIP3   OH243223   0.784   2.529   1.750 -0.6742 -0.5814  0.0779
 6343TIP3    H143224   0.712   2.563   1.804 -0.5110 -0.5997  0.3084
 6343TIP3    H243225   0.786   2.435   1.769  0.2704 -0.3760  1.1040
 6344TIP3   OH243226   5.543   6.626   3.615  0.1117  0.2314  0.1790
 6344TIP3    H143227   5.540   6.675   3.533  2.0196  0.7035  0.3470
 6344TIP3    H243228   5.487   6.550   3.600 -1.3229  1.4245 -0.7794
 6345TIP3   OH243229   6.581   4.369   3.546 -0.0745 -0.1653 -0.0698
 6345TIP3    H143230   6.636   4.385   3.622 -0.2311  1.2035 -0.2199
 6345TIP3    H243231   6.517   4.440   3.546 -3.6809 -3.0477  1.6158
 6346TIP3   OH243232   3.842   4.971   3.408  0.0553  0.0138 -0.1714
 6346TIP3    H143233   3.889   4.923   3.475 -1.1559 -1.4674 -0.3280
 6346TIP3    H243234   3.848   5.063   3.435 -0.0027 -0.4973  1.7145
 6347TIP3   OH243235   1.126   6.549   2.705  0.3131 -0.3862  0.2516
 6347TIP3    H143236   1.162   6.487   2.768 -0.6184 -1.1092  0.0885
 6347TIP3    H243237   1.074   6.495   2.645 -1.4199  0.6662  0.7464
 6348TIP3   OH243238   0.624   3.305   2.017  0.0978  0.0995 -0.2733
 6348TIP3    H143239   0.644   3.358   2.094  0.9796  0.5378 -0.7867
 6348TIP3    H243240   0.531   3.284   2.026  0.1579  0.2245  0.8553
 6349TIP3   OH243241   4.968   5.808   2.621 -0.2811  0.0639  0.0905
 6349TIP3    H143242   4.890   5.773   2.577  0.4490  0.7472 -1.8882
 6349TIP3    H243243   5.010   5.862   2.554  2.3815 -0.9674  0.8052
 6350TIP3   OH243244   2.675   3.221   2.013 -0.3731 -0.1964 -0.2358
 6350TIP3    H143245   2.611   3.181   2.072  1.7756 -2.3001  0.8025
 6350TIP3    H243246   2.710   3.295   2.062 -1.7605  0.8262 -0.7191
 6351TIP3   OH243247   1.107   3.548   1.979 -0.0063 -0.1672 -0.2339
 6351TIP3    H143248   1.201   3.551   1.998 -0.2323 -1.9749  1.5098
 6351TIP3    H243249   1.087   3.636   1.946  2.0999  0.5800  0.2924
 6352TIP3   OH243250   1.713   5.915   2.831  0.5215 -0.1387 -0.2979
 6352TIP3    H143251   1.712   5.911   2.736  2.2983  1.3504 -0.4476
 6352TIP3    H243252   1.786   5.859   2.857  1.1776  0.8382  0.0329
 6353TIP3   OH243253   0.959   2.156   0.604  0.3943  0.1855  0.1922
 6353TIP3    H143254   0.992   2.209   0.531  0.9308  0.0787  0.3498
 6353TIP3    H243255   1.033   2.099   0.627  0.3217  0.4059  0.9995
 6354TIP3   OH243256   0.800   5.568   3.822 -0.0520  0.7943  0.0811
 6354TIP3    H143257   0.807   5.562   3.918 -0.6855 -0.7298  0.0567
 6354TIP3    H243258   0.709   5.590   3.806 -0.7936 -2.1369 -0.2157
 6355TIP3   OH243259   0.496   4.565   4.424 -0.0200  0.3870 -0.7797
 6355TIP3    H143260   0.405   4.536   4.417 -0.1837  0.8355 -0.5923
 6355TIP3    H243261   0.546   4.498   4.378 -0.4480  0.1521 -0.9152
 6356TIP3   OH243262   0.511   5.768   2.374 -0.1465  0.2410 -0.4602
 6356TIP3    H143263   0.519   5.718   2.293  1.7245 -0.5195  0.1313
 6356TIP3    H243264   0.428   5.740   2.412  0.4459 -1.8388 -0.5853
 6357TIP3   OH243265   2.941   2.601   2.149 -0.1256  0.3082 -0.0761
 6357TIP3    H143266   2.885   2.571   2.221  1.5080 -1.7301  0.4381
 6357TIP3    H243267   2.882   2.608   2.074 -1.2374 -1.0980  0.6106
 6358TIP3   OH243268   5.602   4.388   1.440 -0.1477  0.5216  0.2538
 6358TIP3    H143269   5.601   4.478   1.408 -0.8395  0.8727  1.2075
 6358TIP3    H243270   5.514   4.355   1.421 -0.2657  0.4341  0.9302
 6359TIP3   OH243271   0.518   2.917   4.003  0.3601 -0.3608 -0.4156
 6359TIP3    H143272   0.481   2.878   3.924 -0.0067  0.1146 -0.4818
 6359TIP3    H243273   0.601   2.871   4.016  0.7852  0.0706 -1.5034
 6360TIP3   OH243274   5.856   6.490   3.074 -0.0712  0.0585 -0.1266
 6360TIP3    H143275   5.884   6.572   3.113  1.0397 -1.3704  2.3186
 6360TIP3    H243276   5.919   6.475   3.003 -0.1829  1.2166 -0.4880
 6361TIP3   OH243277   5.606   1.763   2.933  0.0606 -0.8632 -0.3314
 6361TIP3    H143278   5.626   1.733   2.844  1.9109 -1.6114  0.3066
 6361TIP3    H243279   5.622   1.857   2.931  1.0194 -1.0280 -0.5518
 6362TIP3   OH243280   0.331   1.036   1.176 -0.9932  0.2417  0.1521
 6362TIP3    H143281   0.371   1.027   1.262  0.5561  0.4120 -0.5206
 6362TIP3    H243282   0.238   1.047   1.194 -0.7303  0.0122  1.7840
 6363TIP3   OH243283   1.804   0.477   1.601 -0.4023 -0.4135  0.8040
 6363TIP3    H143284   1.879   0.502   1.655  0.6243 -1.4055 -0.1189
 6363TIP3    H243285   1.833   0.491   1.511 -1.6341 -0.0215  0.4450
 6364TIP3   OH243286   3.468   1.971   2.477  0.1198 -0.1774 -0.4295
 6364TIP3    H143287   3.499   2.058   2.453  0.4806  0.8463  3.1909
 6364TIP3    H243288   3.380   1.986   2.513 -0.3009 -1.5149 -0.8400
 6365TIP3   OH243289   4.245   1.322   1.001 -0.4124  0.0443 -0.6539
 6365TIP3    H143290   4.213   1.324   0.911 -0.3219  1.7904 -0.6680
 6365TIP3    H243291   4.298   1.401   1.011 -0.3328 -0.1570  0.9121
 6366TIP3   OH243292   1.878   5.809   1.105  0.4450  0.5457 -0.0337
 6366TIP3    H143293   1.830   5.886   1.134  1.5167  1.1138  0.2740
 6366TIP3    H243294   1.829   5.735   1.141 -0.7653  1.0486 -0.5869
 6367TIP3   OH243295   1.532   3.006   1.130  0.3445  0.2316 -0.1534
 6367TIP3    H143296   1.627   3.016   1.125  0.4072  0.4894  1.1855
 6367TIP3    H243297   1.510   3.031   1.220 -0.8183 -1.3070  0.0315
 6368TIP3   OH243298   5.450   1.888   2.659  0.3071 -0.2233  0.2995
 6368TIP3    H143299   5.543   1.869   2.669 -0.1451 -2.4993  0.6184
 6368TIP3    H243300   5.433   1.959   2.722  2.0378  1.1371 -0.6839
 6369TIP3   OH243301   1.118   4.370   3.309  0.0628 -0.3377 -0.4098
 6369TIP3    H143302   1.143   4.343   3.221  0.1674 -1.6244  0.0055
 6369TIP3    H243303   1.054   4.440   3.295 -0.3337 -0.8967 -1.5088
 6370TIP3   OH243304   2.795   0.898   2.728 -0.2492 -0.1674  0.0302
 6370TIP3    H143305   2.888   0.882   2.744 -0.5860 -2.9745 -0.3143
 6370TIP3    H243306   2.793   0.951   2.648  1.0681 -1.3662 -0.8503
 6371TIP3   OH243307   3.169   4.262   2.997  0.0028 -0.7444 -0.3715
 6371TIP3    H143308   3.157   4.298   3.085 -0.6151 -1.6376 -0.0751
 6371TIP3    H243309   3.231   4.321   2.955 -1.0527  0.7149  0.0526
 6372TIP3   OH243310   5.048   1.363   0.944  0.2493 -0.1817  0.4132
 6372TIP3    H143311   5.136   1.365   0.981  1.3453  2.9476 -1.9721
 6372TIP3    H243312   5.061   1.344   0.851 -1.6867 -0.4201  0.1420
 6373TIP3   OH243313   1.321   5.384   2.987  0.2262 -0.0100  0.1063
 6373TIP3    H143314   1.314   5.367   2.893 -0.9846  0.3417  0.1107
 6373TIP3    H243315   1.233   5.412   3.012 -0.3692 -3.0321  1.9256
 6374TIP3   OH243316   0.277   3.910   0.572 -0.2331  0.4206 -0.1611
 6374TIP3    H143317   0.372   3.903   0.582 -0.3142 -0.3186  0.1286
 6374TIP3    H243318   0.259   4.004   0.582  0.3791  0.4705  0.5519
 6375TIP3   OH243319   1.698   5.900   3.495 -0.2703  0.8878 -0.1298
 6375TIP3    H143320   1.772   5.876   3.439  0.1906  0.0849  0.7801
 6375TIP3    H243321   1.652   5.968   3.446  1.3657  1.7978 -0.4829
 6376TIP3   OH243322   6.331   0.327   2.639  0.1820  0.3600 -0.2751
 6376TIP3    H143323   6.288   0.397   2.688 -1.2829 -0.6903  0.0111
 6376TIP3    H243324   6.274   0.313   2.562  0.0115 -1.0127  0.0675
 6377TIP3   OH243325   2.553   2.285   2.980  0.9236 -0.5085 -0.4332
 6377TIP3    H143326   2.565   2.268   2.887 -0.1802  1.2888 -0.9650
 6377TIP3    H243327   2.578   2.377   2.991  0.4598 -0.5175  0.9228
 6378TIP3   OH243328   4.908   0.228   4.009  0.1340  0.0396 -0.4469
 6378TIP3    H143329   4.904   0.251   4.102 -1.9953 -2.2905  0.1658
 6378TIP3    H243330   4.991   0.183   3.998  0.1113 -0.2529  0.5154
 6379TIP3   OH243331   1.228   2.367   2.326  0.4411 -0.6248  0.7116
 6379TIP3    H143332   1.228   2.342   2.234 -0.4872 -0.0202  0.5293
 6379TIP3    H243333   1.160   2.313   2.366  1.7834 -1.8963  1.3570
 6380TIP3   OH243334   6.419   5.953   3.236  0.1540  0.3031 -0.5758
 6380TIP3    H143335   6.470   5.964   3.317 -1.0031  0.4935  0.1523
 6380TIP3    H243336   6.424   6.038   3.193 -0.5535  0.7142  0.1186
 6381TIP3   OH243337   4.765   2.434   2.228 -0.1163 -0.2071 -0.1737
 6381TIP3    H143338   4.851   2.471   2.245 -0.1214 -0.5709  0.7202
 6381TIP3    H243339   4.710   2.509   2.206  0.1166  0.1921  0.5699
 6382TIP3   OH243340   4.122   5.869   1.644 -0.7881  0.0130  0.0722
 6382TIP3    H143341   4.123   5.822   1.560 -1.7731  0.9961 -0.5180
 6382TIP3    H243342   4.208   5.852   1.682 -0.5958 -1.0607 -0.7847
 6383TIP3   OH243343   6.292   5.696   1.950  0.0505 -0.5828 -0.2873
 6383TIP3    H143344   6.255   5.608   1.958  0.9397 -0.9486 -0.1339
 6383TIP3    H243345   6.218   5.750   1.922 -0.8195 -1.1254  0.8572
 6384TIP3   OH243346   1.662   3.906   4.216  0.1515  0.1703  0.0007
 6384TIP3    H143347   1.569   3.924   4.223 -0.2314 -0.7683 -2.0043
 6384TIP3    H243348   1.669   3.811   4.227  0.9182  0.2797  0.5152
 6385TIP3   OH243349   2.974   3.256   0.826  0.4587  0.0718  0.5081
 6385TIP3    H143350   2.977   3.167   0.863 -0.3875 -0.0696  0.2533
 6385TIP3    H243351   3.065   3.279   0.811  0.6709 -0.8711  0.3110
 6386TIP3   OH243352   4.658   0.015   3.502 -0.4156  0.2873  0.5504
 6386TIP3    H143353   4.624   0.083   3.444  1.4568  0.8189  0.0142
 6386TIP3    H243354   4.740   0.052   3.536 -1.0273 -0.3569  2.8762
 6387TIP3   OH243355   3.124   1.035   4.056 -0.0757  0.4307  0.1114
 6387TIP3    H143356   3.218   1.030   4.040 -0.1300  0.2406 -0.1532
 6387TIP3    H243357   3.098   1.119   4.020 -0.0728  0.3148 -0.1656
 6388TIP3   OH243358   1.412   0.816   4.247 -0.2872  0.4102  0.0419
 6388TIP3    H143359   1.464   0.895   4.232 -2.7723  2.0510 -0.4527
 6388TIP3    H243360   1.474   0.744   4.234  1.8439  2.2253 -0.4378
 6389TIP3   OH243361   1.038   3.725   1.164  0.1096 -0.2932  0.7885
 6389TIP3    H143362   0.954   3.682   1.147  0.7173 -0.8640 -0.9797
 6389TIP3    H243363   1.101   3.653   1.168  0.8366  0.2829 -0.1598
 6390TIP3   OH243364   4.777   0.888   0.974 -0.1634  0.2843 -0.4569
 6390TIP3    H143365   4.843   0.864   0.909  0.1652 -0.2203  0.0619
 6390TIP3    H243366   4.752   0.805   1.015 -1.3341  0.4224 -0.8415
 6391TIP3   OH243367   3.073   5.911   1.400 -0.4338 -0.5361 -0.2053
 6391TIP3    H143368   3.035   5.998   1.416 -1.5288 -1.1590  0.7284
 6391TIP3    H243369   3.144   5.928   1.339 -1.1079  0.9257 -0.6536
 6392TIP3   OH243370   1.355   1.621   2.035 -0.6456 -0.2338  0.7812
 6392TIP3    H143371   1.371   1.608   2.128  1.3416 -0.3117  0.4725
 6392TIP3    H243372   1.426   1.678   2.006  0.6522 -2.6670 -1.2592
 6393TIP3   OH243373   6.691   6.283   3.094  0.0671  0.0454 -0.4358
 6393TIP3    H143374   6.700   6.224   3.019 -1.2478  1.2721 -1.5987
 6393TIP3    H243375   6.687   6.371   3.056 -1.7019  0.6373  0.9619
 6394TIP3   OH243376   4.721   6.520   0.662  0.0306 -0.5728 -0.3085
 6394TIP3    H143377   4.676   6.562   0.735 -1.3122 -0.9459 -0.8880
 6394TIP3    H243378   4.651   6.496   0.601  1.1152 -0.1224 -1.8028
 6395TIP3   OH243379   3.603   1.335   1.273 -0.4616 -0.6514 -0.0805
 6395TIP3    H143380   3.606   1.241   1.295 -0.1058 -0.5584  0.2894
 6395TIP3    H243381   3.690   1.367   1.297 -0.2230 -0.4385 -1.2028
 6396TIP3   OH243382   2.262   4.603  11.340  0.6163  0.3372 -0.0387
 6396TIP3    H143383   2.265   4.610  11.244 -0.3222  1.6571  0.0141
 6396TIP3    H243384   2.217   4.521  11.356  0.4209  0.2983 -0.7308
 6397TIP3   OH243385   6.411   1.996   0.438 -0.5601 -0.4714  0.2743
 6397TIP3    H143386   6.483   2.033   0.388 -0.7009  1.4233  1.3899
 6397TIP3    H243387   6.451   1.928   0.492  0.0987 -0.4904 -0.2358
 6398TIP3   OH243388   0.918   3.761   3.853  0.3804 -0.1217 -0.0124
 6398TIP3    H143389   0.931   3.697   3.923  0.9289  0.4673  0.4387
 6398TIP3    H243390   1.005   3.797   3.837  0.4879 -1.0448 -1.8012
 6399TIP3   OH243391   2.323   6.023   1.130 -0.3309  0.4003 -0.0546
 6399TIP3    H143392   2.268   5.973   1.190 -0.9167  0.5461 -0.4603
 6399TIP3    H243393   2.397   6.052   1.183 -0.7285  0.3420  0.5380
 6400TIP3   OH243394   0.351   1.820   3.251  0.2570  0.9478 -0.0301
 6400TIP3    H143395   0.369   1.890   3.315  0.1078 -0.1049  1.2103
 6400TIP3    H243396   0.408   1.748   3.279  0.7266  0.7074 -1.5469
 6401TIP3   OH243397   1.060   0.157   4.473 -0.2466 -0.3020  0.0513
 6401TIP3    H143398   0.989   0.183   4.532 -0.0716  0.3910 -0.0475
 6401TIP3    H243399   1.115   0.234   4.464  1.2563 -1.2027  1.1365
 6402TIP3   OH243400   4.109   2.910   3.054 -0.5539  0.2425 -0.3930
 6402TIP3    H143401   4.066   2.832   3.021  0.5397 -0.3801 -0.4073
 6402TIP3    H243402   4.086   2.913   3.147 -0.9871  0.1815 -0.4952
 6403TIP3   OH243403   5.890   4.056   3.156  0.2842 -0.1328 -0.5653
 6403TIP3    H143404   5.796   4.041   3.149  0.0826  0.4170  0.6469
 6403TIP3    H243405   5.903   4.084   3.247  1.7001 -0.8185 -0.5210
 6404TIP3   OH243406   2.063   3.735   2.822  0.2664  0.2230 -0.2408
 6404TIP3    H143407   2.154   3.718   2.846 -0.3655 -3.6522 -0.0476
 6404TIP3    H243408   2.014   3.723   2.903 -0.5960  0.8237 -0.6586
 6405TIP3   OH243409   0.701   3.172   0.919  0.0483  0.2424 -0.3936
 6405TIP3    H143410   0.762   3.203   0.985  0.4634  0.2479 -0.7798
 6405TIP3    H243411   0.619   3.159   0.967 -0.3881  2.7048 -0.3360
 6406TIP3   OH243412   2.773   5.265   3.155  0.4774  0.0941  0.3178
 6406TIP3    H143413   2.691   5.295   3.194  0.0372 -0.7190  0.0527
 6406TIP3    H243414   2.780   5.312   3.073 -0.2111 -0.5142 -0.1003
 6407TIP3   OH243415   1.199   5.621   0.900  0.1915 -0.0671 -0.0580
 6407TIP3    H143416   1.204   5.561   0.974 -0.7365 -0.9066 -0.6540
 6407TIP3    H243417   1.155   5.699   0.935  1.0201  0.1202  0.6075
 6408TIP3   OH243418   4.425   2.484   2.026  0.3502  0.1175  0.3047
 6408TIP3    H143419   4.468   2.540   2.090  0.1896  1.5940 -0.8072
 6408TIP3    H243420   4.471   2.400   2.031  2.7811  1.3410 -0.2116
 6409TIP3   OH243421   3.065   1.955   2.550 -0.4013  0.3321 -0.1817
 6409TIP3    H143422   3.122   2.030   2.530  0.0197  1.0818  3.1080
 6409TIP3    H243423   2.981   1.995   2.573 -0.4895 -0.2608  0.5717
 6410TIP3   OH243424   5.640   3.461   0.972 -0.1343 -0.1417 -0.8439
 6410TIP3    H143425   5.557   3.506   0.989  0.7851  1.6889 -0.9704
 6410TIP3    H243426   5.706   3.530   0.977  1.4654 -1.6508 -0.1913
 6411TIP3   OH243427   4.020   4.027   1.266 -0.4343 -0.0811 -0.2969
 6411TIP3    H143428   3.973   3.985   1.194  0.4461  0.6608 -1.3359
 6411TIP3    H243429   3.959   4.022   1.340 -0.6690 -2.4572 -0.5721
 6412TIP3   OH243430   1.955   3.638   2.492  0.4492  0.5810  0.7620
 6412TIP3    H143431   1.950   3.722   2.446  0.6174  0.6357  0.8431
 6412TIP3    H243432   1.987   3.661   2.579 -0.5476  0.5620  1.1368
 6413TIP3   OH243433   2.366   3.610   1.654  0.0725  0.0952  0.4583
 6413TIP3    H143434   2.362   3.611   1.749 -0.4862 -1.0246  0.4539
 6413TIP3    H243435   2.283   3.571   1.626  1.8012 -3.3356 -0.3354
 6414TIP3   OH243436   2.810   1.696   3.807  0.4148 -0.4100 -0.1335
 6414TIP3    H143437   2.853   1.631   3.863 -0.1569 -2.7696 -2.2522
 6414TIP3    H243438   2.718   1.669   3.805 -0.0662  1.1524 -0.1867
 6415TIP3   OH243439   6.015   0.518   1.448  0.0791  0.3979 -0.3204
 6415TIP3    H143440   5.946   0.521   1.381 -1.5392  0.5129  1.2621
 6415TIP3    H243441   5.967   0.514   1.531  2.0122 -0.1861  0.8270
 6416TIP3   OH243442   1.200   3.083   0.849 -0.0256 -0.1117 -0.1529
 6416TIP3    H143443   1.177   3.123   0.933  0.6328 -1.6492  0.8033
 6416TIP3    H243444   1.295   3.096   0.842  0.1117 -0.9871 -0.0757
 6417TIP3   OH243445   0.350   6.271   1.716 -0.0617  0.2782 -0.9885
 6417TIP3    H143446   0.280   6.222   1.673  1.2831 -1.3149 -1.4688
 6417TIP3    H243447   0.332   6.261   1.810 -0.5881  0.0563 -1.1078
 6418TIP3   OH243448   5.328   2.316   2.974 -0.3200 -0.0055 -0.3862
 6418TIP3    H143449   5.321   2.408   2.947 -1.4050  0.8574  2.4082
 6418TIP3    H243450   5.243   2.278   2.950 -0.6600  0.3097  0.2892
 6419TIP3   OH243451   0.705   4.652   2.832 -0.2529  0.7798  0.3661
 6419TIP3    H143452   0.621   4.696   2.846 -1.1328 -0.7285 -0.0936
 6419TIP3    H243453   0.720   4.657   2.738 -0.2998  0.2095  0.3265
 6420TIP3   OH243454   2.682   5.811   2.748 -0.4743  0.1237 -0.0344
 6420TIP3    H143455   2.674   5.903   2.772 -2.7036  0.0412 -0.2385
 6420TIP3    H243456   2.755   5.809   2.686 -0.3397  1.7339  0.0247
 6421TIP3   OH243457   1.908   6.274   1.945  0.1714  0.7661 -0.1224
 6421TIP3    H143458   1.975   6.215   1.910 -0.0679  0.0087  0.6731
 6421TIP3    H243459   1.829   6.253   1.896 -0.5268 -1.2728  1.7054
 6422TIP3   OH243460   1.150   0.828   4.308 -0.1619 -0.1040  0.1375
 6422TIP3    H143461   1.121   0.880   4.233 -1.2972 -0.6618  0.1602
 6422TIP3    H243462   1.244   0.820   4.297  0.1386  2.3222  0.3854
 6423TIP3   OH243463   4.470   0.952   3.073  0.7422  0.2468 -0.0240
 6423TIP3    H143464   4.421   0.870   3.060 -0.1654  1.0537 -2.0787
 6423TIP3    H243465   4.557   0.933   3.039  0.4763  0.1831 -0.6774
 6424TIP3   OH243466   6.449   6.050   0.927  0.5170  0.3755 -0.2712
 6424TIP3    H143467   6.387   6.114   0.963  1.3887  1.5875 -0.8520
 6424TIP3    H243468   6.414   5.965   0.954  0.1304  1.1369  1.7866
 6425TIP3   OH243469   1.627   1.520   3.067  0.1472  0.2696 -0.3983
 6425TIP3    H143470   1.621   1.615   3.077  1.6588  0.2410  1.2009
 6425TIP3    H243471   1.695   1.494   3.129 -2.9417 -2.3188  2.3018
 6426TIP3   OH243472   0.163   4.894   2.298 -0.6960 -0.0801  0.0954
 6426TIP3    H143473   0.219   4.875   2.374  0.5063 -0.7351 -0.9209
 6426TIP3    H243474   0.122   4.810   2.277  1.5641 -0.7807 -1.9722
 6427TIP3   OH243475   5.563   4.210   1.155 -0.2295 -0.2330 -0.1735
 6427TIP3    H143476   5.641   4.182   1.203 -1.0194  0.3969  1.5588
 6427TIP3    H243477   5.587   4.295   1.119  0.1592 -0.4143 -0.3486
 6428TIP3   OH243478   1.856   5.364   1.609  0.2103 -0.1486 -0.2153
 6428TIP3    H143479   1.922   5.302   1.637  0.3085 -0.6691 -1.5093
 6428TIP3    H243480   1.778   5.311   1.593 -0.7085  0.5142  1.7531
 6429TIP3   OH243481   5.048   5.461   3.041  0.4851  0.2057 -0.3953
 6429TIP3    H143482   4.958   5.429   3.046  1.1493 -1.7862 -0.3258
 6429TIP3    H243483   5.066   5.466   2.948  0.3854  0.3861 -0.4060
 6430TIP3   OH243484   5.837   4.596   1.102  0.2398  0.0974 -0.2661
 6430TIP3    H143485   5.872   4.524   1.155 -1.2116  0.4636  1.2476
 6430TIP3    H243486   5.877   4.675   1.139 -0.0715  0.2825 -0.3230
 6431TIP3   OH243487   6.266   3.191   2.272  0.0908  0.7244  0.0090
 6431TIP3    H143488   6.262   3.250   2.198  0.0820 -0.3289 -0.8528
 6431TIP3    H243489   6.237   3.107   2.238 -1.5756  0.5893  1.6252
 6432TIP3   OH243490   4.073   0.917   3.337  0.3962 -0.4528  0.6923
 6432TIP3    H143491   4.166   0.934   3.327  0.2779  0.4924  1.0717
 6432TIP3    H243492   4.068   0.836   3.388  0.9840 -2.4930 -2.2639
 6433TIP3   OH243493   4.147   1.253   1.799 -0.5742 -0.2926 -0.6998
 6433TIP3    H143494   4.074   1.193   1.810 -0.8312 -0.0795 -1.2326
 6433TIP3    H243495   4.183   1.233   1.713  2.1425 -2.7301  0.8351
 6434TIP3   OH243496   1.273   3.238   3.837  0.3303 -0.1103 -0.1331
 6434TIP3    H143497   1.243   3.176   3.904 -1.0696 -0.2189 -0.8283
 6434TIP3    H243498   1.291   3.319   3.886  0.1368 -0.4358  0.4946
 6435TIP3   OH243499   5.945   5.894   2.765  0.3632 -0.0857  0.1900
 6435TIP3    H143500   5.852   5.882   2.746  0.3803  0.4642 -0.2579
 6435TIP3    H243501   5.990   5.832   2.708  0.3128  0.2553 -0.2264
 6436TIP3   OH243502   4.050   2.315   3.102  0.0586 -0.6781  0.5061
 6436TIP3    H143503   4.037   2.409   3.118  1.2173 -0.6079  1.1488
 6436TIP3    H243504   4.076   2.280   3.187 -0.1847 -1.5571  0.2247
 6437TIP3   OH243505   5.566   3.059   1.931 -0.1328  0.3204  0.3078
 6437TIP3    H143506   5.478   3.093   1.919  0.2091  0.4548 -2.6694
 6437TIP3    H243507   5.616   3.133   1.965 -0.3503  1.5376 -1.8808
 6438TIP3   OH243508   2.958   1.143   4.591 -0.3644 -0.5824 -0.1152
 6438TIP3    H143509   2.969   1.235   4.566 -2.6338 -0.6241 -1.6343
 6438TIP3    H243510   2.996   1.094   4.518  0.1746 -0.8605  0.3431
 6439TIP3   OH243511   5.437   3.602   1.876 -0.7259 -0.3949 -0.3338
 6439TIP3    H143512   5.515   3.652   1.854 -1.2595  0.0469 -1.2603
 6439TIP3    H243513   5.385   3.660   1.931 -0.5010 -0.6201  0.1258
 6440TIP3   OH243514   5.739   2.978   0.992 -0.2955 -0.4123 -0.2854
 6440TIP3    H143515   5.665   2.956   1.048 -0.5155  0.9808 -0.0139
 6440TIP3    H243516   5.721   3.067   0.962  0.1474 -0.8817 -2.0432
 6441TIP3   OH243517   6.098   1.403   3.941  0.4716 -0.9386  0.2116
 6441TIP3    H143518   6.004   1.413   3.953  0.4696 -0.4293 -0.1787
 6441TIP3    H243519   6.109   1.389   3.847  0.7845 -0.9607  0.2506
 6442TIP3   OH243520   4.379   5.177   0.930 -0.3904 -0.3909  0.3293
 6442TIP3    H143521   4.432   5.190   1.008 -3.1307  1.7225  2.0006
 6442TIP3    H243522   4.373   5.082   0.920  2.5432 -0.7069  0.7567
 6443TIP3   OH243523   0.099   3.848   0.830 -0.1347 -0.2816  0.3554
 6443TIP3    H143524   0.036   3.777   0.839 -0.5509  0.1808  1.1777
 6443TIP3    H243525   0.115   3.854   0.736 -0.0705 -1.4708  0.2716
 6444TIP3   OH243526   0.062   2.055   1.758 -0.3859  0.8233  0.1160
 6444TIP3    H143527   0.103   1.983   1.806 -0.5567  0.2080 -0.6402
 6444TIP3    H243528   0.009   2.011   1.692 -0.8133  1.6472 -0.0849
 6445TIP3   OH243529   0.631   3.011   0.572  0.4022 -0.4755 -0.5535
 6445TIP3    H143530   0.549   3.055   0.597  1.1723  1.2819 -0.9913
 6445TIP3    H243531   0.615   2.979   0.483 -0.5757 -2.2470  0.1912
 6446TIP3   OH243532   1.311   4.862   0.773  0.2955 -0.2506 -0.0785
 6446TIP3    H143533   1.402   4.839   0.758 -0.0017 -1.2020 -0.5145
 6446TIP3    H243534   1.262   4.782   0.752 -0.4277 -0.8271  3.2489
 6447TIP3   OH243535   3.344   0.011   1.757 -0.0122 -0.1728 -0.2426
 6447TIP3    H143536   3.255  -0.009   1.785  0.3589 -3.2796 -0.9738
 6447TIP3    H243537   3.365   0.094   1.801 -3.2194  0.6819 -0.1062
 6448TIP3   OH243538   1.329   6.478   3.196  0.1999 -0.0090  0.1464
 6448TIP3    H143539   1.299   6.457   3.285  1.6813 -1.7667  0.2786
 6448TIP3    H243540   1.334   6.574   3.196 -0.6227  0.0799  1.6752
 6449TIP3   OH243541   6.573   3.278   2.378 -0.6787 -0.3943 -0.0150
 6449TIP3    H143542   6.508   3.344   2.352 -1.5285 -1.0909  0.3147
 6449TIP3    H243543   6.530   3.227   2.447 -0.4188 -1.9417 -0.9608
 6450TIP3   OH243544   6.354   6.465   2.221 -0.0324 -0.2276 -0.3301
 6450TIP3    H143545   6.355   6.401   2.293  1.3015  1.6295  1.4427
 6450TIP3    H243546   6.446   6.474   2.196 -0.1688  1.0071 -0.4676
 6451TIP3   OH243547   5.123   2.460   0.862 -0.0248  0.4439  0.2143
 6451TIP3    H143548   5.074   2.433   0.785  0.1487  0.6341  0.0359
 6451TIP3    H243549   5.131   2.555   0.854 -0.0344  0.4696  0.4840
 6452TIP3   OH243550   5.590   0.351   2.541 -0.4626 -0.1555  0.6768
 6452TIP3    H143551   5.580   0.257   2.523 -1.6561  0.2117 -0.8930
 6452TIP3    H243552   5.611   0.389   2.456  1.5980  0.8498  1.5771
 6453TIP3   OH243553   0.136   0.015   2.194 -0.0945 -0.2004 -0.3648
 6453TIP3    H143554   0.205  -0.050   2.205  0.7471  0.8242  0.7117
 6453TIP3    H243555   0.182   0.099   2.192 -1.2230  0.4261 -0.8512
 6454TIP3   OH243556   6.508   3.864   2.383 -0.0459 -0.1591 -0.4211
 6454TIP3    H143557   6.476   3.799   2.446 -0.2673  1.1555  0.8698
 6454TIP3    H243558   6.431   3.917   2.362  0.4651  0.6637 -0.2380
 6455TIP3   OH243559   4.883   6.158   1.007  0.2453 -0.2471  0.0579
 6455TIP3    H143560   4.789   6.165   1.019  0.2694 -1.1016  0.8995
 6455TIP3    H243561   4.908   6.079   1.056  1.5599  0.5863  0.7975
 6456TIP3   OH243562   3.780   6.258   3.410  0.4229 -0.4653  0.2470
 6456TIP3    H143563   3.740   6.186   3.459 -1.1529  0.7577  0.7987
 6456TIP3    H243564   3.863   6.274   3.455  1.0130 -2.2051 -0.1537
 6457TIP3   OH243565   2.458   5.047   3.451 -0.6129  0.2403  0.0178
 6457TIP3    H143566   2.468   4.971   3.508 -0.0001  1.1159  1.1122
 6457TIP3    H243567   2.487   5.016   3.365 -1.6193 -1.1178  0.1190
 6458TIP3   OH243568   0.085   3.503   0.766 -0.3170 -0.2441 -0.0967
 6458TIP3    H143569   0.132   3.540   0.691  0.4333 -0.7614  0.1144
 6458TIP3    H243570   0.013   3.565   0.781  1.5270  1.7677  0.9816
 6459TIP3   OH243571   5.049   3.560   1.260  0.4946  0.8304 -0.4666
 6459TIP3    H143572   5.048   3.650   1.229  1.8027  0.8660 -0.4707
 6459TIP3    H243573   5.122   3.557   1.323  0.8387 -0.3568 -0.8931
 6460TIP3   OH243574   3.959   3.561   2.318 -0.3737 -0.3870  0.0417
 6460TIP3    H143575   4.017   3.536   2.390 -0.2652  0.1497  0.1415
 6460TIP3    H243576   4.017   3.576   2.244 -0.3137  0.7049  0.2884
 6461TIP3   OH243577   6.302   4.088   2.403  0.6847 -0.0881  0.8347
 6461TIP3    H143578   6.293   4.154   2.334  0.4684 -0.6221  0.3346
 6461TIP3    H243579   6.330   4.137   2.480  1.8939  0.4102  0.1210
 6462TIP3   OH243580   2.627   0.292   3.698  0.0601 -0.1875 -0.2569
 6462TIP3    H143581   2.562   0.347   3.655  0.9980 -0.5170 -2.1946
 6462TIP3    H243582   2.585   0.265   3.779 -1.5915  0.8872 -0.6947
 6463TIP3   OH243583   5.100   3.632   2.115 -0.5806 -0.0243 -0.0498
 6463TIP3    H143584   5.006   3.627   2.100 -0.3459  0.3718 -1.7746
 6463TIP3    H243585   5.134   3.686   2.044  0.7441  1.3209  1.5043
 6464TIP3   OH243586   6.279   4.939   2.535 -0.0230  0.2405  0.4205
 6464TIP3    H143587   6.295   4.926   2.442  0.0150  1.0917  0.2989
 6464TIP3    H243588   6.366   4.950   2.573 -0.0887  0.8886  0.3926
 6465TIP3   OH243589   1.509   4.303   3.209  0.1451  0.2800  0.0412
 6465TIP3    H143590   1.532   4.276   3.298  0.8061  0.5520 -0.0422
 6465TIP3    H243591   1.430   4.252   3.189  0.8120 -0.8818  0.2476
 6466TIP3   OH243592   0.115   4.451   1.000 -0.2577  0.7484 -0.0141
 6466TIP3    H143593   0.178   4.520   1.021 -0.5022  1.3128 -1.0431
 6466TIP3    H243594   0.169   4.373   0.984  0.1882  1.2074 -0.8065
 6467TIP3   OH243595   0.943   4.544   3.197  0.2190 -0.2129  0.0110
 6467TIP3    H143596   0.978   4.629   3.222  0.3250 -0.4833  0.7979
 6467TIP3    H243597   0.850   4.548   3.221 -0.5875  0.8070 -2.8227
 6468TIP3   OH243598   5.696   5.296   1.439 -0.1617  0.4375 -0.3504
 6468TIP3    H143599   5.762   5.305   1.508 -0.1550  3.7483 -0.6100
 6468TIP3    H243600   5.614   5.321   1.481 -0.9557 -1.7162 -0.5315
 6469TIP3   OH243601   4.817   2.818   0.875 -0.3013  0.6480 -0.2379
 6469TIP3    H143602   4.900   2.863   0.889  0.4014  0.2501 -2.6640
 6469TIP3    H243603   4.808   2.760   0.950  0.6546  2.0345  1.0187
 6470TIP3   OH243604   1.290   3.188   2.958  0.2907 -0.3717  0.1470
 6470TIP3    H143605   1.257   3.148   3.039  0.5494  0.5844  0.7352
 6470TIP3    H243606   1.241   3.144   2.889 -0.5322 -0.6180  0.8663
 6471TIP3   OH243607   4.180   5.030   3.388 -0.6029  0.4528 -0.3556
 6471TIP3    H143608   4.271   5.028   3.418 -0.2705  1.7384 -1.1800
 6471TIP3    H243609   4.142   5.105   3.433 -1.5531 -0.6560  0.7331
 6472TIP3   OH243610   0.929   0.655   1.404 -0.0372  0.1209  0.1887
 6472TIP3    H143611   0.944   0.606   1.324 -1.6371  1.5055 -1.0381
 6472TIP3    H243612   0.866   0.602   1.453 -0.3269  0.0400 -0.2607
 6473TIP3   OH243613   3.357   0.188   2.973 -0.7826  0.3834 -0.6741
 6473TIP3    H143614   3.352   0.113   3.033 -1.7529  0.0796 -1.1120
 6473TIP3    H243615   3.291   0.249   3.005  0.1656  1.1801 -0.1806
 6474TIP3   OH243616   0.021   3.405   2.013  0.5353 -0.5095  0.3038
 6474TIP3    H143617   0.060   3.420   1.927  1.2326  1.8443  0.9550
 6474TIP3    H243618  -0.043   3.335   1.998  0.9977 -0.5279 -2.0004
 6475TIP3   OH243619   1.408   3.721   1.892  0.2610  1.0249 -0.5188
 6475TIP3    H143620   1.387   3.680   1.975  1.1044  1.9568  0.1721
 6475TIP3    H243621   1.385   3.655   1.826  0.3609 -0.0365  0.4832
 6476TIP3   OH243622   6.228   1.597   1.131  0.1608 -0.2862  0.2145
 6476TIP3    H143623   6.316   1.607   1.167 -0.3222 -0.7966  1.6000
 6476TIP3    H243624   6.171   1.589   1.208 -0.9128 -1.4172 -0.6537
 6477TIP3   OH243625   3.071   1.281   3.004 -0.3187  0.1442  0.5188
 6477TIP3    H143626   3.069   1.208   2.942 -0.1518  1.3008 -0.8883
 6477TIP3    H243627   2.985   1.322   2.996 -0.1976  0.4688  0.8424
 6478TIP3   OH243628   5.378   0.784   2.877 -0.4554 -0.6127 -0.3504
 6478TIP3    H143629   5.292   0.762   2.841 -0.5854  0.8630 -1.0342
 6478TIP3    H243630   5.365   0.869   2.919  0.6549 -0.3649 -0.4764
 6479TIP3   OH243631   4.757   3.536   1.562 -0.4873 -0.8675 -0.2453
 6479TIP3    H143632   4.751   3.606   1.497 -1.5709 -2.7558 -2.2821
 6479TIP3    H243633   4.808   3.467   1.520 -0.7272 -1.9415  1.1398
 6480TIP3   OH243634   2.350   6.685   3.139  0.1183  0.1500  0.3125
 6480TIP3    H143635   2.346   6.664   3.232 -2.1626 -0.7049  0.0811
 6480TIP3    H243636   2.296   6.764   3.130 -1.9924 -1.3119 -0.5986
 6481TIP3   OH243637   2.721   5.856   2.354 -0.0485 -0.2760 -0.4895
 6481TIP3    H143638   2.793   5.849   2.417 -0.2448  1.6403  0.0207
 6481TIP3    H243639   2.759   5.902   2.279 -1.0669  2.2923  0.4701
 6482TIP3   OH243640   1.870   0.214   3.213 -0.6866  1.1427 -0.2008
 6482TIP3    H143641   1.889   0.281   3.146 -2.0897  2.7981  0.9716
 6482TIP3    H243642   1.857   0.264   3.293  0.8874 -0.7988  1.3478
 6483TIP3   OH243643   4.197   1.037   2.125 -0.5951  0.3364  0.4615
 6483TIP3    H143644   4.119   1.043   2.180 -1.2764  1.1777 -0.5710
 6483TIP3    H243645   4.241   1.121   2.136  0.2057 -0.1434  1.0600
 6484TIP3   OH243646   5.457   1.922   2.384  0.8090  0.1064 -0.4617
 6484TIP3    H143647   5.455   1.927   2.480  1.6151  2.0425 -0.4820
 6484TIP3    H243648   5.473   1.830   2.365  1.0276 -0.2580  1.2741
 6485TIP3   OH243649   1.732   3.941   3.292 -0.5415  0.4883  0.5200
 6485TIP3    H143650   1.791   4.010   3.262 -0.6452  0.5342  0.4203
 6485TIP3    H243651   1.783   3.893   3.357 -0.2998  0.3675  0.2492
 6486TIP3   OH243652   4.403   2.053   3.499 -0.2108 -0.3175 -0.4532
 6486TIP3    H143653   4.415   2.147   3.494  0.0643 -0.2833  0.5498
 6486TIP3    H243654   4.338   2.040   3.568 -1.6266 -0.7913 -1.8430
 6487TIP3   OH243655   3.579   1.177   1.542  0.3000  0.2148 -0.0467
 6487TIP3    H143656   3.627   1.260   1.549 -1.1282  1.0689  0.1002
 6487TIP3    H243657   3.574   1.144   1.631 -0.1511  0.5818  0.0657
 6488TIP3   OH243658   0.429   0.031   3.459  0.4181 -0.9882 -0.3512
 6488TIP3    H143659   0.391  -0.037   3.515 -0.1830 -1.7964 -1.6757
 6488TIP3    H243660   0.510  -0.008   3.426  1.6201  0.1004  1.1605
 6489TIP3   OH243661   4.695   6.028   4.031 -0.5021 -0.0838  0.5221
 6489TIP3    H143662   4.778   5.982   4.021 -1.2680 -1.1100 -1.9541
 6489TIP3    H243663   4.667   6.008   4.120  1.4709 -0.4022  1.1212
 6490TIP3   OH243664   4.447   0.877   1.946 -0.0960 -0.5692  0.6977
 6490TIP3    H143665   4.432   0.971   1.957 -1.7653 -0.6725 -0.3259
 6490TIP3    H243666   4.530   0.871   1.899 -0.8635  0.5188 -0.9037
 6491TIP3   OH243667   4.570   3.693   3.061  0.5319  0.2479 -0.2789
 6491TIP3    H143668   4.488   3.653   3.030  0.2816  1.2168 -0.9052
 6491TIP3    H243669   4.576   3.665   3.153 -0.8039  0.6182 -0.0528
 6492TIP3   OH243670   4.348   5.370   1.348  0.2262 -0.4147 -0.6780
 6492TIP3    H143671   4.340   5.459   1.382 -0.1075 -0.5262 -0.4615
 6492TIP3    H243672   4.259   5.334   1.351  0.4683 -0.9980 -0.0901
 6493TIP3   OH243673   5.695   2.212   3.655  0.2016 -0.1110 -0.5759
 6493TIP3    H143674   5.721   2.285   3.712  0.2777 -0.1383 -0.5749
 6493TIP3    H243675   5.600   2.208   3.663 -0.0366  1.3008 -2.1683
 6494TIP3   OH243676   1.583   1.080   1.915  0.4959 -0.6709 -0.7095
 6494TIP3    H143677   1.631   1.058   1.995 -0.0333  1.5727  0.3084
 6494TIP3    H243678   1.496   1.044   1.928  0.4067 -0.2952 -0.2408
 6495TIP3   OH243679   6.235   5.224   3.594 -0.2269  0.2936 -0.2312
 6495TIP3    H143680   6.219   5.309   3.553 -0.4030  0.4866  0.2345
 6495TIP3    H243681   6.214   5.237   3.687  0.3878 -0.0779 -0.0351
 6496TIP3   OH243682   4.194   0.692   2.941 -0.7334 -0.1412 -0.1439
 6496TIP3    H143683   4.099   0.696   2.931 -0.7597  0.0525  0.1702
 6496TIP3    H243684   4.225   0.775   2.905 -0.5986 -0.6258 -1.1603
 6497TIP3   OH243685   0.782   3.624   1.174  0.3429 -0.4484  0.1173
 6497TIP3    H143686   0.736   3.562   1.230  0.0778  0.9764  1.5645
 6497TIP3    H243687   0.718   3.652   1.109  0.0399 -0.6366  0.3384
 6498TIP3   OH243688   2.988   6.555   3.593 -0.8323  0.4881 -0.6192
 6498TIP3    H143689   3.028   6.641   3.607 -0.3529  0.2241 -0.3335
 6498TIP3    H243690   3.044   6.495   3.642 -0.8272 -0.0679 -1.2939
 6499TIP3   OH243691   0.958   0.845   1.614 -0.0649  0.2050 -0.5719
 6499TIP3    H143692   0.974   0.818   1.524 -0.0085 -0.8475 -0.2587
 6499TIP3    H243693   0.926   0.935   1.607  0.7198  0.4287 -1.5847
 6500TIP3   OH243694   5.754   4.177   0.938 -0.1347  0.3897 -0.3566
 6500TIP3    H143695   5.789   4.208   0.854 -2.9830  0.3153 -1.7096
 6500TIP3    H243696   5.715   4.254   0.977  1.3475  0.4639  1.0840
 6501TIP3   OH243697   3.760   0.363   2.325  0.0354  0.5616 -0.5760
 6501TIP3    H143698   3.758   0.303   2.400 -0.0100 -0.5007 -1.4130
 6501TIP3    H243699   3.802   0.314   2.255  1.1522  1.9558 -0.9289
 6502TIP3   OH243700   0.203   3.156   2.120  0.5031  0.9177  0.1627
 6502TIP3    H143701   0.109   3.162   2.133  0.4586  3.9575 -0.8520
 6502TIP3    H243702   0.213   3.108   2.038 -0.2924  2.2317 -0.7280
 6503TIP3   OH243703   1.741   2.111   3.011  0.8123 -0.4143  0.4488
 6503TIP3    H143704   1.768   2.120   3.102  0.4256  0.7563  0.4640
 6503TIP3    H243705   1.653   2.074   3.015  1.6433 -2.5585  0.4496
 6504TIP3   OH243706   0.465   0.783   1.096  0.2176  0.0349  0.5962
 6504TIP3    H143707   0.543   0.769   1.149  0.3526  0.2206  0.4480
 6504TIP3    H243708   0.437   0.872   1.117  0.6475  0.3526 -0.1244
 6505TIP3   OH243709   5.248   3.894   1.004 -0.1889 -0.2303 -0.4895
 6505TIP3    H143710   5.331   3.869   1.045  0.0392 -0.3549 -1.0080
 6505TIP3    H243711   5.259   3.986   0.982 -0.1616 -0.2638 -0.6166
 6506TIP3   OH243712   4.660   4.503   2.159 -0.2967 -0.5181 -0.0452
 6506TIP3    H143713   4.695   4.445   2.227  0.9863 -1.1466 -1.2066
 6506TIP3    H243714   4.726   4.572   2.151 -1.0536  0.2540  0.2052
 6507TIP3   OH243715   4.176   4.606   4.439  0.1607  0.0027 -0.0749
 6507TIP3    H143716   4.249   4.668   4.445  0.2322 -0.1799  1.0485
 6507TIP3    H243717   4.217   4.520   4.443 -0.1066 -0.1032  0.3952
 6508TIP3   OH243718   2.831   1.754   4.089 -0.2541  0.7812 -0.1587
 6508TIP3    H143719   2.910   1.808   4.096 -0.3778  0.7607  1.5757
 6508TIP3    H243720   2.863   1.669   4.057  0.3848  0.8596  0.2704
 6509TIP3   OH243721   4.638   5.333   3.851 -0.6464  0.0345 -0.1700
 6509TIP3    H143722   4.582   5.361   3.924  0.2153  0.1128  0.4716
 6509TIP3    H243723   4.638   5.237   3.857  0.2558  0.0709  0.5827
 6510TIP3   OH243724   3.024   4.684   1.803  0.4166 -0.0608  0.3013
 6510TIP3    H143725   3.061   4.770   1.823 -0.2674  0.1606  0.6400
 6510TIP3    H243726   3.041   4.671   1.709 -0.7778  1.1015 -0.1067
 6511TIP3   OH243727   2.694   5.000   1.732  0.0512  0.5327  0.3222
 6511TIP3    H143728   2.779   5.021   1.769  0.5282  0.5026 -0.7158
 6511TIP3    H243729   2.713   4.967   1.644 -1.0308  0.5284  0.0674
 6512TIP3   OH243730   4.827   1.304   1.956 -0.2171  0.9145 -0.3370
 6512TIP3    H143731   4.860   1.311   2.046  0.1841  2.1005 -0.5577
 6512TIP3    H243732   4.733   1.321   1.964 -0.4580 -0.4830  0.0370
 6513TIP3   OH243733   4.943   6.206   2.657 -0.3251  0.1051  0.0099
 6513TIP3    H143734   5.030   6.235   2.629 -1.3466  2.9064 -0.6106
 6513TIP3    H243735   4.914   6.146   2.587  0.9250 -0.5894  0.0519
 6514TIP3   OH243736   2.258   3.527   3.139  0.2625  0.3706 -0.1426
 6514TIP3    H143737   2.304   3.466   3.082  0.0423  1.4429 -1.5029
 6514TIP3    H243738   2.312   3.530   3.219  0.5397 -1.1856 -0.2436
 6515TIP3   OH243739   6.107   0.883   2.958 -0.5911  0.1428  0.1349
 6515TIP3    H143740   6.157   0.876   2.876  0.6566 -0.2199  0.8983
 6515TIP3    H243741   6.035   0.821   2.947 -1.3514  1.2028 -1.2878
 6516TIP3   OH243742   5.144   5.063   2.086 -0.1904 -0.4647 -0.2584
 6516TIP3    H143743   5.179   4.981   2.050 -0.3545 -0.8561  0.4466
 6516TIP3    H243744   5.050   5.047   2.096  0.2484 -1.7544  3.6824
 6517TIP3   OH243745   1.713   0.315   0.978 -0.1206  0.1726  0.0176
 6517TIP3    H143746   1.716   0.378   0.906 -1.0393  1.8237  1.3645
 6517TIP3    H243747   1.625   0.323   1.013  0.2460 -0.7617  1.2049
 6518TIP3   OH243748   2.645   2.534   3.349 -0.7978 -0.0507 -0.2493
 6518TIP3    H143749   2.701   2.480   3.404 -2.1598 -1.5764 -0.2838
 6518TIP3    H243750   2.576   2.564   3.408 -0.7855  0.5523 -0.5365
 6519TIP3   OH243751   1.829   1.300   2.895  0.4421  0.1731  0.2397
 6519TIP3    H143752   1.842   1.395   2.884  1.4616  0.0953  0.6510
 6519TIP3    H243753   1.736   1.286   2.877  0.2331  1.2838  0.3825
 6520TIP3   OH243754   6.070   5.221   1.696  0.3085 -0.4726 -0.5894
 6520TIP3    H143755   6.053   5.136   1.654 -1.3967  0.4121 -1.8254
 6520TIP3    H243756   6.155   5.210   1.739  0.6198 -2.4684 -1.5856
 6521TIP3   OH243757   6.478   0.383   1.431 -0.0611 -0.2529  0.1845
 6521TIP3    H143758   6.448   0.297   1.401  0.0830  0.3885 -1.9588
 6521TIP3    H243759   6.415   0.445   1.393  1.1018  0.7331 -0.1964
 6522TIP3   OH243760   0.255   2.865   0.686  0.2214 -0.4497 -0.5481
 6522TIP3    H143761   0.300   2.939   0.728 -0.0793  0.7815 -2.2998
 6522TIP3    H243762   0.325   2.802   0.668  1.1460  0.9935 -2.3127
 6523TIP3   OH243763   6.084   4.203   0.659  0.6667 -0.0125 -0.3008
 6523TIP3    H143764   6.150   4.272   0.668  0.2543  0.3334  0.0964
 6523TIP3    H243765   6.135   4.122   0.660  1.0722  0.2429  0.2678
 6524TIP3   OH243766   5.584   2.454   0.847  0.1870  0.2539 -0.0057
 6524TIP3    H143767   5.546   2.512   0.782 -0.4499  1.4894  1.3934
 6524TIP3    H243768   5.530   2.468   0.926  2.2125  0.4369  1.4181
 6525TIP3   OH243769   3.444   1.392   2.179  0.0604  0.4570 -0.7644
 6525TIP3    H143770   3.447   1.309   2.225 -2.3584  1.0355  0.6321
 6525TIP3    H243771   3.416   1.369   2.090  0.7498 -0.3217 -0.7878
 6526TIP3   OH243772   4.787   5.009   4.255  0.5715  0.0047  0.1263
 6526TIP3    H143773   4.815   5.080   4.312  1.0191  0.9876 -1.2681
 6526TIP3    H243774   4.847   5.013   4.180 -0.8045 -0.3965 -1.0342
 6527TIP3   OH243775   0.062   3.289   3.103 -0.1175  0.2745  0.0777
 6527TIP3    H143776   0.104   3.322   3.023  0.3434 -0.7552 -0.1108
 6527TIP3    H243777   0.120   3.317   3.173  0.1733  0.0322 -0.0645
 6528TIP3   OH243778   3.417   1.385   0.589  0.5533 -0.3775  0.0523
 6528TIP3    H143779   3.503   1.351   0.567  1.8182  1.6897  1.4787
 6528TIP3    H243780   3.364   1.307   0.605  2.3581 -1.6911 -0.0744
 6529TIP3   OH243781   4.731   2.126   0.890 -0.2611  0.0964 -0.0541
 6529TIP3    H143782   4.764   2.052   0.839  1.1291  1.3757 -1.0826
 6529TIP3    H243783   4.809   2.173   0.918 -1.0995  0.8040  1.1761
 6530TIP3   OH243784   4.658   0.177   2.273  0.0165  0.0106  0.1322
 6530TIP3    H143785   4.624   0.147   2.188  0.7366 -0.8625  0.1394
 6530TIP3    H243786   4.634   0.269   2.276 -3.1854 -0.7019  0.5396
 6531TIP3   OH243787   1.262   1.309   1.906 -1.1167 -0.0397 -0.1994
 6531TIP3    H143788   1.292   1.301   1.996 -0.1089 -1.0670 -0.6113
 6531TIP3    H243789   1.290   1.397   1.879  0.5701 -0.5450 -0.2074
 6532TIP3   OH243790   4.759   0.823   2.814  0.3553  0.2938 -0.3433
 6532TIP3    H143791   4.671   0.806   2.848  0.3364  0.5369 -0.2700
 6532TIP3    H243792   4.817   0.812   2.890  0.5613 -1.2902 -0.6816
 6533TIP3   OH243793   3.759   3.269   1.730  0.7977 -0.2883 -0.3401
 6533TIP3    H143794   3.830   3.319   1.770  1.4123 -1.2667 -0.1662
 6533TIP3    H243795   3.689   3.270   1.796  0.9428  0.0257 -0.1910
 6534TIP3   OH243796   2.759   5.363   4.258  0.2740 -0.1963 -0.2270
 6534TIP3    H143797   2.691   5.371   4.324  0.2731 -0.4140 -0.2013
 6534TIP3    H243798   2.766   5.269   4.242 -0.2690 -0.0972 -1.0974
 6535TIP3   OH243799   4.017   0.159   1.646 -0.3781  0.4335 -0.7573
 6535TIP3    H143800   4.059   0.073   1.651  1.4260  1.3500  0.9669
 6535TIP3    H243801   3.937   0.150   1.698  0.4885  0.1224  0.5716
 6536TIP3   OH243802   1.138   4.476   0.564  0.4276 -0.0188 -0.0911
 6536TIP3    H143803   1.226   4.514   0.558  0.2862  0.4596  0.7172
 6536TIP3    H243804   1.093   4.529   0.630 -1.6136  1.9999 -2.8731
 6537TIP3   OH243805   1.173   4.004   0.426 -0.3804 -0.0872 -0.2103
 6537TIP3    H143806   1.247   4.056   0.459 -0.9236  1.2447 -1.0171
 6537TIP3    H243807   1.103   4.067   0.413 -2.2363 -1.5277  1.9794
 6538TIP3   OH243808   4.119   0.526   3.883 -0.1221 -0.0644  0.1026
 6538TIP3    H143809   4.160   0.584   3.948 -0.7018  0.9080 -0.3759
 6538TIP3    H243810   4.191   0.471   3.852  0.4096  0.2711  0.6958
 6539TIP3   OH243811   3.423   2.752   3.259  0.0655 -0.5859 -0.6750
 6539TIP3    H143812   3.367   2.743   3.336 -0.7137  2.0555 -0.8330
 6539TIP3    H243813   3.504   2.706   3.282 -0.0120  0.3766  1.8741
 6540TIP3   OH243814   4.581   4.244   3.707 -0.7304  0.5419 -0.5121
 6540TIP3    H143815   4.653   4.287   3.662 -0.2105 -1.8118 -2.1154
 6540TIP3    H243816   4.583   4.279   3.796  1.5448  1.4883 -0.8786
 6541TIP3   OH243817   1.553   5.160   1.921  0.0505 -0.0870 -0.2049
 6541TIP3    H143818   1.534   5.251   1.945 -0.5385 -0.2309 -0.1203
 6541TIP3    H243819   1.630   5.166   1.865  0.0498  0.4606 -0.1557
 6542TIP3   OH243820   3.830   4.267   3.241  0.0112  0.6308  0.5596
 6542TIP3    H143821   3.817   4.194   3.181  0.2457  0.9548  0.1021
 6542TIP3    H243822   3.909   4.310   3.209  2.1267 -1.1287  3.0985
 6543TIP3   OH243823   2.208   0.883   1.689  0.3637 -0.2750  0.0315
 6543TIP3    H143824   2.164   0.960   1.654  1.2052 -0.4112 -1.4022
 6543TIP3    H243825   2.290   0.917   1.725 -0.1242 -0.2546  1.1638
 6544TIP3   OH243826   3.967   2.470   0.578 -0.7986  0.3911  0.2285
 6544TIP3    H143827   3.971   2.400   0.513 -1.5012  0.9940 -0.5016
 6544TIP3    H243828   3.957   2.426   0.662 -0.5115 -0.3926 -0.1452
 6545TIP3   OH243829   3.653   5.646   3.939 -0.7297  0.2842  0.3300
 6545TIP3    H143830   3.677   5.589   3.866 -1.7796  0.9137 -0.5277
 6545TIP3    H243831   3.707   5.615   4.012  0.4863 -0.2305 -0.7475
 6546TIP3   OH243832   3.612   0.115   2.859 -0.3662  0.6548  0.1016
 6546TIP3    H143833   3.520   0.122   2.886  0.0375 -1.4034  2.3831
 6546TIP3    H243834   3.659   0.169   2.923  0.0655  1.3511 -0.7934
 6547TIP3   OH243835   0.489   6.209   4.279 -0.3672 -0.1546  0.3767
 6547TIP3    H143836   0.549   6.270   4.321  0.1268 -0.5580  0.2577
 6547TIP3    H243837   0.498   6.128   4.328 -0.6608 -0.2803  0.2266
 6548TIP3   OH243838   1.678   0.346   4.234  1.0706 -0.5108  0.4672
 6548TIP3    H143839   1.716   0.338   4.322  1.0877 -2.9347  0.3201
 6548TIP3    H243840   1.592   0.305   4.242 -0.4424  2.3550  0.1096
 6549TIP3   OH243841   2.814   4.148   0.972  0.7648 -0.7981 -0.1475
 6549TIP3    H143842   2.809   4.189   0.885 -2.2902  1.5022  0.9531
 6549TIP3    H243843   2.808   4.054   0.954  2.6481 -0.5875 -2.4895
 6550TIP3   OH243844   4.361   4.801   4.477 -0.0049  0.7400 -0.1662
 6550TIP3    H143845   4.292   4.841   4.530 -0.9133  0.8954 -1.4237
 6550TIP3    H243846   4.382   4.867   4.411 -0.8475 -0.4422 -1.6792
 6551TIP3   OH243847   1.208   2.920   4.088  0.2194  0.6247 -0.0432
 6551TIP3    H143848   1.187   2.832   4.056 -0.9976 -0.2205  2.8141
 6551TIP3    H243849   1.147   2.977   4.042  0.4192 -0.0997 -1.2733
 6552TIP3   OH243850   1.344   0.909   2.926  0.5225 -0.7567 -0.1215
 6552TIP3    H143851   1.408   0.845   2.897  1.0360  0.3838 -1.5943
 6552TIP3    H243852   1.342   0.899   3.021  2.0000 -1.6179 -0.1564
 6553TIP3   OH243853   3.868   3.953   3.564 -0.2365  0.3138  0.1650
 6553TIP3    H143854   3.868   3.857   3.554  0.1737  0.3811 -0.5291
 6553TIP3    H243855   3.953   3.973   3.604  0.0368  0.4586 -0.4768
 6554TIP3   OH243856   5.123   2.237   2.243 -0.1830  0.1155  0.3925
 6554TIP3    H143857   5.126   2.246   2.147 -0.5501 -0.6450  0.3006
 6554TIP3    H243858   5.213   2.219   2.268  0.2809  2.2885  0.4180
 6555TIP3   OH243859   4.326   0.956   3.631  0.0865  0.0041 -0.0964
 6555TIP3    H143860   4.355   0.865   3.635 -0.7850 -0.3281 -0.8703
 6555TIP3    H243861   4.241   0.956   3.675 -0.8199  0.0300 -1.7604
 6556TIP3   OH243862   2.128   0.422   2.658  0.0594  0.2263 -0.3370
 6556TIP3    H143863   2.064   0.354   2.679  0.5801 -0.8669 -2.1080
 6556TIP3    H243864   2.153   0.458   2.743 -0.3892 -1.6491  0.6453
 6557TIP3   OH243865   5.396   1.315   1.865  0.4405 -0.2726 -0.2569
 6557TIP3    H143866   5.398   1.337   1.958  0.7842 -1.1544 -0.0430
 6557TIP3    H243867   5.453   1.380   1.824 -0.4351  0.6875  0.0068
 6558TIP3   OH243868   1.443   1.039   1.692 -1.0191  0.9809  0.9359
 6558TIP3    H143869   1.418   0.946   1.692  0.2116  0.3764 -3.6080
 6558TIP3    H243870   1.513   1.045   1.756 -0.3783 -1.5403  0.5932
 6559TIP3   OH243871   3.844   5.025   3.069  0.0003  0.0649  0.0183
 6559TIP3    H143872   3.875   4.972   3.142 -0.2431 -1.7533 -1.1186
 6559TIP3    H243873   3.914   5.018   3.004  0.2132  1.6519  0.0576
 6560TIP3   OH243874   4.913   4.143   1.865  0.1770  0.0314  0.3533
 6560TIP3    H143875   4.839   4.196   1.892  0.8645  0.4248  1.5694
 6560TIP3    H243876   4.939   4.179   1.780 -1.8082 -0.9781 -0.7374
 6561TIP3   OH243877   6.093   5.436   2.239  0.2460 -0.1296 -0.2723
 6561TIP3    H143878   6.038   5.377   2.290 -0.8330  0.3334 -0.8763
 6561TIP3    H243879   6.066   5.422   2.149  0.7376  0.5115 -0.5241
 6562TIP3   OH243880   4.238   3.862   1.337 -0.0677  0.6102 -0.3509
 6562TIP3    H143881   4.166   3.832   1.392  1.1686  0.2876  1.1633
 6562TIP3    H243882   4.196   3.910   1.266 -1.7163  2.5422  1.7661
 6563TIP3   OH243883   4.634   6.254   1.101 -0.4793  0.0163  0.2593
 6563TIP3    H143884   4.577   6.251   1.025  3.1222  0.2899 -2.7028
 6563TIP3    H243885   4.609   6.178   1.154 -1.1083 -2.0424 -2.7819
 6564TIP3   OH243886   4.207   4.916   1.018  0.2692 -0.0029  0.1572
 6564TIP3    H143887   4.281   4.921   1.078  0.4256 -1.0693  0.0855
 6564TIP3    H243888   4.184   4.823   1.017 -0.7143  0.2317 -0.2550
 6565TIP3   OH243889   3.245   6.238   3.074  0.1057  0.4757 -0.0597
 6565TIP3    H143890   3.319   6.298   3.081 -0.4545  1.2426 -0.4463
 6565TIP3    H243891   3.283   6.151   3.076  1.0220  0.8634 -0.3402
 6566TIP3   OH243892   2.193   4.704   2.553  0.0137 -0.2739  0.2874
 6566TIP3    H143893   2.117   4.689   2.497 -1.4046  0.0617  2.0518
 6566TIP3    H243894   2.268   4.688   2.495 -1.3342 -3.4798 -0.8066
 6567TIP3   OH243895   5.389   3.170   0.933 -0.3740 -0.0039 -0.0365
 6567TIP3    H143896   5.440   3.182   1.013 -0.5685 -0.2442  0.1239
 6567TIP3    H243897   5.313   3.118   0.960  1.5094 -3.6849 -1.0609
 6568TIP3   OH243898   3.921   0.726   1.051 -0.4891  0.1230  0.3351
 6568TIP3    H143899   3.874   0.652   1.089 -1.3444  0.3741 -0.2029
 6568TIP3    H243900   3.930   0.788   1.124  2.8309 -1.6368  1.6127
 6569TIP3   OH243901   4.186   3.475   1.370  0.2430 -0.2124 -0.3409
 6569TIP3    H143902   4.181   3.389   1.413  1.0422  0.0743  0.3561
 6569TIP3    H243903   4.272   3.508   1.394 -0.9198  1.7959  1.3020
 6570TIP3   OH243904   6.588   2.085   2.507 -0.5317 -0.1639  0.3060
 6570TIP3    H143905   6.668   2.094   2.559  0.3600 -0.7754 -0.9067
 6570TIP3    H243906   6.591   2.159   2.446 -0.6832 -0.4292 -0.0221
 6571TIP3   OH243907   4.145   5.358   0.831 -0.3901 -0.5631 -0.1638
 6571TIP3    H143908   4.238   5.337   0.833 -0.0038  1.0737  0.5889
 6571TIP3    H243909   4.118   5.355   0.923 -0.8387 -0.0905 -0.2758
 6572TIP3   OH243910   3.130   1.910   2.967  0.2192  0.0564 -0.0735
 6572TIP3    H143911   3.079   1.868   2.898  2.1891 -0.4708 -1.3193
 6572TIP3    H243912   3.167   1.836   3.017  0.6722  0.3735  0.0721
 6573TIP3   OH243913   5.688   3.457   2.606  0.0941 -0.2886  0.0604
 6573TIP3    H143914   5.605   3.434   2.563  0.3437 -2.7368  0.7172
 6573TIP3    H243915   5.665   3.530   2.663 -1.1121  0.4614 -1.2974
 6574TIP3   OH243916   1.272   5.114   2.815 -0.0305 -0.3803 -0.4103
 6574TIP3    H143917   1.199   5.087   2.760  0.2698 -1.4561 -0.3131
 6574TIP3    H243918   1.253   5.075   2.900  0.8803 -1.0651 -0.5111
 6575TIP3   OH243919   5.932   0.030   3.208 -0.2340  0.0409 -0.2031
 6575TIP3    H143920   5.951   0.101   3.269 -0.4838  1.1384 -1.3523
 6575TIP3    H243921   5.965   0.062   3.123 -1.6484 -0.5870 -1.0265
 6576TIP3   OH243922   1.324   1.939   2.216 -0.0814  0.0247 -0.6116
 6576TIP3    H143923   1.367   1.900   2.140  0.7987 -1.2820  0.4853
 6576TIP3    H243924   1.380   1.914   2.290 -1.4841  0.3046  0.5953
 6577TIP3   OH243925   5.020   5.724   3.136 -0.6065  0.4971 -0.0835
 6577TIP3    H143926   4.997   5.632   3.122  0.8710  0.1631 -0.4128
 6577TIP3    H243927   4.953   5.756   3.198 -1.8093 -0.4630 -0.8387
 6578TIP3   OH243928   5.940   0.333   2.807 -0.5155  0.4321  0.4683
 6578TIP3    H143929   5.945   0.418   2.764  0.3928  1.2582  2.1165
 6578TIP3    H243930   5.846   0.318   2.820 -0.8276  0.1797 -1.6296
 6579TIP3   OH243931   3.513   4.179   1.123  0.3137  0.4335  0.3860
 6579TIP3    H143932   3.445   4.246   1.112  0.1944  0.2567  0.0442
 6579TIP3    H243933   3.583   4.207   1.065 -0.5673 -0.8345 -1.3852
 6580TIP3   OH243934   1.544   6.621   2.550 -0.1594  0.5708  0.1907
 6580TIP3    H143935   1.610   6.652   2.488 -0.6434  2.8917  0.7071
 6580TIP3    H243936   1.466   6.607   2.497  0.1153  0.0963 -0.0880
 6581TIP3   OH243937   3.108   6.253   2.822 -0.3580 -0.0728 -0.6629
 6581TIP3    H143938   3.130   6.184   2.885  0.3633  0.1303 -0.6910
 6581TIP3    H243939   3.131   6.334   2.866 -1.0746  0.1463 -0.6882
 6582TIP3   OH243940   3.483   4.117   1.463 -0.3228  0.0076  0.5598
 6582TIP3    H143941   3.475   4.144   1.372 -2.7462  1.1335  1.0153
 6582TIP3    H243942   3.393   4.116   1.496  0.0695 -3.7448  2.0633
 6583TIP3   OH243943   4.638   2.331   1.795  0.0106 -0.0678 -0.3959
 6583TIP3    H143944   4.677   2.313   1.880  0.0119 -0.8182 -0.5462
 6583TIP3    H243945   4.703   2.383   1.749  0.2739 -0.1874 -0.1612
 6584TIP3   OH243946   5.704   2.046   0.417 -0.1332 -0.2378 -0.4609
 6584TIP3    H143947   5.772   2.014   0.358  0.0270 -0.5308 -0.1231
 6584TIP3    H243948   5.747   2.115   0.468 -0.6547  0.9969 -1.6320
 6585TIP3   OH243949   0.506   0.852   2.718 -0.6048  0.7429  0.2848
 6585TIP3    H143950   0.477   0.795   2.789 -3.1485  2.7287  0.9794
 6585TIP3    H243951   0.597   0.873   2.740  0.0371 -1.9909  0.6130
 6586TIP3   OH243952   2.071   4.200   2.233  0.0486  0.3136  0.3476
 6586TIP3    H143953   2.075   4.295   2.221 -0.2708  0.1443 -1.3853
 6586TIP3    H243954   2.019   4.169   2.159 -1.2696 -1.0792  1.7769
 6587TIP3   OH243955   2.902   3.694   3.686  0.4571  0.6439 -0.1304
 6587TIP3    H143956   2.818   3.670   3.726  1.6997 -1.5992  1.3137
 6587TIP3    H243957   2.966   3.685   3.757  2.2742 -0.1319 -1.7709
 6588TIP3   OH243958   0.588   6.542   1.173 -0.1567 -0.1493  0.3752
 6588TIP3    H143959   0.598   6.451   1.199 -1.5337  0.0887  1.9103
 6588TIP3    H243960   0.651   6.589   1.226 -1.0459  0.0270  1.3016
 6589TIP3   OH243961   0.568   4.463   1.688 -0.2008 -0.4102 -0.1197
 6589TIP3    H143962   0.482   4.421   1.680 -2.1455  3.4817 -2.1813
 6589TIP3    H243963   0.619   4.427   1.615 -0.4717 -1.8161  0.3557
 6590TIP3   OH243964   3.376   3.845   0.767 -0.3938 -0.0485  0.2079
 6590TIP3    H143965   3.282   3.846   0.747 -0.5840 -1.5573  0.8622
 6590TIP3    H243966   3.382   3.878   0.857 -0.5009 -1.3727  0.7328
 6591TIP3   OH243967   0.306   5.948   2.207  0.5792  0.3134 -0.0223
 6591TIP3    H143968   0.325   5.957   2.301  1.0764 -0.4177 -0.0441
 6591TIP3    H243969   0.377   5.892   2.174 -0.3656 -0.5785 -0.5725
 6592TIP3   OH243970   1.868   6.145   0.401  0.3777 -0.4352 -0.0325
 6592TIP3    H143971   1.886   6.096   0.321  0.0619 -1.4150  0.4798
 6592TIP3    H243972   1.780   6.118   0.427  1.1365 -1.5014  1.6037
 6593TIP3   OH243973   6.177   4.157   4.226 -0.0322  0.9270  0.5703
 6593TIP3    H143974   6.139   4.189   4.307  0.2443  2.2672  0.1970
 6593TIP3    H243975   6.172   4.231   4.166  1.7283  0.6512  0.0246
 6594TIP3   OH243976   4.794   4.372   3.591 -0.5047 -0.1430  0.0246
 6594TIP3    H143977   4.844   4.451   3.612 -0.3084 -0.1155 -0.5300
 6594TIP3    H243978   4.861   4.305   3.576 -0.6838 -0.7166  1.5834
 6595TIP3   OH243979   2.696   1.603   0.829 -0.3264  0.2897  0.1310
 6595TIP3    H143980   2.667   1.518   0.862  0.2855  0.3772  0.9148
 6595TIP3    H243981   2.706   1.657   0.907  0.2457  0.7856 -0.2793
 6596TIP3   OH243982   5.022   0.890   2.961 -0.2912  0.1028 -0.2453
 6596TIP3    H143983   5.068   0.829   2.903 -0.4117 -0.1307 -0.0969
 6596TIP3    H243984   4.977   0.834   3.024 -0.6984  0.3316 -0.3275
 6597TIP3   OH243985   0.140   1.353   3.497 -0.3639 -0.5253  0.5509
 6597TIP3    H143986   0.152   1.329   3.589  1.2282 -1.4514  0.1410
 6597TIP3    H243987   0.209   1.417   3.480  0.7268 -1.9499 -0.5320
 6598TIP3   OH243988   6.284   5.575   2.662 -0.3796 -0.4357  0.2175
 6598TIP3    H143989   6.354   5.638   2.643  0.0989 -1.0846 -0.2332
 6598TIP3    H243990   6.274   5.526   2.580 -3.1884  1.3460 -0.6538
 6599TIP3   OH243991   1.043   0.503   0.501  0.6959  0.1535 -0.1582
 6599TIP3    H143992   0.967   0.446   0.491  0.5960  0.4296 -1.1385
 6599TIP3    H243993   1.008   0.582   0.543  0.1051  0.8826 -1.9309
 6600TIP3   OH243994   4.070   6.040   1.151 -0.4704  0.4233 -0.5576
 6600TIP3    H143995   4.054   5.962   1.099 -0.3774 -0.4763  0.7055
 6600TIP3    H243996   3.983   6.069   1.180 -0.5695  1.2360 -1.6192
 6601TIP3   OH243997   3.030   0.994   1.436 -0.1770  0.0911  0.0955
 6601TIP3    H143998   2.988   0.908   1.426 -0.2197  0.3004 -2.2604
 6601TIP3    H243999   2.958   1.057   1.425  0.4661  0.4421 -3.5196
 6602TIP3   OH244000   3.770   0.854   3.529  0.4435  0.3435 -0.3561
 6602TIP3    H144001   3.721   0.848   3.447 -0.4132 -0.9007  0.2080
 6602TIP3    H244002   3.805   0.765   3.542  1.0850  0.6832  0.3137
 6603TIP3   OH244003   1.094   5.560   1.856 -1.1585  0.1643  0.6916
 6603TIP3    H144004   1.105   5.560   1.951 -0.4176  0.2450  0.6061
 6603TIP3    H244005   1.028   5.627   1.840 -1.2357  0.2016  1.1413
 6604TIP3   OH244006   1.954   0.253   2.756  0.4401  0.1226  0.4851
 6604TIP3    H144007   1.871   0.224   2.718  0.9936 -0.7106 -0.1217
 6604TIP3    H244008   1.993   0.174   2.793  1.1446  0.4312  0.4174
 6605TIP3   OH244009   2.773   2.114   1.069  0.5118  0.1331 -0.0789
 6605TIP3    H144010   2.690   2.072   1.045 -0.4472  1.9247 -0.1066
 6605TIP3    H244011   2.840   2.062   1.024 -0.4359 -2.1410  0.9683
 6606TIP3   OH244012   6.004   3.945   1.093  0.0120  0.2968 -0.2238
 6606TIP3    H144013   6.070   3.883   1.125 -1.1473 -0.1111  1.5851
 6606TIP3    H244014   6.045   4.031   1.100  0.2224  0.1068  1.4430
 6607TIP3   OH244015   4.905   1.076   1.761 -0.6111 -0.3547  0.1031
 6607TIP3    H144016   4.880   1.125   1.683 -0.1667  0.3030  0.3633
 6607TIP3    H244017   4.883   1.134   1.834 -1.4003 -1.1302  0.4937
 6608TIP3   OH244018   5.788   3.161   2.998 -0.5080 -0.5680 -0.2771
 6608TIP3    H144019   5.755   3.115   3.075 -0.2962  0.6099  0.5569
 6608TIP3    H244020   5.883   3.159   3.007 -0.4873  1.6686  0.8657
 6609TIP3   OH244021   6.351   2.368   2.529  0.3035 -0.1963 -0.4437
 6609TIP3    H144022   6.270   2.347   2.482 -0.5616  1.4188  0.2247
 6609TIP3    H244023   6.421   2.348   2.467 -0.7035 -0.0523 -1.6684
 6610TIP3   OH244024   4.719   5.450  11.625  0.4217 -0.2000  0.3276
 6610TIP3    H144025   4.806   5.485  11.606  0.7913 -0.3322  1.6872
 6610TIP3    H244026   4.711   5.372  11.570  0.5834  0.5973 -0.8569
 6611TIP3   OH244027   3.318   5.971   3.076 -0.2521  0.0523  0.5387
 6611TIP3    H144028   3.271   5.950   2.996  1.9023  0.5170 -0.9482
 6611TIP3    H244029   3.268   5.929   3.146 -1.3875 -1.6566 -1.2119
 6612TIP3   OH244030   0.321   0.498   1.368  0.2347 -0.0688 -0.2527
 6612TIP3    H144031   0.317   0.417   1.319  0.0383  0.5669 -1.3206
 6612TIP3    H244032   0.412   0.527   1.360  0.3469 -0.2646  0.2742
 6613TIP3   OH244033   4.197   0.969   1.387 -0.1352  0.7044 -0.1582
 6613TIP3    H144034   4.186   0.985   1.481 -2.0191  0.7654 -0.3587
 6613TIP3    H244035   4.273   1.022   1.363  1.4550 -0.5907  1.6131
 6614TIP3   OH244036   1.281   0.287   4.698  0.1937 -0.1480  0.3705
 6614TIP3    H144037   1.292   0.338   4.617 -1.8342 -0.5335 -0.2113
 6614TIP3    H244038   1.187   0.269   4.702  0.7516 -3.5716  0.7059
 6615TIP3   OH244039   0.932   0.894   0.995  0.1794 -0.1976 -0.7402
 6615TIP3    H144040   0.875   0.919   1.067  0.6586 -0.8697 -0.1176
 6615TIP3    H244041   0.897   0.941   0.919 -0.8796 -0.2056 -0.2652
 6616TIP3   OH244042   2.067   0.147   1.408 -0.0947 -0.1004 -0.1869
 6616TIP3    H144043   2.152   0.191   1.417 -0.6535  0.8653  0.6316
 6616TIP3    H244044   2.089   0.055   1.397  1.1205  0.3302 -1.8937
 6617TIP3   OH244045   6.257   3.063   2.729  0.0471  0.0941 -0.6080
 6617TIP3    H144046   6.196   3.136   2.740  0.3848  0.1797  0.9247
 6617TIP3    H244047   6.303   3.082   2.647 -0.1826  1.3545 -0.4628
 6618TIP3   OH244048   6.145   1.964   1.268 -0.7233  0.1521  0.5651
 6618TIP3    H144049   6.087   1.909   1.215  0.1153  0.4665 -0.7377
 6618TIP3    H244050   6.154   2.045   1.218 -0.4254  0.7350  1.5306
 6619TIP3   OH244051   6.509   1.022   0.662 -0.2472 -0.4110  0.9090
 6619TIP3    H144052   6.570   0.996   0.731  0.3964 -0.0854  0.4760
 6619TIP3    H244053   6.563   1.072   0.600 -1.1117  0.5456  0.9032
 6620TIP3   OH244054   3.129   2.510   3.105  0.1535 -0.3282 -0.0126
 6620TIP3    H144055   3.050   2.562   3.121  0.1675 -0.0826 -0.6883
 6620TIP3    H244056   3.121   2.435   3.164  0.7233  1.0259  1.8752
 6621TIP3   OH244057   3.304   5.841   0.749 -0.0294  0.2422  0.2054
 6621TIP3    H144058   3.279   5.758   0.709 -0.8769  0.4652  0.2471
 6621TIP3    H244059   3.220   5.887   0.763  0.3966  0.9337  0.5378
 6622TIP3   OH244060   2.792   3.138   1.161  0.1590 -0.1797 -0.5315
 6622TIP3    H144061   2.724   3.161   1.097  0.7586  2.1090 -0.4499
 6622TIP3    H244062   2.743   3.113   1.239 -0.5789 -0.6571 -1.1283
 6623TIP3   OH244063   5.566   6.012   2.939 -0.2307 -0.5331 -0.3033
 6623TIP3    H144064   5.565   6.105   2.960  1.8178 -0.8552  1.5166
 6623TIP3    H244065   5.490   5.976   2.985 -0.5494  0.1063 -0.3273
 6624TIP3   OH244066   1.086   5.388   3.855  0.1384  0.5475 -0.0863
 6624TIP3    H144067   1.004   5.390   3.905 -0.4794 -0.1555 -1.0365
 6624TIP3    H244068   1.082   5.307   3.805  1.8945 -0.0034  0.5963
 6625TIP3   OH244069   5.542   6.449   1.142  0.5548  0.2538  0.3289
 6625TIP3    H144070   5.605   6.490   1.201  2.4769 -1.5486 -0.3459
 6625TIP3    H244071   5.577   6.361   1.127 -0.2254  0.3875 -2.9589
 6626TIP3   OH244072   5.598   2.707   2.602  0.7696 -0.3047 -0.3422
 6626TIP3    H144073   5.515   2.686   2.645  0.4437 -0.6560 -1.1105
 6626TIP3    H244074   5.574   2.776   2.539  0.8889 -0.9682 -1.1285
 6627TIP3   OH244075   5.373   4.161   0.937  0.0143 -0.5083  0.0179
 6627TIP3    H144076   5.426   4.166   1.017  0.1646  1.6850 -0.1772
 6627TIP3    H244077   5.353   4.252   0.916 -3.4702 -1.1905 -0.1657
 6628TIP3   OH244078   2.230   2.269   3.495 -0.2375  0.2934 -0.1323
 6628TIP3    H144079   2.311   2.263   3.546 -0.9320 -0.6995  0.9136
 6628TIP3    H244080   2.162   2.236   3.554 -1.4206  1.1428 -0.9733
 6629TIP3   OH244081   4.033   4.332   3.084  0.2249  0.1382 -0.2613
 6629TIP3    H144082   4.011   4.403   3.024  1.2165 -0.0033 -0.8150
 6629TIP3    H244083   4.039   4.255   3.028  2.5381  0.2506 -0.2443
 6630TIP3   OH244084   0.097   2.833   2.599  0.0502 -0.1902  0.3446
 6630TIP3    H144085   0.142   2.892   2.659 -0.0998  0.2392  0.0364
 6630TIP3    H244086   0.085   2.884   2.519  1.2829 -1.1212 -0.4803
 6631TIP3   OH244087   3.410   5.170   3.101  0.0051  0.3795 -0.1361
 6631TIP3    H144088   3.405   5.174   3.197 -0.1943 -0.8674 -0.0752
 6631TIP3    H244089   3.321   5.188   3.071 -0.0848  0.0926 -0.0481
 6632TIP3   OH244090   6.417   0.945   2.932  0.1006 -0.1628 -0.2107
 6632TIP3    H144091   6.469   0.993   2.868  2.0447 -1.0032  0.6641
 6632TIP3    H244092   6.481   0.894   2.982 -1.5856 -1.3408  0.8567
 6633TIP3   OH244093   6.229   0.434   0.595  0.4129  0.4868 -0.4252
 6633TIP3    H144094   6.292   0.369   0.627  0.2873  0.7578  0.4059
 6633TIP3    H244095   6.281   0.494   0.542  0.7205  0.2995 -0.3390
 6634TIP3   OH244096   0.453   0.474   2.932 -0.5121 -0.1374 -0.3720
 6634TIP3    H144097   0.467   0.390   2.889 -1.2637  0.5693 -2.0748
 6634TIP3    H244098   0.382   0.515   2.882  0.7324  2.0720 -0.4424
 6635TIP3   OH244099   2.532   5.753   2.045  0.3300  0.4482 -0.4831
 6635TIP3    H144100   2.609   5.704   2.015  0.1000 -0.1940 -0.0382
 6635TIP3    H244101   2.551   5.843   2.020  0.1144 -0.0578 -2.6219
 6636TIP3   OH244102   1.297   1.932   1.760  0.6530 -0.3920  0.4720
 6636TIP3    H144103   1.224   1.991   1.782 -0.3603 -1.5697  0.3875
 6636TIP3    H244104   1.269   1.889   1.679  2.7069  1.1711 -1.1482
 6637TIP3   OH244105   6.517   5.166   3.438 -0.2206 -0.6324  0.1928
 6637TIP3    H144106   6.548   5.108   3.368  1.5593  0.7157 -0.1962
 6637TIP3    H244107   6.428   5.189   3.412  0.2034 -0.6119 -1.3511
 6638TIP3   OH244108   1.605   6.123   0.454 -0.4621  0.0541 -0.6628
 6638TIP3    H144109   1.545   6.080   0.514 -0.1070  0.5691  0.0707
 6638TIP3    H244110   1.593   6.216   0.470  2.0558  0.1754  1.0676
 6639TIP3   OH244111   6.005   0.418   3.767 -0.1956  0.2291  0.5633
 6639TIP3    H144112   6.080   0.394   3.821 -0.0045  0.9870  0.6445
 6639TIP3    H244113   5.956   0.337   3.755  0.6096 -0.2566  0.5592
 6640TIP3   OH244114   5.459   3.632   1.358 -0.0186 -0.0546 -0.2386
 6640TIP3    H144115   5.374   3.673   1.373  1.1091  1.8828  1.3517
 6640TIP3    H244116   5.441   3.559   1.299 -2.6709  0.6623 -0.4130
 6641TIP3   OH244117   0.572   2.609   1.923  0.2851 -0.8954  0.5755
 6641TIP3    H144118   0.630   2.613   1.999  0.2862 -2.4814  0.7013
 6641TIP3    H244119   0.489   2.576   1.957 -1.0677  2.1388  0.5456
 6642TIP3   OH244120   6.446   6.419   1.323 -0.2978 -0.0418 -1.0575
 6642TIP3    H144121   6.354   6.444   1.328 -0.0781  1.0614 -2.0579
 6642TIP3    H244122   6.456   6.380   1.236  0.0695 -0.6534 -0.7483
 6643TIP3   OH244123   4.906   5.068   1.122  0.3008  0.4476  0.1971
 6643TIP3    H144124   4.851   5.068   1.201  0.8104  0.4425  0.5566
 6643TIP3    H244125   4.893   5.155   1.084  1.8427  1.3325  1.5615
 6644TIP3   OH244126   4.900   6.425   0.940  0.4799 -0.1056  0.2852
 6644TIP3    H144127   4.898   6.337   0.979  2.3782 -1.0354 -1.4733
 6644TIP3    H244128   4.885   6.409   0.847 -2.0607  1.8269  0.2671
 6645TIP3   OH244129   4.528   0.454   2.480 -0.4192  0.1869 -0.4171
 6645TIP3    H144130   4.523   0.500   2.563  1.5081 -0.7431  0.2711
 6645TIP3    H244131   4.437   0.438   2.456 -1.0233  0.6487  1.4166
 6646TIP3   OH244132   4.376   6.615   3.239 -0.8922 -0.0779  0.4790
 6646TIP3    H144133   4.427   6.677   3.187 -1.9404  1.5984  1.3583
 6646TIP3    H244134   4.285   6.628   3.210 -0.9173 -3.0947 -1.1485
 6647TIP3   OH244135   5.998   1.774   1.114 -0.5463  0.0892 -0.3512
 6647TIP3    H144136   5.923   1.716   1.125  1.4512 -2.7017 -0.3289
 6647TIP3    H244137   6.074   1.715   1.108  1.5753  2.6783 -1.3401
 6648TIP3   OH244138   5.647   0.972   3.693 -0.2892  0.9434  0.4217
 6648TIP3    H144139   5.702   0.984   3.771  0.4797 -0.7355  0.1643
 6648TIP3    H244140   5.641   0.877   3.682  1.8293  1.0572 -3.0814
 6649TIP3   OH244141   0.518   5.124   1.850  0.2826  0.4116 -0.2789
 6649TIP3    H144142   0.462   5.084   1.917 -1.5086 -0.0629 -1.9701
 6649TIP3    H244143   0.458   5.177   1.797  1.2709 -0.6120 -2.5456
 6650TIP3   OH244144   5.206   3.512   2.564 -0.1564 -0.1646  0.1039
 6650TIP3    H144145   5.138   3.562   2.520  0.2078  0.7700  0.5574
 6650TIP3    H244146   5.170   3.492   2.651 -0.6521 -1.5060 -0.3858
 6651TIP3   OH244147   3.585   2.688   1.460 -0.8271 -0.3327  0.5298
 6651TIP3    H144148   3.637   2.620   1.416 -1.0010  1.4815 -2.7649
 6651TIP3    H244149   3.501   2.686   1.415 -0.7651  2.1477  0.2135
 6652TIP3   OH244150   2.678   1.470   3.541 -0.4328 -0.0060  0.4043
 6652TIP3    H144151   2.640   1.526   3.610 -0.0311  0.2243  0.4398
 6652TIP3    H244152   2.649   1.382   3.564 -0.9649  0.1657  0.4229
 6653TIP3   OH244153   3.504   5.499   4.486  0.7056  0.2780  0.1575
 6653TIP3    H144154   3.490   5.404   4.485  1.4967  0.1548 -0.7538
 6653TIP3    H244155   3.420   5.536   4.513  0.4901 -0.6928  0.8604
 6654TIP3   OH244156   6.046   0.880   1.264  0.1820 -0.1368  0.0339
 6654TIP3    H144157   6.065   0.942   1.194  0.4338  0.1999  0.3937
 6654TIP3    H244158   6.096   0.802   1.242 -0.5733 -0.4266 -0.7170
 6655TIP3   OH244159   0.889   1.567   0.675  0.8008  0.1691  0.1926
 6655TIP3    H144160   0.802   1.602   0.694  0.8377  0.4659 -0.1756
 6655TIP3    H244161   0.945   1.644   0.669  1.0259 -0.0016  0.1102
 6656TIP3   OH244162   3.897   5.602   2.526 -0.1622 -0.1177  0.2244
 6656TIP3    H144163   3.819   5.653   2.546 -1.1303 -1.1610 -0.7704
 6656TIP3    H244164   3.934   5.642   2.448 -0.2103 -0.1650  0.1771
 6657TIP3   OH244165   1.101   3.493   3.672  0.2899 -0.1098 -0.3386
 6657TIP3    H144166   1.119   3.470   3.763 -0.9443 -0.0356 -0.0624
 6657TIP3    H244167   1.169   3.557   3.650 -0.4579  1.2445  1.1088
 6658TIP3   OH244168   4.291   3.200   1.513  0.6671  0.5911 -0.3202
 6658TIP3    H144169   4.229   3.182   1.584  0.3291  2.1591 -0.1677
 6658TIP3    H244170   4.267   3.140   1.443 -1.3239  1.4480 -0.4191
 6659TIP3   OH244171   5.081   1.092   1.325  0.6043  0.7071  0.3724
 6659TIP3    H144172   5.129   1.170   1.298  2.2912 -0.3485  0.1360
 6659TIP3    H244173   5.083   1.036   1.248 -1.9755  1.0118  0.0047
 6660TIP3   OH244174   5.875   2.753   2.629  0.1125 -0.2451  0.2753
 6660TIP3    H144175   5.780   2.753   2.628  0.1021  0.0573  0.7690
 6660TIP3    H244176   5.899   2.822   2.691  0.6406 -0.7296  0.6323
 6661TIP3   OH244177   4.968   0.799   3.541  0.3421 -0.6362 -0.1374
 6661TIP3    H144178   4.906   0.844   3.485 -1.3932 -0.0260  2.1281
 6661TIP3    H244179   4.923   0.718   3.567 -0.1735  0.4015  2.5471
 6662TIP3   OH244180   4.437   4.407   2.469 -0.0599 -0.0428 -0.4585
 6662TIP3    H144181   4.500   4.478   2.458  0.1858 -0.2427 -0.3308
 6662TIP3    H244182   4.353   4.446   2.444 -0.3044  0.9624  1.6934
 6663TIP3   OH244183   1.011   3.919   3.130  0.5951 -0.5173  0.0651
 6663TIP3    H144184   0.975   3.834   3.105  1.1393 -0.7331  0.0116
 6663TIP3    H244185   0.942   3.982   3.106  1.1812 -0.6717 -2.3195
 6664TIP3   OH244186   6.166   6.654   0.975  0.1844  0.2593 -0.2659
 6664TIP3    H144187   6.157   6.748   0.963 -0.1085  0.1786 -0.7385
 6664TIP3    H244188   6.107   6.616   0.910  1.1834 -0.2698 -0.8889
 6665TIP3   OH244189   3.622   2.573   0.674  0.0245  0.2252  0.2019
 6665TIP3    H144190   3.528   2.565   0.658 -0.1329  1.6345  0.2356
 6665TIP3    H244191   3.652   2.484   0.694 -1.0269 -0.4891 -1.2442
 6666TIP3   OH244192   1.495   6.064   2.035  0.2123 -0.2927 -0.1073
 6666TIP3    H144193   1.575   6.080   2.085  0.8046  1.7655 -1.5682
 6666TIP3    H244194   1.424   6.071   2.099  1.0294  0.9678  0.6913
 6667TIP3   OH244195   3.271   5.013   2.792 -0.0861  0.2845  0.3494
 6667TIP3    H144196   3.283   4.998   2.885  0.9338  0.9440  0.3339
 6667TIP3    H244197   3.294   5.105   2.778 -1.2888  0.5046 -0.3839
 6668TIP3   OH244198   0.281   1.459   0.663  0.5320  0.4042 -0.0189
 6668TIP3    H144199   0.317   1.370   0.670  0.0852  0.2600  0.5495
 6668TIP3    H244200   0.314   1.504   0.741 -0.6375  0.2175  0.6043
 6669TIP3   OH244201   0.826   0.628   0.996  0.3347  0.2234 -0.6899
 6669TIP3    H144202   0.849   0.721   0.993 -1.7582  0.7661 -1.0419
 6669TIP3    H244203   0.902   0.586   1.037  0.9275  2.1977  0.3583
 6670TIP3   OH244204   1.550   2.897   0.523 -0.4340 -0.1119  0.0740
 6670TIP3    H144205   1.593   2.902   0.609 -0.7997 -0.3753  0.2789
 6670TIP3    H244206   1.530   2.987   0.501 -1.1585 -0.1053  0.6989
 6671TIP3   OH244207   2.496   0.266   4.647 -0.4336 -0.4319 -0.3441
 6671TIP3    H144208   2.516   0.227   4.562 -0.4329 -1.1844 -0.0079
 6671TIP3    H244209   2.561   0.336   4.657 -0.6853 -0.0795 -1.1310
 6672TIP3   OH244210   0.894   6.654   0.974  0.3467 -0.7004 -0.5900
 6672TIP3    H144211   0.970   6.691   1.017 -0.3799 -0.9626  1.0069
 6672TIP3    H244212   0.824   6.661   1.039 -1.3299  0.6857 -2.4359
 6673TIP3   OH244213   6.347   4.641   0.674  0.1629 -0.0030 -0.1809
 6673TIP3    H144214   6.433   4.638   0.631 -0.8880  1.1622 -2.5386
 6673TIP3    H244215   6.290   4.685   0.610 -2.6113 -2.2519  0.5595
 6674TIP3   OH244216   6.210   5.811   2.373  0.5624 -0.3724  0.4827
 6674TIP3    H144217   6.217   5.857   2.289 -0.4778 -0.5244  0.3023
 6674TIP3    H244218   6.117   5.816   2.395  0.8930  0.0551  1.8554
 6675TIP3   OH244219   2.636   1.850   2.217 -0.0423 -0.4461  0.2185
 6675TIP3    H144220   2.543   1.857   2.235  0.2195  1.0842  1.1834
 6675TIP3    H244221   2.650   1.909   2.143  0.3556  0.3568  0.9212
 6676TIP3   OH244222   0.534   4.119   1.632  0.0375 -0.0198  0.0041
 6676TIP3    H144223   0.445   4.152   1.643  0.8986  2.4603  0.2228
 6676TIP3    H244224   0.548   4.061   1.707 -1.3723 -0.4796 -0.0547
 6677TIP3   OH244225   3.622   1.922   1.532 -0.6800  0.2379 -0.2255
 6677TIP3    H144226   3.671   1.978   1.472 -0.9286 -0.6923 -1.3377
 6677TIP3    H244227   3.545   1.974   1.556 -0.8459  0.4392 -1.1431
 6678TIP3   OH244228   0.864   1.659   1.364  0.8165 -0.3736 -0.1069
 6678TIP3    H144229   0.936   1.608   1.327 -0.1230 -0.5435 -1.8385
 6678TIP3    H244230   0.887   1.750   1.347  1.7659 -0.2556  1.6036
 6679TIP3   OH244231   5.560   1.884   0.576 -0.0255  0.2299 -0.3061
 6679TIP3    H144232   5.490   1.941   0.607  2.1062  2.3027  1.0497
 6679TIP3    H244233   5.602   1.933   0.505  0.3330 -0.7745 -0.8091
 6680TIP3   OH244234   6.236   3.177   0.614  0.3478  0.4909  0.5732
 6680TIP3    H144235   6.248   3.245   0.548  1.1210  0.0965  0.2908
 6680TIP3    H244236   6.201   3.102   0.566  0.1522  0.4629  0.7578
 6681TIP3   OH244237   5.836   4.786   1.437 -0.0920  0.1478  0.7379
 6681TIP3    H144238   5.894   4.785   1.361 -0.1306  0.5042  0.6982
 6681TIP3    H244239   5.800   4.875   1.437 -0.1291  0.1341  1.1433
 6682TIP3   OH244240   3.679   5.440   0.800  0.4280 -0.1079  0.5070
 6682TIP3    H144241   3.631   5.491   0.866  0.6123  2.6728 -1.3541
 6682TIP3    H244242   3.634   5.356   0.798 -3.3353  1.6958  0.1520
 6683TIP3   OH244243   3.091   4.684   3.704 -0.2867  0.3631  0.7365
 6683TIP3    H144244   3.160   4.681   3.637 -0.6186 -0.9007  0.4225
 6683TIP3    H244245   3.058   4.595   3.708 -3.2241  1.2832 -0.4795
 6684TIP3   OH244246   1.909   4.283   2.858  0.3489  0.0292  0.0883
 6684TIP3    H144247   1.828   4.272   2.907  0.3083  1.5163  0.4014
 6684TIP3    H244248   1.884   4.272   2.766 -0.0507 -0.2895  0.2348
 6685TIP3   OH244249   5.786   1.154   1.211 -0.3024  0.1816 -0.0819
 6685TIP3    H144250   5.830   1.207   1.145 -0.0253 -0.8965 -0.7870
 6685TIP3    H244251   5.840   1.163   1.290  0.5139 -0.1430 -0.5908
 6686TIP3   OH244252   0.419   6.297   1.050 -0.3670  0.2325  0.5144
 6686TIP3    H144253   0.469   6.349   1.114 -2.5182 -0.8347  3.2553
 6686TIP3    H244254   0.341   6.269   1.098 -0.7033 -3.1419 -1.7142
 6687TIP3   OH244255   2.604   2.757   2.101  0.1531 -0.1340  0.2873
 6687TIP3    H144256   2.655   2.749   2.020 -1.2175 -1.4723 -0.4964
 6687TIP3    H244257   2.592   2.667   2.131 -0.3833  0.2697  1.3286
 6688TIP3   OH244258   3.431   0.210   3.848  0.3436 -0.2399  0.1537
 6688TIP3    H144259   3.459   0.262   3.772 -0.6517  0.0893  0.0026
 6688TIP3    H244260   3.462   0.259   3.924 -1.3797  1.1074  0.0475
 6689TIP3   OH244261   2.203   2.152   3.235 -0.3915 -0.2995  0.2810
 6689TIP3    H144262   2.215   2.207   3.313 -0.9808  1.0045 -0.5241
 6689TIP3    H244263   2.292   2.123   3.213  0.0731  1.1507  0.1524
 6690TIP3   OH244264   2.797   5.176   4.861  0.3302  0.1132  1.0042
 6690TIP3    H144265   2.869   5.215   4.911  0.5501 -0.9792  1.5486
 6690TIP3    H244266   2.831   5.092   4.830 -0.1827  0.2796 -0.0764
 6691TIP3   OH244267   0.333   2.796   2.396 -0.1063 -0.1277 -0.5344
 6691TIP3    H144268   0.382   2.770   2.319  1.3259 -0.7782  0.5549
 6691TIP3    H244269   0.305   2.713   2.436 -1.0236  0.2024 -0.4710
 6692TIP3   OH244270   0.036   4.958   3.834 -0.1387 -0.0958 -0.3780
 6692TIP3    H144271   0.080   4.875   3.853  1.1385  0.2677 -1.5625
 6692TIP3    H244272  -0.057   4.937   3.834  0.1301 -1.3543  0.1069
 6693TIP3   OH244273   2.421   2.596   3.532  0.1461 -0.3599  0.2523
 6693TIP3    H144274   2.443   2.510   3.566  1.4926 -0.8118 -1.5579
 6693TIP3    H244275   2.332   2.588   3.498  0.1857 -0.9833  0.2991
 6694TIP3   OH244276   3.467   0.309   3.580 -0.4162  0.0733  0.5438
 6694TIP3    H144277   3.388   0.356   3.554  0.4916  0.9395 -0.7296
 6694TIP3    H244278   3.468   0.231   3.525  1.4137  1.8208 -2.1464
 6695TIP3   OH244279   5.355   2.415   1.001  0.6713  0.1931 -0.7099
 6695TIP3    H144280   5.284   2.443   0.944  1.3455 -1.1782 -2.2787
 6695TIP3    H244281   5.326   2.330   1.036  1.5425 -0.4042 -1.4079
 6696TIP3   OH244282   1.036   0.618   4.458  0.0226 -0.0685  0.3170
 6696TIP3    H144283   1.084   0.679   4.402 -0.0684  0.4083  0.7524
 6696TIP3    H244284   0.974   0.576   4.400  0.7639 -0.4848 -0.1964
 6697TIP3   OH244285   1.966   3.327   3.787 -0.3881 -0.1487  0.4873
 6697TIP3    H144286   1.986   3.408   3.832  0.9767 -0.3687  0.3268
 6697TIP3    H244287   2.052   3.293   3.760 -1.1137  0.1628 -2.6019
 6698TIP3   OH244288   6.125   6.186   1.505  0.0933 -0.1130 -0.2322
 6698TIP3    H144289   6.099   6.187   1.597  0.8706  1.5217 -0.0010
 6698TIP3    H244290   6.217   6.159   1.507  0.2748  0.4789 -0.4700
 6699TIP3   OH244291   1.767   4.778   1.505 -0.1418 -0.3706  0.3337
 6699TIP3    H144292   1.818   4.858   1.494  1.0203 -1.0255  0.7300
 6699TIP3    H244293   1.770   4.761   1.599 -2.3745  0.3612  0.5922
 6700TIP3   OH244294   6.534   0.899   2.447  0.0992  0.4253 -0.0187
 6700TIP3    H144295   6.470   0.835   2.477 -0.6041  1.6500  1.2233
 6700TIP3    H244296   6.592   0.850   2.389 -1.2337 -0.9945 -0.2096
 6701TIP3   OH244297   0.330   4.952   2.048  0.3408 -0.2807 -0.5284
 6701TIP3    H144298   0.408   4.916   2.090  0.4085  0.5265  0.0616
 6701TIP3    H244299   0.257   4.926   2.104  0.3897  0.4650 -0.1014
 6702TIP3   OH244300   0.957   6.319   1.068  0.0288 -0.2008  0.3047
 6702TIP3    H144301   0.919   6.362   0.991 -0.7276 -1.6215 -0.1692
 6702TIP3    H244302   0.935   6.376   1.141 -2.4305 -0.5476 -0.0607
 6703TIP3   OH244303   1.904   4.446   1.089  0.9377  0.1070  0.0235
 6703TIP3    H144304   1.893   4.358   1.052 -1.6727  0.2591  0.2600
 6703TIP3    H244305   1.879   4.505   1.018 -0.5036  0.5196  0.8321
 6704TIP3   OH244306   2.866   5.415   1.335  0.9892  0.0415  0.1510
 6704TIP3    H144307   2.887   5.369   1.415  1.6574 -0.7164 -0.4472
 6704TIP3    H244308   2.773   5.437   1.343  0.6534 -1.3956  0.4650
 6705TIP3   OH244309   1.010   6.262   2.865  0.1766 -0.0634 -0.3694
 6705TIP3    H144310   1.000   6.194   2.931  0.1054 -0.0415 -0.3583
 6705TIP3    H244311   1.083   6.316   2.896 -1.5834  1.5811  1.0866
 6706TIP3   OH244312   1.158   0.439   3.284  0.5908 -0.0740  0.3738
 6706TIP3    H144313   1.071   0.458   3.248  0.2597  0.9642  1.6361
 6706TIP3    H244314   1.176   0.513   3.342  2.6596  0.1178 -0.4386
 6707TIP3   OH244315   2.300   0.043   0.617 -0.0714  0.6651 -0.5057
 6707TIP3    H144316   2.239   0.002   0.556 -0.7513  0.4227  0.3269
 6707TIP3    H244317   2.245   0.081   0.685  0.6626  1.1929 -0.1948
 6708TIP3   OH244318   1.884   3.849   3.525  0.1168  0.0754  0.1027
 6708TIP3    H144319   1.871   3.772   3.581 -0.6381 -0.6156 -0.9960
 6708TIP3    H244320   1.977   3.849   3.505 -0.0418 -1.1510 -0.7118
 6709TIP3   OH244321   4.910   0.276   1.878  0.4720 -0.1448 -0.1825
 6709TIP3    H144322   4.830   0.326   1.892  0.1402  0.0011 -2.2302
 6709TIP3    H244323   4.971   0.306   1.946  0.2710  3.0180 -1.2629
 6710TIP3   OH244324   2.098   4.987   2.959 -0.4222 -0.2158 -0.1974
 6710TIP3    H144325   2.153   4.927   2.909 -0.3900  1.6219 -2.4913
 6710TIP3    H244326   2.119   4.967   3.051  3.8210  0.1442 -0.8943
 6711TIP3   OH244327   1.663   3.984   1.581  0.4283  0.1193  0.1571
 6711TIP3    H144328   1.731   3.968   1.516 -1.5255 -0.3541 -1.8679
 6711TIP3    H244329   1.609   4.054   1.544 -1.2363 -0.7475  0.8495
 6712TIP3   OH244330   0.877   5.382   2.087  0.1446  0.3135 -0.1018
 6712TIP3    H144331   0.796   5.341   2.117 -0.6071  1.0493 -1.0353
 6712TIP3    H244332   0.887   5.351   1.997  1.4905 -0.6028  0.3410
 6713TIP3   OH244333   5.912   6.518   1.980 -0.3356  0.5630 -0.0914
 6713TIP3    H144334   5.990   6.488   2.027  0.3002  0.1506 -1.3700
 6713TIP3    H244335   5.850   6.445   1.990 -0.9344  1.2445  1.6747
 6714TIP3   OH244336   6.175   6.592   0.325 -0.2941  0.3468 -0.1285
 6714TIP3    H144337   6.261   6.550   0.330  0.3929  1.7478  0.0920
 6714TIP3    H244338   6.181   6.649   0.249 -1.3483 -0.1900 -0.6385
 6715TIP3   OH244339   5.512   4.548   3.282  0.6570 -0.1406  0.1044
 6715TIP3    H144340   5.543   4.471   3.330  0.6074 -1.5428 -1.9715
 6715TIP3    H244341   5.540   4.622   3.336  2.0106 -1.5531  1.4747
 6716TIP3   OH244342   1.054   3.098   3.962  0.2325  0.1041 -0.4523
 6716TIP3    H144343   1.022   3.042   3.891 -1.4931  0.8218 -0.3148
 6716TIP3    H244344   1.005   3.180   3.950 -0.2551  0.1657  1.6691
 6717TIP3   OH244345   0.895   5.031   1.998 -0.8005  0.3506 -0.0630
 6717TIP3    H144346   0.903   5.118   1.960 -2.0643 -0.0023 -1.2136
 6717TIP3    H244347   0.810   4.999   1.968 -0.7263 -0.9707  0.9990
 6718TIP3   OH244348   1.349   5.367   2.015 -0.5478 -0.3483  0.3013
 6718TIP3    H144349   1.399   5.398   2.091 -1.5523  1.0834  0.4264
 6718TIP3    H244350   1.369   5.429   1.946 -2.0943  0.2487  0.3474
 6719TIP3   OH244351   2.140   4.828   2.030 -0.0743 -0.0508  0.0227
 6719TIP3    H144352   2.208   4.834   1.962  0.5721 -1.2250  0.5288
 6719TIP3    H244353   2.154   4.741   2.069  1.0543  1.4157  3.2076
 6720TIP3   OH244354   0.906   1.290   0.742  0.0698 -0.0040 -0.4649
 6720TIP3    H144355   0.922   1.368   0.689  0.0349 -1.0623 -2.0723
 6720TIP3    H244356   0.828   1.312   0.793  1.0514  1.6374  0.4155
 6721TIP3   OH244357   1.127   4.712   1.864  0.3226 -0.4384  0.0967
 6721TIP3    H144358   1.127   4.640   1.801 -1.8585 -0.4640  0.0774
 6721TIP3    H244359   1.186   4.777   1.825 -0.1596 -0.8922 -1.4575
 6722TIP3   OH244360   4.384   6.056   3.158 -0.4526 -0.2071  0.1498
 6722TIP3    H144361   4.320   5.985   3.153 -0.3731 -0.2175 -0.9939
 6722TIP3    H244362   4.379   6.099   3.073  0.9164 -0.0945  0.1006
 6723TIP3   OH244363   4.391   1.498   1.446  0.1840 -0.4510 -0.3460
 6723TIP3    H144364   4.451   1.507   1.371  0.1591 -0.0183 -0.3129
 6723TIP3    H244365   4.387   1.585   1.485 -2.2457  0.1526 -1.7003
 6724TIP3   OH244366   5.309   2.878   2.844  0.2078 -0.2502 -0.4552
 6724TIP3    H144367   5.298   2.872   2.749  0.9117 -0.9219 -0.5004
 6724TIP3    H244368   5.342   2.967   2.858 -2.4892  0.8534 -0.5538
 6725TIP3   OH244369   5.189   6.417   0.943  0.0905 -0.8452 -0.3334
 6725TIP3    H144370   5.227   6.397   0.858 -0.2636 -0.7347 -0.5200
 6725TIP3    H244371   5.097   6.436   0.925  0.2878  0.4195 -0.1054
 6726TIP3   OH244372   1.792   3.867   0.805  0.3929 -0.4414  0.8607
 6726TIP3    H144373   1.855   3.891   0.737  0.3409  0.3870  1.1032
 6726TIP3    H244374   1.772   3.775   0.787  1.2300 -0.5521  0.4308
 6727TIP3   OH244375   0.888   5.606   0.960  0.7632 -0.3214 -0.1220
 6727TIP3    H144376   0.899   5.516   0.989 -0.3089 -0.3465  0.2325
 6727TIP3    H244377   0.797   5.627   0.980  0.8719  0.6865 -0.6292
 6728TIP3   OH244378   5.296   1.665   2.646  0.2434 -0.7998  0.6737
 6728TIP3    H144379   5.358   1.738   2.642 -1.0174  0.2609 -0.4613
 6728TIP3    H244380   5.211   1.706   2.662 -0.1657 -2.2476  2.5613
 6729TIP3   OH244381   6.245   0.132   1.311  0.2664 -0.0255 -0.2932
 6729TIP3    H144382   6.314   0.071   1.340  0.3323 -0.4417 -1.2970
 6729TIP3    H244383   6.167   0.077   1.302 -0.0703  0.3427  0.2966
 6730TIP3   OH244384   2.138   5.205   2.375 -0.3362  0.2588 -0.3208
 6730TIP3    H144385   2.179   5.138   2.321  0.7288  0.8998 -0.3426
 6730TIP3    H244386   2.054   5.222   2.332  1.1290  1.8848 -2.8005
 6731TIP3   OH244387   0.538   6.690   3.097  0.7219 -0.9475  0.1980
 6731TIP3    H144388   0.533   6.659   3.188 -0.5647  0.1789  0.5444
 6731TIP3    H244389   0.573   6.779   3.104 -0.1831 -0.5392 -0.3136
 6732TIP3   OH244390   3.865   4.464   4.094  0.9698 -0.4961  0.2710
 6732TIP3    H144391   3.808   4.408   4.147 -0.1697  0.3209 -0.0546
 6732TIP3    H244392   3.950   4.421   4.097  0.2154 -2.0477  0.3251
 6733TIP3   OH244393   2.788   0.063   4.319 -0.0857 -0.2556 -0.1953
 6733TIP3    H144394   2.856  -0.004   4.307 -0.7092 -0.7781 -0.9914
 6733TIP3    H244395   2.831   0.145   4.296  0.5723 -0.4357  0.3662
 6734TIP3   OH244396   2.302   2.488   2.469 -0.5057  0.0131 -0.1901
 6734TIP3    H144397   2.236   2.462   2.534  0.3699 -1.2782  0.2162
 6734TIP3    H244398   2.281   2.580   2.450 -0.8075  0.4274  1.8906
 6735TIP3   OH244399   3.446   4.151   3.275  0.3637  0.4912  0.3767
 6735TIP3    H144400   3.454   4.177   3.367  0.3150 -2.2295  1.2512
 6735TIP3    H244401   3.537   4.142   3.245  0.4676 -1.4749  1.1303
 6736TIP3   OH244402   3.237   4.079   1.530 -0.4926 -0.6069 -0.5435
 6736TIP3    H144403   3.181   4.154   1.511  0.6706  0.0291 -1.6582
 6736TIP3    H244404   3.212   4.052   1.619 -0.4262  1.5909  0.2142
 6737TIP3   OH244405   0.580   0.384   0.950  0.3496 -0.4085 -0.3313
 6737TIP3    H144406   0.511   0.426   0.898  1.2143  1.0387 -0.3532
 6737TIP3    H244407   0.534   0.346   1.025 -0.3115  2.2588  0.7278
 6738TIP3   OH244408   0.548   0.201   1.860 -0.3126 -1.0160 -0.1782
 6738TIP3    H144409   0.595   0.270   1.907 -2.2390  0.1966  0.0776
 6738TIP3    H244410   0.458   0.234   1.852 -1.5549 -3.8655  0.7468
 6739TIP3   OH244411   0.688   2.873   1.551  0.0505  0.2725 -0.1635
 6739TIP3    H144412   0.643   2.823   1.619  1.2888  0.2224  0.6475
 6739TIP3    H244413   0.687   2.815   1.475  0.5816 -0.5899  0.4698
 6740TIP3   OH244414   2.442   6.450   3.325  0.3789 -0.2540 -0.2177
 6740TIP3    H144415   2.395   6.369   3.304  0.8697 -0.8583  0.9340
 6740TIP3    H244416   2.515   6.452   3.263  0.5087 -0.8379 -0.0937
 6741TIP3   OH244417   4.388   6.612   1.283  0.1856  0.3335  0.3093
 6741TIP3    H144418   4.350   6.698   1.302 -2.3195 -0.5731 -0.2662
 6741TIP3    H244419   4.392   6.608   1.187 -1.4535 -0.8296  0.2454
 6742TIP3   OH244420   6.545   5.714   3.620  0.0870  0.0853  0.3362
 6742TIP3    H144421   6.621   5.708   3.678  1.0412 -1.6844 -1.0119
 6742TIP3    H244422   6.579   5.752   3.539 -1.0331  1.6430  0.5520
 6743TIP3   OH244423   6.309   3.773   2.831  0.1618  0.1419 -0.1555
 6743TIP3    H144424   6.383   3.799   2.886  0.0339 -1.3829  0.8211
 6743TIP3    H244425   6.234   3.817   2.870  0.1152 -0.7198  0.7741
 6744TIP3   OH244426   4.847   5.286   2.750 -0.1274 -0.0663  0.1377
 6744TIP3    H144427   4.813   5.259   2.664  1.4689 -1.6491 -0.0543
 6744TIP3    H244428   4.931   5.327   2.731 -0.2385  0.5425  0.8867
 6745TIP3   OH244429   5.952   2.831   1.104 -0.4648 -0.0407 -0.0683
 6745TIP3    H144430   5.901   2.895   1.054  0.6392  0.1466 -1.0119
 6745TIP3    H244431   6.034   2.824   1.055 -0.1590 -1.4020  0.6083
 6746TIP3   OH244432   4.865   0.351   0.957 -0.7859 -0.0468  0.7767
 6746TIP3    H144433   4.878   0.354   1.052 -2.3468  2.8396  1.0041
 6746TIP3    H244434   4.770   0.360   0.946 -0.7053 -0.9559 -1.0860
 6747TIP3   OH244435   2.421   4.671   2.352 -0.4901  0.2245  0.0871
 6747TIP3    H144436   2.460   4.672   2.264  1.4971  1.3529  0.8875
 6747TIP3    H244437   2.483   4.721   2.405 -1.4249 -0.7682  2.2339
 6748TIP3   OH244438   6.656   4.661   3.194  0.6879 -0.0992  0.2904
 6748TIP3    H144439   6.735   4.687   3.146 -0.0468 -1.6951 -1.9326
 6748TIP3    H244440   6.682   4.662   3.286  3.7187 -1.8292 -0.4203
 6749TIP3   OH244441   6.001   3.653   2.377 -0.6812 -0.3904  0.1120
 6749TIP3    H144442   6.050   3.731   2.402  0.1181 -0.5651 -0.8584
 6749TIP3    H244443   6.005   3.596   2.454  0.6796 -0.4200  0.0341
 6750TIP3   OH244444   1.580   2.655   3.070  0.1552 -0.5973  0.2103
 6750TIP3    H144445   1.558   2.666   3.163  2.4479  1.8103  0.5686
 6750TIP3    H244446   1.553   2.737   3.029  0.9935 -0.8281 -0.8541
 6751TIP3   OH244447   3.116   0.399   0.971 -0.7847  0.1074 -0.3646
 6751TIP3    H144448   3.210   0.383   0.982 -0.0793  2.6603 -1.8246
 6751TIP3    H244449   3.078   0.378   1.056  1.4307  1.0257  0.9337
 6752TIP3   OH244450   4.799   5.007   1.510 -0.1582  0.1584  0.7897
 6752TIP3    H144451   4.859   5.080   1.496 -0.1233  0.0147  0.1576
 6752TIP3    H244452   4.742   5.037   1.581 -0.4600  1.0120  0.2062
 6753TIP3   OH244453   3.074   2.462   1.031 -0.3374  0.0780 -0.5026
 6753TIP3    H144454   2.982   2.461   1.003 -0.4686  2.2558 -0.3746
 6753TIP3    H244455   3.072   2.511   1.114  0.9340  0.1516 -0.5047
 6754TIP3   OH244456   0.435   2.326   3.022 -0.0928  0.0872 -0.0754
 6754TIP3    H144457   0.472   2.257   3.077 -0.3824  1.3349  1.7627
 6754TIP3    H244458   0.488   2.324   2.942  1.0391 -1.0658  0.6696
 6755TIP3   OH244459   5.327   4.239   3.719  0.0637 -0.0231  0.8230
 6755TIP3    H144460   5.248   4.236   3.772  0.9885 -3.1892  2.2963
 6755TIP3    H244461   5.386   4.175   3.760  1.7125 -1.0700 -2.7222
 6756TIP3   OH244462   4.149   4.557   3.275  0.0609  0.3482  0.6080
 6756TIP3    H144463   4.135   4.469   3.239  0.6627 -0.8607  3.1184
 6756TIP3    H244464   4.062   4.588   3.299 -0.1252  0.3766 -0.0703
 6757TIP3   OH244465   5.194   1.380   0.705 -0.1288 -0.1872 -0.1224
 6757TIP3    H144466   5.201   1.446   0.636 -0.6103  0.9920  0.9141
 6757TIP3    H244467   5.175   1.298   0.658  2.2181  0.0114 -1.5705
 6758TIP3   OH244468   0.904   5.333   1.587 -0.4138 -0.1977  0.0115
 6758TIP3    H144469   0.886   5.423   1.614  2.2732  0.9638 -1.6587
 6758TIP3    H244470   0.868   5.326   1.499 -0.4447 -0.6884  0.0576
 6759TIP3   OH244471   2.270   0.004   1.928 -0.4577  0.0372 -0.5299
 6759TIP3    H144472   2.219   0.079   1.897  1.1448  2.1727  1.6312
 6759TIP3    H244473   2.208  -0.048   1.980 -1.6711 -0.4206 -2.3288
 6760TIP3   OH244474   5.587   0.960   1.511  0.4240  0.2545  0.0486
 6760TIP3    H144475   5.654   1.013   1.554  0.0287  2.0272 -1.3940
 6760TIP3    H244476   5.636   0.894   1.462  1.1057  1.1225 -0.4694
 6761TIP3   OH244477   0.401   0.283   1.154  0.1727  0.0855  0.4199
 6761TIP3    H144478   0.433   0.196   1.177  2.9049  0.7025 -0.6323
 6761TIP3    H244479   0.308   0.270   1.136  0.2486 -2.3698  1.3866
 6762TIP3   OH244480   2.107   6.171   0.996  0.4203  0.2680 -0.4352
 6762TIP3    H144481   2.150   6.182   0.911  2.7211 -2.9271  0.1351
 6762TIP3    H244482   2.179   6.159   1.058 -1.2117 -2.3827  1.1150
 6763TIP3   OH244483   3.915   4.878   4.607  0.1793  0.2671 -0.2567
 6763TIP3    H144484   3.852   4.876   4.679  1.6243 -2.2608  1.0785
 6763TIP3    H244485   3.862   4.859   4.529 -0.7318 -2.8100  0.9482
 6764TIP3   OH244486   4.322   5.486   2.613 -0.1704 -0.0635  0.1123
 6764TIP3    H144487   4.239   5.439   2.607  1.0754 -2.2718 -1.6398
 6764TIP3    H244488   4.344   5.508   2.522  0.9610  0.8598  0.5840
 6765TIP3   OH244489   3.396   3.984   1.886  0.6617  0.1814  0.2955
 6765TIP3    H144490   3.482   3.967   1.848  0.9314 -0.9942  1.3597
 6765TIP3    H244491   3.346   3.904   1.868  0.3966  0.1116  1.2726
 6766TIP3   OH244492   6.166   5.768   4.200 -0.2469 -0.3801 -0.0369
 6766TIP3    H144493   6.078   5.750   4.235  1.2211 -0.8381  4.0310
 6766TIP3    H244494   6.201   5.836   4.258  2.0503 -0.0729 -1.6454
 6767TIP3   OH244495   0.760   0.404   1.193 -0.2973  0.0155  0.3572
 6767TIP3    H144496   0.708   0.400   1.112  0.8002  1.9249 -0.5122
 6767TIP3    H244497   0.842   0.445   1.167  0.1531  0.5426  2.4206
 6768TIP3   OH244498   3.297   3.994   2.827 -0.0742 -0.3440 -0.1972
 6768TIP3    H144499   3.250   4.074   2.853 -2.0162 -0.8141 -1.9934
 6768TIP3    H244500   3.327   4.013   2.738 -1.3289 -1.8691 -0.9930
 6769TIP3   OH244501   5.391   4.790   2.333 -0.1902 -0.1088  0.6143
 6769TIP3    H144502   5.418   4.745   2.252 -0.3859 -1.1520  1.1149
 6769TIP3    H244503   5.470   4.793   2.386 -0.1604  0.2189  0.5542
 6770TIP3   OH244504   3.058   2.659   1.821 -0.2209  0.3009  0.2795
 6770TIP3    H144505   3.147   2.640   1.792  0.1822  0.2605  1.4785
 6770TIP3    H244506   3.005   2.588   1.787  0.2355  0.2261 -0.2863
 6771TIP3   OH244507   3.088   4.731   1.550  0.1763 -0.1936 -0.0279
 6771TIP3    H144508   3.093   4.815   1.505 -1.2555 -0.9469 -1.7150
 6771TIP3    H244509   3.111   4.666   1.483 -0.2334 -1.2571  0.8222
 6772TIP3   OH244510   4.873   0.686   1.620 -0.2834  0.1730  0.1164
 6772TIP3    H144511   4.878   0.629   1.543 -0.0655  1.1430 -0.6164
 6772TIP3    H244512   4.925   0.763   1.595  1.2692 -0.2367  1.9069
 6773TIP3   OH244513   3.313   3.489   0.559 -0.4161  0.4535 -0.2917
 6773TIP3    H144514   3.248   3.472   0.490 -0.5013  0.8015 -0.2994
 6773TIP3    H244515   3.339   3.580   0.545 -1.3567  0.9347  0.9024
 6774TIP3   OH244516   1.682   0.268   0.514 -0.4795  0.1087 -0.1968
 6774TIP3    H144517   1.707   0.350   0.472  1.2481 -1.4403 -2.4071
 6774TIP3    H244518   1.587   0.263   0.503 -0.3097  0.6670 -2.2581
 6775TIP3   OH244519   1.551   5.502   1.816  0.3440 -0.2071 -0.1963
 6775TIP3    H144520   1.521   5.429   1.762  0.2687 -0.4502  0.1658
 6775TIP3    H244521   1.484   5.570   1.805 -0.8457 -1.0690  1.3015
 6776TIP3   OH244522   3.308   4.411   1.501 -0.0062  0.1661 -0.6464
 6776TIP3    H144523   3.350   4.440   1.420 -1.6286  0.1515 -1.5307
 6776TIP3    H244524   3.226   4.371   1.473 -2.1034  2.8281  1.1304
 6777TIP3   OH244525   1.082   1.099   2.469  0.6334  0.6939  0.0090
 6777TIP3    H144526   1.006   1.142   2.508 -0.1507 -1.0240  0.4696
 6777TIP3    H244527   1.102   1.028   2.529  0.0973 -1.3518 -2.0847
 6778TIP3   OH244528   4.797   0.252   3.068  0.1527 -0.0812 -0.4015
 6778TIP3    H144529   4.710   0.251   3.108  0.4446  0.4219  0.2793
 6778TIP3    H244530   4.848   0.312   3.124  0.6381  0.4776 -1.4165
 6779TIP3   OH244531   6.033   1.331   4.229  0.4067 -0.2949 -0.1495
 6779TIP3    H144532   6.084   1.318   4.149  0.8649  2.4483 -0.3785
 6779TIP3    H244533   5.947   1.359   4.198  0.2152 -0.3846  0.3049
 6780TIP3   OH244534   1.510   2.827   2.283  0.2261  0.2566  0.4471
 6780TIP3    H144535   1.506   2.855   2.191  1.3136 -1.2180 -0.0882
 6780TIP3    H244536   1.483   2.735   2.281  1.1185 -0.0474  1.4634
 6781TIP3   OH244537   6.126   6.195   0.985 -0.3912 -0.0456  0.1898
 6781TIP3    H144538   6.058   6.232   0.929  0.5622  0.4090 -0.7031
 6781TIP3    H244539   6.082   6.178   1.068 -1.8239 -0.6382 -0.6458
 6782TIP3   OH244540   1.525   4.884   1.353 -0.0239  0.3590  0.5366
 6782TIP3    H144541   1.564   4.867   1.438 -0.1856  2.9136  1.2043
 6782TIP3    H244542   1.481   4.968   1.363 -0.1954  0.6642 -2.0169
 6783TIP3   OH244543   4.461   1.769   3.683 -0.2986  0.0915 -0.4701
 6783TIP3    H144544   4.405   1.721   3.622 -0.0542 -0.6372 -0.1297
 6783TIP3    H244545   4.407   1.842   3.713 -1.0705 -0.5958 -0.1501
 6784TIP3   OH244546   3.167   5.457   3.554 -0.4521 -0.1655 -0.3472
 6784TIP3    H144547   3.207   5.374   3.578  1.0894  1.3764  3.0549
 6784TIP3    H244548   3.211   5.483   3.473  0.3525 -1.7805 -0.4613
 6785TIP3   OH244549   4.462   3.544   1.536  0.2560  0.0844  0.0896
 6785TIP3    H144550   4.493   3.627   1.500  0.4770  0.9975  2.2597
 6785TIP3    H244551   4.477   3.481   1.466  2.0124  1.4998 -0.8911
 6786TIP3   OH244552   2.728   6.178   1.861  0.7048 -0.3538  0.2393
 6786TIP3    H144553   2.792   6.148   1.797  2.1223  1.1043  0.8905
 6786TIP3    H244554   2.770   6.253   1.903 -1.0946  0.1122  1.3170
 6787TIP3   OH244555   5.252   5.314   2.017  0.0293 -0.4002 -1.0881
 6787TIP3    H144556   5.292   5.263   1.947  0.0046  0.2571 -1.5902
 6787TIP3    H244557   5.175   5.263   2.043 -0.6585 -0.0700 -2.3872
 6788TIP3   OH244558   0.912   5.930   3.243  0.2563 -0.1017  0.1629
 6788TIP3    H144559   0.931   5.871   3.316  0.4217 -1.3212 -0.8223
 6788TIP3    H244560   0.873   6.007   3.283  1.4085 -0.2418  1.6440
 6789TIP3   OH244561   2.384   0.003   1.120  0.2716  0.4924 -0.1193
 6789TIP3    H144562   2.372  -0.087   1.090 -0.1948  0.4829  0.0978
 6789TIP3    H244563   2.452  -0.004   1.187 -1.3619 -0.0609  1.5746
 6790TIP3   OH244564   0.298   1.951   3.717 -0.1752  0.8696 -0.1352
 6790TIP3    H144565   0.254   1.873   3.684  1.1331  0.4245 -0.8943
 6790TIP3    H244566   0.391   1.928   3.718  0.2075  2.3030 -0.0464
 6791TIP3   OH244567   2.535   6.353   4.305 -0.4823 -0.1578 -0.7684
 6791TIP3    H144568   2.534   6.397   4.220  0.3554 -0.4337 -0.9295
 6791TIP3    H244569   2.587   6.412   4.361  0.1287 -0.6340 -0.8222
 6792TIP3   OH244570   1.173   3.672   1.499 -0.2800  0.1635 -0.6199
 6792TIP3    H144571   1.118   3.737   1.542  1.2043  0.3994  1.0589
 6792TIP3    H244572   1.255   3.719   1.481  1.0791 -1.3296  1.2427
 6793TIP3   OH244573   1.896   4.339   3.756 -0.5658  0.1493  0.1137
 6793TIP3    H144574   1.945   4.258   3.766 -0.6194 -0.0270 -0.9317
 6793TIP3    H244575   1.952   4.407   3.793 -0.7443 -0.4250  1.4823
 6794TIP3   OH244576   1.104   6.661   3.046 -0.2790 -0.3962 -0.8003
 6794TIP3    H144577   1.098   6.571   3.076 -0.3941  0.2156  1.1639
 6794TIP3    H244578   1.165   6.703   3.107 -0.7166  1.0075 -1.2855
 6795TIP3   OH244579   5.455   2.347   1.680  0.0325 -0.4403 -0.0460
 6795TIP3    H144580   5.415   2.364   1.595 -0.0454  1.4343  0.3279
 6795TIP3    H244581   5.394   2.289   1.725 -1.4526  1.0256 -0.1139
 6796TIP3   OH244582   4.040   0.329   2.481 -0.5001 -0.0222  0.0637
 6796TIP3    H144583   3.969   0.296   2.536  1.9032 -0.4380  3.1831
 6796TIP3    H244584   4.009   0.413   2.448 -2.4286 -0.2181  1.2577
 6797TIP3   OH244585   2.219   6.248   2.620 -0.0516  0.4472 -0.0022
 6797TIP3    H144586   2.207   6.154   2.623 -0.6563  0.4048 -1.9776
 6797TIP3    H244587   2.141   6.284   2.661 -0.4555  0.0935 -0.4614
 6798TIP3   OH244588   0.389   5.108   3.398  0.0160 -0.6430  0.4165
 6798TIP3    H144589   0.334   5.183   3.376  0.2809 -0.6467 -0.2990
 6798TIP3    H244590   0.344   5.033   3.358  0.7525 -0.5835 -0.5557
 6799TIP3   OH244591   0.716   4.409   3.503 -0.4273  0.5209 -0.5313
 6799TIP3    H144592   0.796   4.399   3.555 -0.9998  1.7787  0.6404
 6799TIP3    H244593   0.647   4.374   3.559 -0.9379  1.1075 -0.7832
 6800TIP3   OH244594   4.350   4.716   1.757 -0.1226  0.0549  0.6294
 6800TIP3    H144595   4.291   4.784   1.724  0.9524 -0.4135 -2.6326
 6800TIP3    H244596   4.291   4.646   1.787 -1.2556  0.5466 -0.3479
 6801TIP3   OH244597   6.208   4.265   3.481  0.0125 -0.4995  0.2520
 6801TIP3    H144598   6.127   4.231   3.519  0.0844  1.2140  2.0770
 6801TIP3    H244599   6.277   4.236   3.541  0.2091  1.6838  1.1385
 6802TIP3   OH244600   5.358   5.948   3.088 -0.1627 -0.4307  0.2374
 6802TIP3    H144601   5.387   5.889   3.158  0.3693  0.4512  0.7687
 6802TIP3    H244602   5.281   5.904   3.051  0.6392 -1.8082  0.1363
 6803TIP3   OH244603   2.137   1.845   2.477  0.2564 -0.1202 -0.3979
 6803TIP3    H144604   2.051   1.808   2.495  0.7091 -0.5444  1.1098
 6803TIP3    H244605   2.174   1.863   2.564  0.3872  3.1990 -1.0243
 6804TIP3   OH244606   2.232   3.205   3.166  0.1001 -0.2122  0.0616
 6804TIP3    H144607   2.226   3.250   3.250  1.5813  0.2613 -0.0577
 6804TIP3    H244608   2.146   3.164   3.155 -0.6886  1.0997  1.0103
 6805TIP3   OH244609   4.045   5.738   2.058 -0.4796 -0.2095 -0.0362
 6805TIP3    H144610   4.000   5.688   1.990 -0.2612  0.8492 -0.9790
 6805TIP3    H244611   3.986   5.736   2.133 -1.1915 -0.5172 -0.6030
 6806TIP3   OH244612   3.378   2.138   0.972  0.4800 -0.2328  0.2481
 6806TIP3    H144613   3.302   2.161   1.026 -0.1157  1.3598 -1.2038
 6806TIP3    H244614   3.341   2.115   0.887  1.5602 -0.6582 -0.1194
 6807TIP3   OH244615   4.257   3.200   2.933  0.1511  0.0073 -0.4384
 6807TIP3    H144616   4.276   3.292   2.952  1.0456 -0.1571 -0.4818
 6807TIP3    H244617   4.163   3.191   2.950  0.2783  0.6532  0.7186
 6808TIP3   OH244618   1.985   0.293   2.078  0.3822 -0.5625  0.4768
 6808TIP3    H144619   2.041   0.320   2.151  0.4497 -0.3681  0.3538
 6808TIP3    H244620   2.046   0.274   2.007  0.2416  0.7895 -0.0319
 6809TIP3   OH244621   1.355   2.397   1.333 -0.4595  0.5268  0.2013
 6809TIP3    H144622   1.407   2.448   1.395 -0.5867  0.9533 -0.0424
 6809TIP3    H244623   1.324   2.461   1.269 -0.9089  0.2001  0.0902
 6810TIP3   OH244624   0.816   0.533   4.614  0.2404 -0.0519 -0.0889
 6810TIP3    H144625   0.894   0.566   4.570  0.9398 -2.1858 -0.5706
 6810TIP3    H244626   0.743   0.572   4.565  0.9745  1.2628 -0.1887
 6811TIP3   OH244627   6.022   0.980   0.793  0.2078  0.0070  0.5351
 6811TIP3    H144628   5.957   0.932   0.742 -0.0939  0.8118  0.1327
 6811TIP3    H244629   6.106   0.951   0.759  0.0180  0.1554 -0.0855
 6812TIP3   OH244630   6.350   0.620   0.881 -0.4901  0.1957  0.2578
 6812TIP3    H144631   6.262   0.594   0.853 -0.0346 -0.3998 -0.7199
 6812TIP3    H244632   6.348   0.614   0.976 -1.4250 -0.0821  0.2337
 6813TIP3   OH244633   1.713   1.692   1.535  0.5444  0.3633 -0.4659
 6813TIP3    H144634   1.645   1.627   1.519  0.3264  0.5927 -0.4765
 6813TIP3    H244635   1.676   1.774   1.504  0.4236  0.6754  0.4578
 6814TIP3   OH244636   3.723   3.315   2.093 -0.3422 -0.2590  0.5250
 6814TIP3    H144637   3.727   3.385   2.158  2.3852 -0.9848  1.2773
 6814TIP3    H244638   3.812   3.310   2.057 -1.0370 -1.8376 -1.1665
 6815TIP3   OH244639   1.303   1.675   1.143 -0.5763  0.0773  0.2905
 6815TIP3    H144640   1.310   1.768   1.163  0.9537 -0.1597  1.0173
 6815TIP3    H244641   1.377   1.635   1.189 -0.0305 -1.2379 -1.6081
 6816TIP3   OH244642   1.521   3.267   3.945 -0.1942 -0.4294 -0.3901
 6816TIP3    H144643   1.518   3.197   4.010 -0.7846 -1.5746 -1.6025
 6816TIP3    H244644   1.486   3.227   3.865 -0.5991  1.2728 -1.1051
 6817TIP3   OH244645   2.055   0.095   0.768  0.1205 -0.2256  0.3412
 6817TIP3    H144646   1.962   0.077   0.755 -0.3753  0.0361  2.9406
 6817TIP3    H244647   2.059   0.187   0.795  1.0181 -0.4864  1.1696
 6818TIP3   OH244648   4.233   3.757   1.891 -0.2306 -0.6967  0.2969
 6818TIP3    H144649   4.284   3.823   1.846 -1.4300  2.7049  3.4406
 6818TIP3    H244650   4.286   3.733   1.967  0.1119 -3.4333 -0.6772
 6819TIP3   OH244651   2.949   2.998   2.458  0.4145  0.5212 -0.3141
 6819TIP3    H144652   2.911   2.947   2.386 -0.2504  0.1402  0.3006
 6819TIP3    H244653   3.042   2.976   2.455  0.2778 -0.0506 -0.6125
 6820TIP3   OH244654   4.079   0.642   2.412  0.1244 -0.3257 -0.4542
 6820TIP3    H144655   4.161   0.612   2.450 -0.8743 -0.3768  1.8314
 6820TIP3    H244656   4.101   0.663   2.321  2.6965 -0.0829  0.1433
 6821TIP3   OH244657   2.288   5.285   3.397  0.1314  0.0888  0.1491
 6821TIP3    H144658   2.371   5.246   3.423  0.0779  0.3733  0.7675
 6821TIP3    H244659   2.267   5.243   3.314  0.3484 -0.7871  0.5232
 6822TIP3   OH244660   3.034   5.224   4.030  0.4127  0.1916  0.0562
 6822TIP3    H144661   2.948   5.253   4.002  0.6123  0.9941  0.2335
 6822TIP3    H244662   3.022   5.193   4.120  0.5165  1.4426  0.5234
 6823TIP3   OH244663   2.720   6.340   2.650  0.2118 -0.2823  0.4440
 6823TIP3    H144664   2.676   6.416   2.611 -0.5112 -2.0368 -2.4340
 6823TIP3    H244665   2.648   6.290   2.689  0.3312 -0.6711  0.1676
 6824TIP3   OH244666   2.771   1.131  10.756  0.8451  0.3091  0.1452
 6824TIP3    H144667   2.685   1.157  10.788  1.1254 -0.2489  1.4059
 6824TIP3    H244668   2.826   1.208  10.768  0.2085  1.2245 -2.1523
 6825TIP3   OH244669   4.025   0.397   3.167  0.4475  0.2850 -0.5925
 6825TIP3    H144670   3.970   0.347   3.227 -1.7873  2.4191 -0.7370
 6825TIP3    H244671   4.028   0.343   3.087 -1.2157 -0.0264 -0.4784
 6826TIP3   OH244672   0.626   0.834   1.366 -0.7329  0.0452  0.3216
 6826TIP3    H144673   0.535   0.852   1.391 -0.8544 -0.2601  0.1063
 6826TIP3    H244674   0.628   0.740   1.349  0.0994 -0.3655  2.3545
 6827TIP3   OH244675   3.531   1.158   2.328 -0.2434  0.3721 -0.0753
 6827TIP3    H144676   3.510   1.073   2.366 -0.1214  0.3056 -0.1556
 6827TIP3    H244677   3.616   1.181   2.366  0.2706 -0.0746 -0.9321
 6828TIP3   OH244678   2.082   5.273   2.987  0.1627 -0.9206  0.2731
 6828TIP3    H144679   2.018   5.337   2.956 -0.1853 -0.7036  1.3754
 6828TIP3    H244680   2.068   5.196   2.931 -0.1138 -0.3937 -0.3992
 6829TIP3   OH244681   5.157   1.809   3.645 -0.5422  0.3122 -0.1519
 6829TIP3    H144682   5.189   1.899   3.653  0.0112  0.3091 -1.8739
 6829TIP3    H244683   5.230   1.761   3.605 -0.8778 -0.8851  0.6113
 6830TIP3   OH244684   2.120   1.827   0.694  0.7394  0.3392 -0.1752
 6830TIP3    H144685   2.048   1.814   0.756  1.1800 -1.4515  0.0013
 6830TIP3    H244686   2.101   1.912   0.653 -0.8829  0.3992  0.6262
 6831TIP3   OH244687   5.623   6.170   1.170  0.4161 -0.2496  0.0304
 6831TIP3    H144688   5.573   6.157   1.250 -3.2756  0.8965 -1.8286
 6831TIP3    H244689   5.621   6.085   1.126 -0.7929  0.0031 -0.4369
 6832TIP3   OH244690   5.136   3.440   3.502 -0.0336  0.0375  0.0281
 6832TIP3    H144691   5.064   3.446   3.564  0.7759 -1.5092  1.1831
 6832TIP3    H244692   5.200   3.505   3.531  0.0929 -0.2879  0.4847
 6833TIP3   OH244693   5.559   5.273   2.635  0.1746  0.1997  0.6681
 6833TIP3    H144694   5.601   5.359   2.631 -2.3350  1.4625 -2.1395
 6833TIP3    H244695   5.466   5.292   2.649 -0.5169 -2.0425 -0.3815
 6834TIP3   OH244696   5.167   4.134   0.648  0.1268  0.5988  0.1363
 6834TIP3    H144697   5.173   4.093   0.734 -0.7424  1.8945  0.8585
 6834TIP3    H244698   5.227   4.084   0.593  0.3618 -0.5388  1.3780
 6835TIP3   OH244699   2.529   4.581   2.747  0.2956 -0.5404  0.2796
 6835TIP3    H144700   2.575   4.572   2.663  0.1176 -1.9326  0.3144
 6835TIP3    H244701   2.567   4.512   2.802 -1.6487 -1.5925  0.3770
 6836TIP3   OH244702   4.266   6.081   0.940 -0.1819  0.2986 -0.3810
 6836TIP3    H144703   4.240   6.119   1.024 -1.5312 -1.0093 -0.1734
 6836TIP3    H244704   4.295   5.993   0.961  1.1988  0.5532 -1.0872
 6837TIP3   OH244705   1.863   6.666   3.479  0.3372 -0.1166 -0.1111
 6837TIP3    H144706   1.789   6.607   3.470  0.0956  0.1789 -0.0992
 6837TIP3    H244707   1.824   6.750   3.504  0.5684  0.3445 -1.2498
 6838TIP3   OH244708   5.605   4.601   2.803 -0.4657  0.2726  0.2529
 6838TIP3    H144709   5.642   4.681   2.766 -0.0320  0.6459  1.4458
 6838TIP3    H244710   5.593   4.620   2.896  0.8777 -1.4564  0.8421
 6839TIP3   OH244711   2.096   1.567   3.117  0.1691 -0.0280 -0.0595
 6839TIP3    H144712   2.135   1.539   3.034 -0.8680  0.2924 -0.6648
 6839TIP3    H244713   2.151   1.640   3.146 -1.3602  2.1184 -2.1850
 6840TIP3   OH244714   0.013   4.066   1.016  0.1406 -0.4130  0.0920
 6840TIP3    H144715   0.038   3.984   0.973 -0.7815 -0.2445 -0.8320
 6840TIP3    H244716   0.096   4.110   1.035  0.6068 -0.2794 -2.0046
 6841TIP3   OH244717   2.960   2.471   3.955  0.1697  0.5029  0.0929
 6841TIP3    H144718   3.008   2.389   3.950 -0.2517  0.3190 -1.3555
 6841TIP3    H244719   2.984   2.508   4.040  0.6943 -0.9016  0.5723
 6842TIP3   OH244720   3.366   6.125   3.760 -0.4803 -0.2440  0.2857
 6842TIP3    H144721   3.380   6.061   3.690 -0.4127  0.6419 -0.5313
 6842TIP3    H244722   3.449   6.173   3.765 -0.4271 -0.4054  1.0981
 6843TIP3   OH244723   4.730   5.069   2.908 -0.0760  0.0685  0.0434
 6843TIP3    H144724   4.786   5.136   2.870  0.6501  0.4094  1.6516
 6843TIP3    H244725   4.702   5.016   2.833  0.1949  1.5119 -1.1174
 6844TIP3   OH244726   2.688   0.832   1.532 -0.2499 -0.4916 -0.2758
 6844TIP3    H144727   2.703   0.910   1.478 -0.4467 -0.7726 -0.7389
 6844TIP3    H244728   2.709   0.860   1.621  0.9266 -0.2564 -0.6040
 6845TIP3   OH244729   1.640   5.136   2.193  0.0203  0.0313  0.1273
 6845TIP3    H144730   1.590   5.091   2.260  0.1498 -0.0365  0.1803
 6845TIP3    H244731   1.591   5.122   2.112  0.0479 -0.1866  0.1471
 6846TIP3   OH244732   0.590   5.518   3.274  0.0406 -0.4543 -0.4627
 6846TIP3    H144733   0.650   5.542   3.344 -0.2133  2.0595 -1.0209
 6846TIP3    H244734   0.647   5.484   3.204  0.2934 -2.9557  0.8279
 6847TIP3   OH244735   4.162   5.882   4.411  0.1580  0.7703  0.2426
 6847TIP3    H144736   4.214   5.955   4.378 -0.0472  0.2449 -1.3552
 6847TIP3    H244737   4.215   5.805   4.393 -0.7932  0.3038 -0.6725
 6848TIP3   OH244738   4.050   4.870   3.201  0.1922  0.3341 -0.1875
 6848TIP3    H144739   4.081   4.937   3.263 -0.9461  0.5881  0.1288
 6848TIP3    H244740   4.120   4.865   3.135  1.2649  0.3154  0.9109
 6849TIP3   OH244741   6.526   0.023   1.935 -0.4006  0.1690  0.1135
 6849TIP3    H144742   6.523  -0.069   1.962  1.0264  0.2245  0.5459
 6849TIP3    H244743   6.618   0.038   1.913 -0.5555  1.5957  0.3730
 6850TIP3   OH244744   2.123   4.639   0.378  0.0840 -0.2682  0.7566
 6850TIP3    H144745   2.038   4.605   0.404 -0.3071  0.1239  0.0258
 6850TIP3    H244746   2.105   4.729   0.349  0.3670 -0.8451 -1.4026
 6851TIP3   OH244747   5.486   3.251   1.654  0.2416 -0.1351  0.0751
 6851TIP3    H144748   5.560   3.309   1.640  0.7901 -0.7071  0.5164
 6851TIP3    H244749   5.477   3.246   1.749 -1.4215  1.2207  0.0277
 6852TIP3   OH244750   2.789   0.670   2.916  0.4242 -0.5952 -0.4093
 6852TIP3    H144751   2.786   0.739   2.850 -1.1038 -1.4235 -1.2650
 6852TIP3    H244752   2.787   0.717   2.999 -1.1466  0.4216 -0.9674
 6853TIP3   OH244753   4.436   4.392   1.755  0.1318  0.5904 -0.4340
 6853TIP3    H144754   4.528   4.372   1.772  0.3132  1.6912  0.0060
 6853TIP3    H244755   4.391   4.372   1.837  0.1818  1.1234 -0.2670
 6854TIP3   OH244756   3.066   3.927   2.641  0.2302  0.2515  0.1182
 6854TIP3    H144757   3.002   3.995   2.620  0.7848  0.7507 -0.0140
 6854TIP3    H244758   3.077   3.932   2.736 -1.6971 -1.4757  0.4948
 6855TIP3   OH244759   1.380   3.255   2.262 -0.0398  0.7567 -0.1173
 6855TIP3    H144760   1.298   3.253   2.211 -0.4471 -2.4365  0.4645
 6855TIP3    H244761   1.351   3.256   2.353  0.5565  0.1715  0.0857
 6856TIP3   OH244762   1.328   1.418   3.086 -0.1914 -0.4791  0.0271
 6856TIP3    H144763   1.390   1.406   3.014 -1.3550 -0.8818 -0.9466
 6856TIP3    H244764   1.376   1.469   3.151  0.9878 -0.3555 -0.9086
 6857TIP3   OH244765   3.152   1.012   3.184 -0.2257  0.0328 -0.1371
 6857TIP3    H144766   3.168   1.032   3.092  0.4415 -0.5873 -0.1686
 6857TIP3    H244767   3.238   1.022   3.225 -0.7246  1.3700  0.6317
 6858TIP3   OH244768   6.295   0.050   2.689 -0.6223 -0.4201  0.1453
 6858TIP3    H144769   6.221   0.106   2.713  0.3218  0.0791  2.0980
 6858TIP3    H244770   6.369   0.111   2.680  0.0933 -1.1721  0.7869
 6859TIP3   OH244771   1.608   5.410   0.871  0.5133 -0.1986 -0.3188
 6859TIP3    H144772   1.533   5.385   0.816 -0.0690  0.7322  0.0386
 6859TIP3    H244773   1.679   5.425   0.808 -0.0330  0.4574 -0.7938
 6860TIP3   OH244774   2.884   5.718   3.913 -0.0500  0.4172 -0.3892
 6860TIP3    H144775   2.953   5.655   3.891  0.6935  1.3400 -0.7356
 6860TIP3    H244776   2.868   5.766   3.831 -2.5661 -1.1095 -0.9218
 6861TIP3   OH244777   0.082   5.013   1.001 -0.1415  0.0805 -0.7347
 6861TIP3    H144778   0.156   4.952   1.007 -0.9672 -0.9127 -0.2527
 6861TIP3    H244779   0.039   5.007   1.086 -0.6474  0.8136 -0.9302
 6862TIP3   OH244780   5.338   2.589   1.253 -0.0846  0.8590  0.0292
 6862TIP3    H144781   5.254   2.636   1.251  0.6458  2.3306  1.3508
 6862TIP3    H244782   5.344   2.547   1.167 -2.2351  0.5611 -0.0371
 6863TIP3   OH244783   0.518   2.732   3.413 -0.1169 -0.5303 -0.2460
 6863TIP3    H144784   0.557   2.809   3.372  0.1873 -0.2204  0.5930
 6863TIP3    H244785   0.564   2.657   3.374 -1.3613 -0.3907 -2.0836
 6864TIP3   OH244786   4.010   3.825   1.059 -0.1997 -0.4180  0.2854
 6864TIP3    H144787   3.925   3.790   1.032 -0.4230  0.5561 -0.3403
 6864TIP3    H244788   4.062   3.748   1.079 -1.0486 -1.0563  0.1082
 6865TIP3   OH244789   0.780   6.621   4.295  0.3034  0.2286 -0.0692
 6865TIP3    H144790   0.815   6.619   4.206 -1.0713  0.0261 -0.6397
 6865TIP3    H244791   0.750   6.711   4.307  1.7698  0.6425  0.7479
 6866TIP3   OH244792   2.172   1.856   1.916  0.3574  0.2725  0.2801
 6866TIP3    H144793   2.177   1.788   1.849  3.2652 -1.5313  2.0999
 6866TIP3    H244794   2.205   1.935   1.872 -0.6139 -0.0850 -1.1644
 6867TIP3   OH244795   0.055   5.236   0.833 -0.0299 -0.1840  0.1418
 6867TIP3    H144796   0.050   5.165   0.896 -2.4645 -0.9762 -0.8001
 6867TIP3    H244797   0.147   5.241   0.809  0.4259 -2.0509  1.3130
 6868TIP3   OH244798   4.438   2.099   3.202  0.4623 -0.6328  0.3865
 6868TIP3    H144799   4.350   2.090   3.240  0.7009 -1.6660  0.7337
 6868TIP3    H244800   4.455   2.193   3.202 -0.7674 -0.3914  0.0291
 6869TIP3   OH244801   1.183   0.115   2.630 -0.4064 -0.0269 -0.0418
 6869TIP3    H144802   1.112   0.128   2.567  1.6043 -2.2268 -3.0106
 6869TIP3    H244803   1.187   0.021   2.643  2.4446 -0.0604 -0.6397
 6870TIP3   OH244804   6.452   2.170   0.897  0.6231 -0.7623 -0.0896
 6870TIP3    H144805   6.430   2.173   0.990  1.7169 -0.4439  0.1781
 6870TIP3    H244806   6.541   2.204   0.893  0.2138  0.2498 -1.3755
 6871TIP3   OH244807   5.632   0.518   1.955  0.3159 -0.0217 -0.4874
 6871TIP3    H144808   5.646   0.613   1.957 -1.4770  0.2634  0.2900
 6871TIP3    H244809   5.537   0.508   1.965  0.5187 -1.9225 -0.2213
 6872TIP3   OH244810   3.701   1.478   1.502  0.2196  0.1046  0.1311
 6872TIP3    H144811   3.743   1.563   1.513  0.0637  0.1276  0.5736
 6872TIP3    H244812   3.608   1.499   1.493  0.2417  0.0179 -0.2883
 6873TIP3   OH244813   5.836   0.538   1.250 -0.6914  0.3106 -0.4687
 6873TIP3    H144814   5.772   0.467   1.239  0.9952 -2.0341  2.9427
 6873TIP3    H244815   5.885   0.539   1.168 -3.2006  0.3046 -2.0883
 6874TIP3   OH244816   5.922   6.056   3.009  0.6454  0.8991  0.3480
 6874TIP3    H144817   5.857   6.107   3.057  1.0925  0.9297  0.9295
 6874TIP3    H244818   5.885   6.046   2.921 -0.6863 -0.0875  0.9890
 6875TIP3   OH244819   0.734   0.046   3.905 -0.8124 -0.0087 -0.3273
 6875TIP3    H144820   0.643   0.023   3.920 -0.9750  1.2166  0.7773
 6875TIP3    H244821   0.737   0.142   3.912  0.3796  0.0706 -1.4120
 6876TIP3   OH244822   3.873   3.064   3.002 -0.4044 -0.2955 -0.2431
 6876TIP3    H144823   3.944   2.999   3.002 -2.8725 -3.2438  0.7089
 6876TIP3    H244824   3.905   3.135   2.946  2.2939 -2.5701 -1.8496
 6877TIP3   OH244825   1.867   0.956   1.838  0.1271 -0.0711 -0.0191
 6877TIP3    H144826   1.809   0.998   1.901 -0.4683  0.6846 -1.0238
 6877TIP3    H244827   1.824   0.970   1.753  1.1903 -0.5271 -0.6586
 6878TIP3   OH244828   1.938   3.060   1.348 -0.7769  0.2295  0.7201
 6878TIP3    H144829   1.856   3.046   1.396 -1.5498 -1.6142 -1.0178
 6878TIP3    H244830   2.003   3.011   1.397 -0.8622  0.9544  1.6010
 6879TIP3   OH244831   4.101   6.631   3.143 -0.4222 -0.3030 -0.8190
 6879TIP3    H144832   4.013   6.666   3.128  0.0461  0.1530 -2.8595
 6879TIP3    H244833   4.129   6.601   3.056  0.9865 -1.5311  0.0218
 6880TIP3   OH244834   4.730   1.575   1.545  0.2024 -0.3343 -0.4381
 6880TIP3    H144835   4.669   1.510   1.509 -1.1098 -0.2014  1.4364
 6880TIP3    H244836   4.742   1.550   1.636 -0.2857  1.9411  0.3389
 6881TIP3   OH244837   2.161   5.010   1.165  0.2569 -0.2729 -0.1524
 6881TIP3    H144838   2.176   5.019   1.071  1.2814 -0.5115 -0.0256
 6881TIP3    H244839   2.119   5.092   1.190 -0.7669 -0.5402 -0.9525
 6882TIP3   OH244840   4.400   1.241   0.552  0.1692  0.3516  0.4222
 6882TIP3    H144841   4.407   1.164   0.610  0.7558 -0.3831 -0.6007
 6882TIP3    H244842   4.483   1.288   0.565  1.2369 -0.9339 -1.3341
 6883TIP3   OH244843   1.599   0.353   4.509 -0.0964 -0.2924  0.0711
 6883TIP3    H144844   1.633   0.440   4.528 -1.4251  0.0619  0.9724
 6883TIP3    H244845   1.676   0.295   4.512  0.4420  0.4598  2.0362
 6884TIP3   OH244846   2.064   2.604   2.266 -0.0072 -0.5667 -0.4254
 6884TIP3    H144847   2.014   2.558   2.333 -1.5441 -0.0310 -1.1672
 6884TIP3    H244848   2.068   2.695   2.298  0.8811 -0.6842 -0.1687
 6885TIP3   OH244849   0.925   2.485   0.942  0.6511  0.5336 -0.8457
 6885TIP3    H144850   0.972   2.559   0.904  2.2401  0.5730  1.0696
 6885TIP3    H244851   0.845   2.524   0.979 -0.7236  0.5508 -3.5835
 6886TIP3   OH244852   6.639   5.249   2.780  0.5033  0.0735 -0.4375
 6886TIP3    H144853   6.599   5.266   2.695  3.3797  2.2134 -1.5287
 6886TIP3    H244854   6.680   5.332   2.804  1.2505 -0.9646  2.2479
 6887TIP3   OH244855   2.495   1.619   1.980 -0.2952 -0.0779  0.4114
 6887TIP3    H144856   2.563   1.675   1.943 -0.4949  0.3645  0.7024
 6887TIP3    H244857   2.424   1.623   1.916 -0.0160 -0.6099  0.0657
 6888TIP3   OH244858   0.855   0.540   4.297 -0.4690  0.2582  0.2157
 6888TIP3    H144859   0.862   0.499   4.211  1.9004 -0.4535  0.6766
 6888TIP3    H244860   0.764   0.568   4.303 -1.3808 -2.0532 -1.4507
 6889TIP3   OH244861   4.653   5.529   2.744  0.0167  0.0029 -0.0686
 6889TIP3    H144862   4.680   5.601   2.802 -1.9732  0.3617  0.4870
 6889TIP3    H244863   4.716   5.459   2.762  1.2846  1.1607  0.2550
 6890TIP3   OH244864   2.548   5.156   4.997 -0.1594 -0.0895  0.1698
 6890TIP3    H144865   2.518   5.246   4.981  0.7707  0.0650 -0.8257
 6890TIP3    H244866   2.638   5.155   4.966 -0.1703 -1.3884  0.1244
 6891TIP3   OH244867   3.278   0.989   2.938 -0.3409  0.1404 -0.4521
 6891TIP3    H144868   3.274   1.012   2.845 -0.6977 -0.0058 -0.4760
 6891TIP3    H244869   3.283   0.893   2.939  0.5395  0.1778 -0.3387
 6892TIP3   OH244870   0.678   3.493   2.211  0.1933 -0.0783  0.4703
 6892TIP3    H144871   0.724   3.513   2.293 -0.2265  1.8795  0.2894
 6892TIP3    H244872   0.713   3.556   2.148  0.9039 -1.8991 -1.0673
 6893TIP3   OH244873   4.177   4.453   2.378  0.0316  0.4026 -0.4180
 6893TIP3    H144874   4.110   4.519   2.396  0.7945  0.6786  1.7148
 6893TIP3    H244875   4.140   4.400   2.307 -1.5223  1.7986 -0.7236
 6894TIP3   OH244876   5.746   3.907   1.007  0.3076  0.8101 -0.5602
 6894TIP3    H144877   5.722   3.995   0.979 -0.0670  0.3650 -1.7051
 6894TIP3    H244878   5.831   3.918   1.050  0.1827  1.7498 -0.5339
 6895TIP3   OH244879   2.459   4.646   3.417  0.1087  0.1689 -0.0835
 6895TIP3    H144880   2.511   4.625   3.494 -1.3874 -1.3374  0.5901
 6895TIP3    H244881   2.511   4.614   3.343  0.7755  0.0075  0.4438
 6896TIP3   OH244882   4.041   1.503   1.476  0.1321 -0.2923  0.2438
 6896TIP3    H144883   4.069   1.416   1.447  1.0434 -0.4401  1.4943
 6896TIP3    H244884   3.992   1.538   1.401  1.2404 -1.1723 -0.9550
 6897TIP3   OH244885   0.908   0.021   2.832 -0.4403  0.5686 -0.1845
 6897TIP3    H144886   0.912  -0.053   2.771  3.3778  2.2582 -2.3488
 6897TIP3    H244887   0.958  -0.007   2.908 -0.2371  0.4151 -0.3738
 6898TIP3   OH244888   1.249   1.353   1.395  0.0363  0.2929  0.8181
 6898TIP3    H144889   1.262   1.295   1.320  0.6767  0.9503  0.4134
 6898TIP3    H244890   1.259   1.296   1.472 -1.2003 -0.5015  0.4140
 6899TIP3   OH244891   2.912   4.352   2.551 -0.2941  0.0097  0.5349
 6899TIP3    H144892   2.986   4.390   2.598  0.5489 -1.2566  0.2843
 6899TIP3    H244893   2.893   4.270   2.598 -1.8773  0.5597  0.8985
 6900TIP3   OH244894   3.129   4.398   4.196 -0.0474 -0.2708 -0.0046
 6900TIP3    H144895   3.124   4.335   4.124 -2.8006 -0.8577  0.5679
 6900TIP3    H244896   3.115   4.483   4.153 -0.2859 -0.4708 -0.3308
 6901TIP3   OH244897   1.679   4.516   2.929  0.6908  0.4660  0.5995
 6901TIP3    H144898   1.692   4.507   3.024  2.0461 -1.0350  0.3143
 6901TIP3    H244899   1.713   4.603   2.909 -0.6589  1.2715  1.6212
 6902TIP3   OH244900   0.074   1.805   3.165  0.0932  0.3723  0.1307
 6902TIP3    H144901   0.010   1.766   3.225 -0.0173  0.1355 -0.1366
 6902TIP3    H244902   0.144   1.838   3.222  0.2267 -0.2926  0.3602
 6903TIP3   OH244903   1.293   3.744   0.596 -0.3311  0.4632 -0.5404
 6903TIP3    H144904   1.328   3.808   0.535 -1.6823  0.4031 -1.4345
 6903TIP3    H244905   1.314   3.779   0.683 -0.4333  1.7598 -1.0227
 6904TIP3   OH244906   5.290   1.387   2.629 -0.3370  0.3746 -0.4483
 6904TIP3    H144907   5.304   1.482   2.636 -2.0036  0.5751  0.7285
 6904TIP3    H244908   5.375   1.349   2.653  0.0860  1.5568  0.0087
 6905TIP3   OH244909   4.637   2.120   0.541  0.0655 -0.6076  0.2692
 6905TIP3    H144910   4.565   2.094   0.484 -0.5059  0.4902  0.4535
 6905TIP3    H244911   4.667   2.204   0.506  1.5421 -1.2231 -0.0363
 6906TIP3   OH244912   5.106   0.222   0.941  0.2728  0.7222  0.2505
 6906TIP3    H144913   5.049   0.147   0.961 -0.2177  0.7512 -0.9319
 6906TIP3    H244914   5.046   0.294   0.925  0.5443  0.5660 -1.7942
 6907TIP3   OH244915   5.068   1.316   1.615  0.5599  0.0756 -0.0320
 6907TIP3    H144916   4.979   1.282   1.618  0.4275  0.4262  0.1002
 6907TIP3    H244917   5.124   1.241   1.634  0.3173 -0.2420 -0.5499
 6908TIP3   OH244918   0.351   5.435   1.270  0.0952  0.4218  0.7486
 6908TIP3    H144919   0.423   5.474   1.318  0.1770 -0.6680  1.5478
 6908TIP3    H244920   0.288   5.506   1.260  1.0089  1.2202  0.5779
 6909TIP3   OH244921   3.097   6.623   1.814 -0.8270 -0.3162 -0.1033
 6909TIP3    H144922   3.051   6.652   1.893 -0.4914 -1.3068  0.4749
 6909TIP3    H244923   3.066   6.533   1.800  0.8634 -0.9850  0.2596
 6910TIP3   OH244924   3.795   5.982   3.433 -0.2258  0.1381  0.4964
 6910TIP3    H144925   3.736   5.907   3.425 -0.1512  0.1187  0.0956
 6910TIP3    H244926   3.856   5.957   3.503 -1.1330  0.4672  1.4257
 6911TIP3   OH244927   6.174   2.883   2.930  0.0845  0.5146 -0.5805
 6911TIP3    H144928   6.136   2.948   2.989  0.3733  0.3344 -0.1822
 6911TIP3    H244929   6.185   2.928   2.847 -3.4779 -0.1609 -1.5631
 6912TIP3   OH244930   0.552   3.221   2.585 -0.1725 -0.4044  0.5315
 6912TIP3    H144931   0.614   3.271   2.532 -1.0270  1.1910  0.9464
 6912TIP3    H244932   0.503   3.168   2.523 -0.5230  0.7356 -0.1997
 6913TIP3   OH244933   5.598   0.286   3.448  0.0825 -0.7460 -0.2856
 6913TIP3    H144934   5.639   0.372   3.447 -0.0362 -0.6937 -1.3225
 6913TIP3    H244935   5.510   0.302   3.482  0.8947 -0.8779  2.0432
 6914TIP3   OH244936   1.138   6.044   2.702 -0.2732  0.0951  0.1265
 6914TIP3    H144937   1.117   6.137   2.688  0.9850  0.8938  2.8452
 6914TIP3    H244938   1.066   6.012   2.757 -0.7357 -0.6330 -0.8509
 6915TIP3   OH244939   1.985   3.108   3.112  0.1471 -0.2342  0.3856
 6915TIP3    H144940   1.918   3.041   3.100  0.5768 -1.3922  3.4503
 6915TIP3    H244941   1.943   3.175   3.166  1.0162 -0.2801  1.1459
 6916TIP3   OH244942   2.429   3.474   1.914 -0.1126 -0.3101  0.2504
 6916TIP3    H144943   2.461   3.478   2.004  1.0969 -0.7240 -0.1514
 6916TIP3    H244944   2.361   3.407   1.916 -0.4972  0.0862  0.9699
 6917TIP3   OH244945   2.827   6.082   1.110  0.2267  0.8567  0.2087
 6917TIP3    H144946   2.911   6.119   1.083  0.7259 -0.4992 -0.2203
 6917TIP3    H244947   2.769   6.094   1.035  1.0814 -1.2788 -0.8673
 6918TIP3   OH244948   3.597   5.511   2.108 -0.0303  0.6147  0.2708
 6918TIP3    H144949   3.594   5.533   2.015 -1.2240  1.2301  0.4363
 6918TIP3    H244950   3.568   5.420   2.112 -1.8718  1.1750  0.1980
 6919TIP3   OH244951   0.705   2.288   3.550 -0.0593 -0.2004  0.7078
 6919TIP3    H144952   0.709   2.255   3.640 -1.0682  1.0950  1.2723
 6919TIP3    H244953   0.616   2.320   3.540  0.6135  1.5862 -0.0340
 6920TIP3   OH244954   6.592   5.673   2.714  0.0061 -0.4781 -0.1852
 6920TIP3    H144955   6.536   5.739   2.673 -0.6708  0.2424  1.7779
 6920TIP3    H244956   6.647   5.723   2.775  2.1457 -1.3026 -1.3247
 6921TIP3   OH244957   0.758   1.147   2.020 -0.2435 -0.1541 -0.0248
 6921TIP3    H144958   0.818   1.103   2.080 -0.8562 -0.2932  0.4939
 6921TIP3    H244959   0.778   1.107   1.935  0.7508  0.1724  0.0349
 6922TIP3   OH244960   4.600   5.521   2.463 -0.5116 -0.0064  0.3785
 6922TIP3    H144961   4.548   5.602   2.455  2.3214  2.1014  1.5096
 6922TIP3    H244962   4.613   5.511   2.558  1.1271 -0.3909  0.1411
 6923TIP3   OH244963   4.313   6.398   1.769 -0.3399  0.2669  0.0019
 6923TIP3    H144964   4.273   6.419   1.685 -1.2225  0.9664  0.5794
 6923TIP3    H244965   4.377   6.468   1.784 -1.5357  1.2418  0.7757
 6924TIP3   OH244966   6.566   3.097   2.801  0.1450 -0.6461  0.0958
 6924TIP3    H144967   6.641   3.152   2.780 -0.6258  0.5929  0.4555
 6924TIP3    H244968   6.495   3.133   2.748 -0.2537 -1.6551 -0.0741
 6925TIP3   OH244969   4.250   0.995   1.665 -0.1885 -0.2561 -0.4821
 6925TIP3    H144970   4.217   1.009   1.753  0.9731 -1.1526  0.1308
 6925TIP3    H244971   4.341   1.024   1.669  0.1797 -1.2695 -1.0812
 6926TIP3   OH244972   1.967   1.962   1.609 -0.0992 -0.6526 -0.2104
 6926TIP3    H144973   2.039   2.019   1.636 -0.6978  0.5752 -1.1088
 6926TIP3    H244974   1.890   2.019   1.611 -0.4453 -0.9396 -2.8524
 6927TIP3   OH244975   3.326   4.238   0.699  0.0223 -0.1941  0.1876
 6927TIP3    H144976   3.417   4.263   0.712  0.6257 -0.0315 -3.4251
 6927TIP3    H244977   3.281   4.320   0.679 -1.1833 -0.1602  2.6157
 6928TIP3   OH244978   3.940   1.301   2.998  0.0975  0.0783 -0.9177
 6928TIP3    H144979   3.926   1.356   2.921 -1.6742 -0.0631 -0.7307
 6928TIP3    H244980   3.936   1.211   2.963  0.8014  0.0236 -0.8772
 6929TIP3   OH244981   0.330   3.525   2.554  0.1538  0.3093  0.4950
 6929TIP3    H144982   0.252   3.567   2.588 -0.2563  1.3661 -1.5956
 6929TIP3    H244983   0.362   3.584   2.486  2.6638 -0.2018  1.1168
 6930TIP3   OH244984   0.201   6.316   2.501  0.0438  0.1123  0.3954
 6930TIP3    H144985   0.133   6.355   2.446  0.8302  0.2978 -0.4780
 6930TIP3    H244986   0.260   6.388   2.523  0.1010 -0.0925  0.9269
 6931TIP3   OH244987   5.747   0.808   2.348 -0.1292  0.0115  0.0210
 6931TIP3    H144988   5.815   0.787   2.284 -0.5306 -0.4276 -0.2634
 6931TIP3    H244989   5.719   0.897   2.326 -0.2587 -0.1349 -0.4067
 6932TIP3   OH244990   2.816   1.705   1.036  0.0844  0.2055 -0.1661
 6932TIP3    H144991   2.829   1.794   1.002  0.7824  0.1262 -0.1102
 6932TIP3    H244992   2.896   1.659   1.014  0.7362  0.2494  1.8856
 6933TIP3   OH244993   3.719   4.703   2.802 -0.0897 -0.1286  0.6249
 6933TIP3    H144994   3.813   4.722   2.795 -0.3684  0.9980 -0.3768
 6933TIP3    H244995   3.706   4.685   2.895  1.0459  0.0832  0.8497
 6934TIP3   OH244996   5.269   2.581   2.402  0.1789  0.0307 -0.4473
 6934TIP3    H144997   5.223   2.617   2.326  0.9692  0.0642 -0.9255
 6934TIP3    H244998   5.362   2.595   2.383  0.3588  1.0914  1.0685
 6935TIP3   OH244999   5.896   0.689   2.940  0.4221 -0.1616 -0.6431
 6935TIP3    H145000   5.829   0.674   2.873 -1.6932 -0.4704  1.3911
 6935TIP3    H245001   5.919   0.602   2.970 -1.9660 -0.0438  1.9654
 6936TIP3   OH245002   0.673   4.936   1.445 -0.0646  0.1411  0.1156
 6936TIP3    H145003   0.676   4.913   1.538 -0.8920  2.1781  0.7066
 6936TIP3    H245004   0.621   4.867   1.404 -0.1139 -0.5204  1.2666
 6937TIP3   OH245005   5.322   6.608   2.057  0.2548  0.5976 -0.1938
 6937TIP3    H145006   5.262   6.541   2.025 -0.8179  1.6891 -0.5677
 6937TIP3    H245007   5.337   6.664   1.981  1.0228  0.8481  0.1392
 6938TIP3   OH245008   0.245   4.775   2.568 -0.1648 -0.1296 -0.1689
 6938TIP3    H145009   0.196   4.693   2.568  0.9178 -0.7970 -0.8221
 6938TIP3    H245010   0.337   4.749   2.563  0.2890  1.1000  1.0645
 6939TIP3   OH245011   2.742   5.799   0.812 -0.5682 -0.0883  0.0776
 6939TIP3    H145012   2.664   5.749   0.789 -0.4000 -1.0520  1.4880
 6939TIP3    H245013   2.710   5.889   0.821 -1.0794 -0.0922 -1.4330
 6940TIP3   OH245014   6.361   4.151   1.255  0.3108  0.0840 -0.2562
 6940TIP3    H145015   6.411   4.123   1.332 -0.2725 -0.5750 -0.1090
 6940TIP3    H245016   6.391   4.240   1.238  0.6169  0.1511  0.5952
 6941TIP3   OH245017   2.622   0.667   1.088 -0.1827 -0.0547 -0.2025
 6941TIP3    H145018   2.672   0.599   1.042  0.3688 -0.3495  0.8125
 6941TIP3    H245019   2.640   0.651   1.180 -2.6558 -0.5421  0.2473
 6942TIP3   OH245020   0.537   3.450   2.730  0.2842  0.1109 -0.4366
 6942TIP3    H145021   0.465   3.493   2.683  0.4925  0.9656  0.0059
 6942TIP3    H245022   0.551   3.368   2.682  0.5577  0.9857 -1.9223
 6943TIP3   OH245023   5.586   0.221   2.122  0.3662 -0.5873  0.4787
 6943TIP3    H145024   5.552   0.297   2.170 -2.4096 -0.5353 -1.3541
 6943TIP3    H245025   5.584   0.150   2.185 -1.0340 -0.0346  1.0969
 6944TIP3   OH245026   5.890   5.614   1.037 -0.1008 -0.0430 -0.0834
 6944TIP3    H145027   5.917   5.692   0.988 -0.4365  0.0421 -0.1322
 6944TIP3    H245028   5.950   5.546   1.006 -0.0225  0.1154 -0.2883
 6945TIP3   OH245029   2.989   5.545   2.426  0.6412  0.2861  0.8387
 6945TIP3    H145030   3.012   5.452   2.423  0.7678  0.2861 -2.7226
 6945TIP3    H245031   3.073   5.590   2.438  0.8439 -0.0233  0.6079
 6946TIP3   OH245032   4.893   4.381   1.117 -0.0303  0.4088  0.0741
 6946TIP3    H145033   4.819   4.375   1.057  0.5008 -0.6368 -0.4981
 6946TIP3    H245034   4.941   4.299   1.106  1.6104  1.3366 -0.0904
 6947TIP3   OH245035   1.613   1.982   3.264  0.5456 -0.1965 -0.1753
 6947TIP3    H145036   1.563   2.062   3.251  1.2173  0.0731 -1.3434
 6947TIP3    H245037   1.615   1.968   3.358 -1.6146 -0.1676 -0.0951
 6948TIP3   OH245038   5.928   0.878   2.619  0.3404  0.1590 -0.7452
 6948TIP3    H145039   5.835   0.859   2.612  0.4843 -0.3085 -1.4955
 6948TIP3    H245040   5.948   0.934   2.545  0.9384 -0.9430 -1.4452
 6949TIP3   OH245041   2.011   3.946   2.669  0.4035  0.8366 -0.2113
 6949TIP3    H145042   1.916   3.937   2.677  0.1810 -0.5596 -3.1409
 6949TIP3    H245043   2.046   3.876   2.724 -0.2417  1.1977  0.6868
 6950TIP3   OH245044   0.795   2.144   2.948 -0.1507 -0.2745  0.6678
 6950TIP3    H145045   0.799   2.050   2.964 -0.7748 -0.2989  0.7245
 6950TIP3    H245046   0.886   2.172   2.945  0.0874 -1.1259 -0.8065
 6951TIP3   OH245047   2.893   5.042   2.737 -0.4615  0.4933  0.6075
 6951TIP3    H145048   2.956   5.088   2.681  0.4713  0.0951  1.3104
 6951TIP3    H245049   2.819   5.025   2.679 -0.1159  1.3557 -0.1247
 6952TIP3   OH245050   4.247   6.473   1.506 -0.0199 -0.0903 -0.3173
 6952TIP3    H145051   4.177   6.415   1.476  0.6637 -0.3314 -1.5228
 6952TIP3    H245052   4.294   6.497   1.426  1.5280 -0.2725  0.5033
 6953TIP3   OH245053   3.284   6.450   0.960  0.3511 -0.3691  0.6462
 6953TIP3    H145054   3.204   6.486   0.998 -0.0251  0.4731 -0.8696
 6953TIP3    H245055   3.254   6.393   0.890  1.0472 -1.1909  1.0036
 6954TIP3   OH245056   1.451   6.508   1.964  0.0563 -0.0981 -0.2180
 6954TIP3    H145057   1.453   6.598   1.997 -0.3620 -0.2218  0.1538
 6954TIP3    H245058   1.538   6.495   1.925  0.5649  0.0563  0.8352
 6955TIP3   OH245059   4.733   0.567   3.742  0.1341  0.1104 -0.5490
 6955TIP3    H145060   4.665   0.501   3.756 -1.4646  1.6358 -0.8451
 6955TIP3    H245061   4.805   0.539   3.799 -1.4063 -0.5852  1.1682
 6956TIP3   OH245062   3.542   0.005   1.383  0.1441  0.2957  0.5834
 6956TIP3    H145063   3.512  -0.058   1.317 -2.6820  2.8482 -0.7864
 6956TIP3    H245064   3.538  -0.044   1.466  2.4427 -2.5719 -0.8047
 6957TIP3   OH245065   3.863   1.370   1.123  0.3208  0.0703 -0.6017
 6957TIP3    H145066   3.797   1.412   1.068  0.3491  0.1991 -0.5392
 6957TIP3    H245067   3.848   1.276   1.113  1.2406  0.0496 -1.9602
 6958TIP3   OH245068   0.747   4.952   4.155 -0.0450 -0.2022 -0.5937
 6958TIP3    H145069   0.707   4.906   4.228  0.1349 -0.0972 -0.4262
 6958TIP3    H245070   0.795   4.885   4.107  1.9183  0.1141  0.8027
 6959TIP3   OH245071   2.787   3.597   1.857  0.5656 -0.2217  0.2442
 6959TIP3    H145072   2.714   3.657   1.873  0.0982 -0.8277  0.4445
 6959TIP3    H245073   2.746   3.520   1.816  1.0135 -0.7562  0.7738
 6960TIP3   OH245074   2.192   0.165   1.005  0.3516  0.1305 -0.6242
 6960TIP3    H145075   2.144   0.146   0.925  0.5284  0.6300 -0.8508
 6960TIP3    H245076   2.221   0.080   1.037 -0.4149 -0.1480 -0.6502
 6961TIP3   OH245077   1.473   0.513   1.285  0.1917 -0.0076  0.3519
 6961TIP3    H145078   1.536   0.443   1.271  0.4117  0.0671  0.9453
 6961TIP3    H245079   1.391   0.469   1.307 -0.7460 -0.2395 -3.0265
 6962TIP3   OH245080   3.863   3.543   1.088  0.1870 -1.1183  0.1548
 6962TIP3    H145081   3.843   3.449   1.082  0.3694 -1.0742 -1.4525
 6962TIP3    H245082   3.778   3.586   1.097 -0.0830 -1.3122 -1.2219
 6963TIP3   OH245083   0.028   4.981   1.783  0.0091  0.0593 -0.2344
 6963TIP3    H145084   0.080   4.986   1.703 -3.3509  0.1298 -2.6165
 6963TIP3    H245085   0.033   5.070   1.820  0.2365  0.5047 -1.3041
 6964TIP3   OH245086   6.446   1.100   2.693  0.3452  0.7128 -0.0809
 6964TIP3    H145087   6.353   1.123   2.703 -0.2113 -1.5603  0.6326
 6964TIP3    H245088   6.447   1.042   2.617  1.0125 -0.0527  0.5014
 6965TIP3   OH245089   1.728   6.673   1.799 -0.3371 -0.0847 -0.0926
 6965TIP3    H145090   1.798   6.733   1.826 -1.3144  0.2413  1.8637
 6965TIP3    H245091   1.658   6.730   1.767 -1.0053 -0.1866  1.1376
 6966TIP3   OH245092   4.090   2.894   2.319 -0.1939 -0.1440 -0.0161
 6966TIP3    H145093   4.069   2.882   2.411  2.4275 -1.2483  0.5299
 6966TIP3    H245094   4.047   2.820   2.275  0.0939 -0.6965  0.6080
 6967TIP3   OH245095   5.205   2.530   2.011  0.1947  0.0150 -0.8032
 6967TIP3    H145096   5.142   2.549   2.080  1.1794 -2.1705  0.8471
 6967TIP3    H245097   5.208   2.609   1.958 -1.9241  1.1389  0.6162
 6968TIP3   OH245098   5.735   1.602   1.078 -0.0899  0.1721  0.5691
 6968TIP3    H145099   5.699   1.630   1.162 -2.8388 -0.9086 -0.1504
 6968TIP3    H245100   5.673   1.633   1.013  1.2174 -0.2622 -0.9584
 6969TIP3   OH245101   4.324   0.022   0.954 -0.1491 -0.4560  0.1448
 6969TIP3    H145102   4.375  -0.054   0.926  0.9476  0.9846 -2.0661
 6969TIP3    H245103   4.245   0.019   0.900  0.3734  0.4844 -0.6999
 6970TIP3   OH245104   6.457   1.244   2.991  0.2396 -0.0527 -0.1770
 6970TIP3    H145105   6.411   1.304   2.932  2.6975  2.3824  0.1435
 6970TIP3    H245106   6.550   1.263   2.977  1.0215 -1.1523  2.6783
 6971TIP3   OH245107   2.199   6.331   3.503  0.2382 -0.1918  0.1036
 6971TIP3    H145108   2.161   6.323   3.416  0.9570  1.4506 -0.4107
 6971TIP3    H245109   2.193   6.424   3.523 -0.4202 -0.6078  2.0748
 6972TIP3   OH245110   4.392   6.345   3.929  0.2261  0.4811 -0.1376
 6972TIP3    H145111   4.353   6.263   3.958 -1.2102  1.2411  0.1489
 6972TIP3    H245112   4.482   6.341   3.962 -0.0097 -0.6920  0.4204
 6973TIP3   OH245113   3.744   0.557   2.988 -0.1256 -0.0365  0.4879
 6973TIP3    H145114   3.788   0.627   3.035 -2.3318  2.4122 -0.8635
 6973TIP3    H245115   3.651   0.575   2.999 -0.7798 -0.3170 -3.2862
 6974TIP3   OH245116   1.451   5.240   3.165 -0.5816  0.0082 -0.1071
 6974TIP3    H145117   1.538   5.262   3.133 -0.2294 -0.8613  0.2057
 6974TIP3    H245118   1.393   5.301   3.121  0.2957  1.3326  0.5015
 6975TIP3   OH245119   0.338   6.030   1.362 -0.1255 -0.2222 -0.2398
 6975TIP3    H145120   0.290   6.061   1.286 -1.0262 -1.0311 -0.0268
 6975TIP3    H245121   0.300   6.078   1.436  0.4484  0.2428 -0.2367
 6976TIP3   OH245122   5.310   3.467   0.856 -0.1962  0.4060 -0.2924
 6976TIP3    H145123   5.282   3.436   0.942 -1.4698 -0.5368 -1.0034
 6976TIP3    H245124   5.372   3.400   0.826 -0.0696  0.5165 -0.2771
 6977TIP3   OH245125   1.175   4.990   0.960 -0.4473 -0.0928 -0.1311
 6977TIP3    H145126   1.189   4.921   1.024 -0.1994  0.4652  0.4356
 6977TIP3    H245127   1.214   4.956   0.879 -0.1199 -0.5183  0.1993
 6978TIP3   OH245128   1.383   5.941   2.479 -0.3939  0.6444 -0.3251
 6978TIP3    H145129   1.319   5.949   2.550 -0.9511 -0.9586 -0.6037
 6978TIP3    H245130   1.332   5.954   2.399 -0.3158 -0.2704 -0.5327
 6979TIP3   OH245131   5.250   2.528   0.563 -0.0586 -0.1776  0.2595
 6979TIP3    H145132   5.187   2.470   0.519  0.9024  0.6583 -2.4297
 6979TIP3    H245133   5.217   2.617   0.545  2.6846  0.3952 -2.8752
 6980TIP3   OH245134   3.232   6.589   2.080 -0.3742 -0.1966 -0.0590
 6980TIP3    H145135   3.294   6.554   2.016 -0.5014 -0.1772 -0.1922
 6980TIP3    H245136   3.182   6.513   2.109 -0.0335 -0.2797  0.3344
 6981TIP3   OH245137   2.486   3.613   4.010  0.8849  0.0269 -0.3237
 6981TIP3    H145138   2.558   3.632   4.069  0.7140 -0.2244 -0.0306
 6981TIP3    H245139   2.411   3.660   4.047  0.7772 -0.1307 -0.3397
 6982TIP3   OH245140   5.364   5.928   3.872 -0.4069 -0.3802 -0.1079
 6982TIP3    H145141   5.369   5.850   3.927  0.1627 -0.5220 -0.3506
 6982TIP3    H245142   5.272   5.934   3.846 -1.0711  0.6215  2.1975
 6983TIP3   OH245143   5.121   1.946   2.348 -0.4118  0.3542 -0.1610
 6983TIP3    H145144   5.065   1.984   2.416 -2.0630 -2.5898  0.3421
 6983TIP3    H245145   5.204   1.930   2.392 -0.9127  0.0200  0.7005
 6984TIP3   OH245146   4.535   5.664   3.511  0.1289  0.2130  0.1689
 6984TIP3    H145147   4.486   5.744   3.532  0.3314  0.0853  1.1749
 6984TIP3    H245148   4.601   5.658   3.580  1.2704  0.1258 -0.9058
 6985TIP3   OH245149   6.050   2.171   0.465 -0.4555  0.8293 -0.4297
 6985TIP3    H145150   6.021   2.103   0.526 -0.5960  1.3815  0.1387
 6985TIP3    H245151   6.063   2.126   0.382 -0.5258  0.1101 -0.0549
 6986TIP3   OH245152   5.302   4.682   1.319 -0.4047 -0.1873 -0.3432
 6986TIP3    H145153   5.244   4.739   1.370 -0.5883 -0.0322 -0.7276
 6986TIP3    H245154   5.373   4.660   1.381 -0.2984  0.5051 -0.2044
 6987TIP3   OH245155   0.110   6.358   1.850  0.1032 -0.1191  0.4442
 6987TIP3    H145156   0.125   6.421   1.779  0.4252  0.1689  0.7673
 6987TIP3    H245157   0.058   6.289   1.809  1.6523 -0.7674 -0.5283
 6988TIP3   OH245158   1.655   3.032   2.052  0.7421 -0.0853  0.1451
 6988TIP3    H145159   1.700   3.067   1.975 -0.5528  1.2160 -0.0639
 6988TIP3    H245160   1.685   3.087   2.125 -1.3275  1.6170 -0.1891
 6989TIP3   OH245161   6.671   1.878   0.754  0.4541  0.0490  0.3704
 6989TIP3    H145162   6.605   1.861   0.821 -0.3984  0.1448 -0.4173
 6989TIP3    H245163   6.707   1.792   0.734 -0.2740 -0.1791 -0.0177
 6990TIP3   OH245164   1.478   2.123   2.992 -0.1189 -0.8493  0.1688
 6990TIP3    H145165   1.494   2.196   3.051 -0.8806  0.3975 -1.1105
 6990TIP3    H245166   1.403   2.078   3.030 -0.2081 -0.4421  0.4828
 6991TIP3   OH245167   2.584   6.627   1.328 -0.1135  0.1760  0.0776
 6991TIP3    H145168   2.609   6.577   1.250 -1.3610  0.1420 -0.3260
 6991TIP3    H245169   2.647   6.600   1.395  0.2673 -0.6660 -0.5979
 6992TIP3   OH245170   2.325   2.854   3.569  0.4271  0.2039  0.1411
 6992TIP3    H145171   2.345   2.761   3.561 -0.1659  0.1556 -0.9673
 6992TIP3    H245172   2.291   2.879   3.483  0.6914  1.4742  0.3860
 6993TIP3   OH245173   4.463   3.087   2.065  0.4448  0.2810 -0.3747
 6993TIP3    H145174   4.367   3.092   2.064  0.3726 -0.6737  0.5911
 6993TIP3    H245175   4.490   3.173   2.098  0.0646  1.5342 -3.0563
 6994TIP3   OH245176   2.394   3.243   2.494 -0.4483  0.3628 -0.2062
 6994TIP3    H145177   2.322   3.261   2.555 -0.4844  0.1649 -0.1869
 6994TIP3    H245178   2.401   3.147   2.495 -0.7536  0.3283 -0.8625
 6995TIP3   OH245179   6.113   0.453   2.988  0.3573  0.7237  0.2778
 6995TIP3    H145180   6.100   0.430   3.080  1.2321 -0.4764  0.1270
 6995TIP3    H245181   6.062   0.387   2.940  0.6524  0.7813 -0.1124
 6996TIP3   OH245182   4.803   3.245   1.477 -0.2902  0.5442 -0.0942
 6996TIP3    H145183   4.774   3.229   1.387  0.6155  0.4459 -0.3768
 6996TIP3    H245184   4.723   3.265   1.524 -0.8240  0.2448 -0.8476
 6997TIP3   OH245185   3.819   5.439   3.443  0.5421  0.4785 -0.4639
 6997TIP3    H145186   3.744   5.420   3.386  0.9872  2.3252 -1.7961
 6997TIP3    H245187   3.893   5.397   3.399  1.0424  2.6544 -1.8593
 6998TIP3   OH245188   4.214   0.628   0.424 -0.1503 -0.1311  0.0858
 6998TIP3    H145189   4.280   0.685   0.383 -0.2486 -0.7496 -0.9725
 6998TIP3    H245190   4.131   0.672   0.405 -0.2732 -0.8630 -1.2026
 6999TIP3   OH245191   2.434   2.701   1.031 -0.2019 -0.4649 -0.3921
 6999TIP3    H145192   2.419   2.795   1.016 -1.3588 -0.7537 -1.1733
 6999TIP3    H245193   2.427   2.662   0.945  1.1890 -1.1807 -0.2038
 7000TIP3   OH245194   0.014   0.736   2.245 -0.0318 -0.4820  0.7555
 7000TIP3    H145195  -0.058   0.730   2.182 -0.3150 -1.6501  1.1804
 7000TIP3    H245196   0.084   0.780   2.196 -0.8452  0.2044  0.1813
 7001TIP3   OH245197   5.772   4.828   2.133 -0.4070 -0.0145 -0.6429
 7001TIP3    H145198   5.847   4.815   2.192 -0.8516  0.7996  0.1268
 7001TIP3    H245199   5.808   4.879   2.060  0.4740 -2.1878 -1.8346
 7002TIP3   OH245200   1.226   0.932   1.194  0.5570  0.1297 -0.2723
 7002TIP3    H145201   1.185   1.018   1.192 -1.7360 -0.8225  1.3563
 7002TIP3    H245202   1.225   0.903   1.103  0.8048  1.5451 -0.7512
 7003TIP3   OH245203   0.104   5.040   2.806  0.0560 -0.4591  0.4757
 7003TIP3    H145204   0.079   4.974   2.742  0.6784 -0.0396 -0.2194
 7003TIP3    H245205   0.055   5.119   2.781  2.2332  0.4846 -1.1391
 7004TIP3   OH245206   6.534   0.127   3.985 -0.5497 -0.2707 -0.3525
 7004TIP3    H145207   6.614   0.127   3.932 -0.1281 -1.8255  0.2408
 7004TIP3    H245208   6.463   0.140   3.922  0.1726  1.9101 -0.8078
 7005TIP3   OH245209   4.926   6.169   2.340 -0.4275 -0.5953  0.3011
 7005TIP3    H145210   4.943   6.261   2.357  1.3659 -0.8949  0.2697
 7005TIP3    H245211   4.861   6.169   2.269 -1.7987  0.6126  1.4831
 7006TIP3   OH245212   5.290   3.865   2.299 -0.1016 -0.1888 -0.0738
 7006TIP3    H145213   5.224   3.932   2.311 -1.2973 -1.5170  1.1830
 7006TIP3    H245214   5.340   3.865   2.381  0.8113  0.0955 -0.6118
 7007TIP3   OH245215   0.660   2.848   0.920 -0.7659  0.3086  0.6360
 7007TIP3    H145216   0.625   2.930   0.955  0.7005  0.7660  1.1399
 7007TIP3    H245217   0.755   2.862   0.918 -0.5076 -1.2765  0.4615
 7008TIP3   OH245218   3.638   6.012   2.006 -0.2521 -0.2898  0.2599
 7008TIP3    H145219   3.638   6.058   2.090 -1.1517 -1.5444  0.9826
 7008TIP3    H245220   3.712   6.049   1.958  0.3543  0.3591  1.6470
 7009TIP3   OH245221   4.092   4.524   3.888 -0.2887 -0.5072 -0.0095
 7009TIP3    H145222   4.142   4.588   3.838 -2.4572  2.8201  1.6427
 7009TIP3    H245223   4.134   4.523   3.974 -0.2213 -1.4591 -0.0404
 7010TIP3   OH245224   1.902   5.950   1.849  0.1372 -0.0138  0.0008
 7010TIP3    H145225   1.818   5.913   1.822 -1.0626  2.0454  0.7592
 7010TIP3    H245226   1.934   5.997   1.772  0.0287  0.1686  0.0669
 7011TIP3   OH245227   2.470   6.274   2.796  0.2518  0.2927  0.0715
 7011TIP3    H145228   2.408   6.319   2.853  0.4178 -1.5190  1.7840
 7011TIP3    H245229   2.416   6.233   2.728 -0.0785  1.3896 -0.3383
 7012TIP3   OH245230   0.312   0.323   1.844  0.4107  0.0227 -0.0309
 7012TIP3    H145231   0.255   0.314   1.767 -0.5059 -0.7314  0.7074
 7012TIP3    H245232   0.252   0.347   1.915  0.9528 -1.1470  0.8498
 7013TIP3   OH245233   3.805   5.332   1.662  0.1762  0.0628  0.2854
 7013TIP3    H145234   3.818   5.246   1.620  1.5818  0.6541 -0.5934
 7013TIP3    H245235   3.775   5.312   1.750  0.4224 -1.3372  0.0755
 7014TIP3   OH245236   3.116   0.117   0.866 -0.2334 -0.0575 -0.0120
 7014TIP3    H145237   3.032   0.163   0.861  0.0306  0.5881  0.9984
 7014TIP3    H245238   3.180   0.187   0.880  0.5444 -0.4911 -1.2806
 7015TIP3   OH245239   1.312   6.276   2.480 -0.1321  0.1677 -0.1720
 7015TIP3    H145240   1.223   6.290   2.511 -0.4348 -1.8955  0.0249
 7015TIP3    H245241   1.367   6.324   2.541 -1.0125  0.0857  0.7075
 7016TIP3   OH245242   3.317   0.797   1.690 -0.1378 -0.4081  0.0775
 7016TIP3    H145243   3.402   0.767   1.724 -0.4327 -0.6829  0.5807
 7016TIP3    H245244   3.339   0.841   1.608  0.5410 -0.1085  0.4076
 7017TIP3   OH245245   2.269   5.758   3.520 -0.2002  0.2270  0.6197
 7017TIP3    H145246   2.363   5.766   3.536 -0.0924 -0.3523  0.3135
 7017TIP3    H245247   2.243   5.842   3.482  0.6346 -0.3518 -1.3522
 7018TIP3   OH245248   6.337   6.535   1.577  0.7048 -0.3909 -0.3538
 7018TIP3    H145249   6.317   6.553   1.669  0.8596  1.0014 -0.5644
 7018TIP3    H245250   6.418   6.484   1.579  0.3074 -1.0119  0.2977
 7019TIP3   OH245251   1.614   1.707   3.355 -0.1436 -0.0249  0.0836
 7019TIP3    H145252   1.595   1.777   3.417 -0.6133  2.2178 -2.4212
 7019TIP3    H245253   1.698   1.731   3.317  0.1779 -1.3877 -0.1052
 7020TIP3   OH245254   2.267   4.342   2.536 -0.0549 -0.6940  0.2344
 7020TIP3    H145255   2.223   4.258   2.552 -0.3889 -0.5487  0.1025
 7020TIP3    H245256   2.227   4.402   2.599 -0.0149 -0.5701  0.1426
 7021TIP3   OH245257   2.483   3.558   2.173  0.0226 -0.6788  0.3594
 7021TIP3    H145258   2.435   3.607   2.240 -0.1183 -1.9458  1.2082
 7021TIP3    H245259   2.575   3.573   2.194  0.2679  3.2629 -2.3297
 7022TIP3   OH245260   2.716   3.134   2.679 -0.1553 -0.8254 -0.1613
 7022TIP3    H145261   2.680   3.203   2.623 -0.4862  0.2362  1.3149
 7022TIP3    H245262   2.811   3.139   2.665 -0.2560 -0.7855 -0.8592
 7023TIP3   OH245263   3.072   4.802   0.741 -0.2225  0.5572 -0.1349
 7023TIP3    H145264   3.115   4.721   0.713 -1.1088 -0.2988  0.9015
 7023TIP3    H245265   2.981   4.792   0.713 -0.1234  1.6733 -0.9327
 7024TIP3   OH245266   2.248   0.078   4.550  0.0199  0.0597  0.1965
 7024TIP3    H145267   2.259   0.035   4.466  0.4237  0.4319  0.0548
 7024TIP3    H245268   2.167   0.129   4.540 -1.2134 -1.6942  0.8192
 7025TIP3   OH245269   6.659   4.832   0.785  0.0213 -0.8471 -0.0941
 7025TIP3    H145270   6.647   4.747   0.827  2.0293 -0.8844  0.4731
 7025TIP3    H245271   6.697   4.888   0.852 -2.8213  1.0775  0.0808
 7026TIP3   OH245272   5.069   5.462   2.308 -0.4131  0.2003 -0.3115
 7026TIP3    H145273   5.054   5.393   2.243 -0.2370 -2.5126  2.3020
 7026TIP3    H245274   5.155   5.497   2.286 -0.1460 -0.9968 -1.3028
 7027TIP3   OH245275   0.155   5.136   3.666 -0.0165 -0.1848  0.1533
 7027TIP3    H145276   0.242   5.096   3.665  0.6670  1.1663  1.6044
 7027TIP3    H245277   0.097   5.067   3.697  0.5386 -1.0673 -0.7238
 7028TIP3   OH245278   2.928   0.559   2.657  0.8000  0.3745 -0.4955
 7028TIP3    H145279   2.904   0.577   2.748  3.6191 -0.0911  0.4331
 7028TIP3    H245280   2.885   0.629   2.607  1.8486  2.7062  1.6109
 7029TIP3   OH245281   0.973   1.301   1.077  0.2706  0.9621 -0.9598
 7029TIP3    H145282   1.064   1.306   1.046  0.9062 -1.6811  0.2464
 7029TIP3    H245283   0.969   1.364   1.149  1.5643  0.2120 -0.1898
 7030TIP3   OH245284   4.010   4.014   3.031 -0.0587 -0.0742  0.0232
 7030TIP3    H145285   4.035   3.982   3.118  0.5550  2.2159  0.7503
 7030TIP3    H245286   4.075   3.976   2.972  1.5313  0.9577  1.0540
 7031TIP3   OH245287   2.278   2.763   2.418 -0.4002 -0.4319 -0.0570
 7031TIP3    H145288   2.273   2.834   2.354  0.5186 -0.4697 -0.1893
 7031TIP3    H245289   2.372   2.742   2.423 -0.3691 -0.0267  1.7276
 7032TIP3   OH245290   1.665   0.030   3.231 -0.6445  0.3265 -0.5321
 7032TIP3    H145291   1.754   0.063   3.221 -0.6427  0.9996  1.3131
 7032TIP3    H245292   1.649  -0.021   3.152  1.3927  0.1455 -0.8827
 7033TIP3   OH245293   2.094   4.150   3.501  0.2264  0.0342 -0.2170
 7033TIP3    H145294   2.097   4.080   3.436  0.6618 -0.0659 -0.0891
 7033TIP3    H245295   2.129   4.111   3.580 -1.1208 -0.1146  0.3345
 7034TIP3   OH245296   0.072   5.236   3.436 -0.2577  0.2183 -0.6181
 7034TIP3    H145297  -0.018   5.210   3.416  0.1149 -1.1620 -0.5945
 7034TIP3    H245298   0.099   5.178   3.507  0.6785  0.5485 -0.6863
 7035TIP3   OH245299   1.491   0.440   2.246  0.0308  0.3477  0.8800
 7035TIP3    H145300   1.449   0.419   2.162 -1.1571  1.6063  1.1151
 7035TIP3    H245301   1.584   0.449   2.225  0.1252 -1.6830  0.1740
 7036TIP3   OH245302   5.333   1.556   3.814  0.1799 -0.2842  0.2456
 7036TIP3    H145303   5.344   1.623   3.747 -1.4719 -1.2152 -1.0405
 7036TIP3    H245304   5.388   1.483   3.784 -0.4455 -0.6461 -0.0493
 7037TIP3   OH245305   5.162   3.818   0.521 -0.0600 -0.7062 -0.7596
 7037TIP3    H145306   5.247   3.861   0.512 -0.0017 -0.6832 -0.1623
 7037TIP3    H245307   5.170   3.768   0.602 -1.7116  1.9288  1.1967
 7038TIP3   OH245308   6.102   0.207   9.877  0.4747  0.1417 -0.3764
 7038TIP3    H145309   6.046   0.239   9.807  0.8840 -0.5342 -1.0233
 7038TIP3    H245310   6.051   0.138   9.919  0.8181 -0.5019 -0.9915
 7039TIP3   OH245311   0.941   0.106   3.692  0.0308 -0.0073 -0.0212
 7039TIP3    H145312   1.007   0.070   3.752 -0.6951  0.2556  0.9656
 7039TIP3    H245313   0.857   0.078   3.730 -0.4844  1.3503 -0.1342
 7040TIP3   OH245314   4.165   2.656   2.751  0.1624  0.4960  0.2324
 7040TIP3    H145315   4.177   2.569   2.713  0.9885  1.2873 -1.4110
 7040TIP3    H245316   4.251   2.697   2.746  0.0709  1.0007  2.1246
 7041TIP3   OH245317   0.025   1.219   0.589  0.4318  0.3365 -0.5485
 7041TIP3    H145318  -0.000   1.252   0.502 -0.4981  1.0891 -0.0113
 7041TIP3    H245319   0.111   1.256   0.605  0.3246  0.7331 -0.8799
 7042TIP3   OH245320   1.621   4.845   4.021 -0.0930  0.7205 -0.1004
 7042TIP3    H145321   1.602   4.876   3.932 -0.8269  0.2556 -0.1227
 7042TIP3    H245322   1.571   4.763   4.028  1.3743 -0.1981  0.1209
 7043TIP3   OH245323   1.343   6.313   3.638 -0.1961  0.3891  0.4833
 7043TIP3    H145324   1.371   6.247   3.701  0.7105 -0.6788 -0.9800
 7043TIP3    H245325   1.417   6.373   3.631 -0.3014  0.5161  0.4563
 7044TIP3   OH245326   1.473   1.525   1.327  0.2028 -0.0618  0.4860
 7044TIP3    H145327   1.393   1.478   1.354 -0.5729 -0.4712 -2.1918
 7044TIP3    H245328   1.543   1.483   1.377 -0.9681 -1.4641  1.0443
 7045TIP3   OH245329   5.011   6.673   3.438 -0.1815 -0.5869 -0.1141
 7045TIP3    H145330   5.091   6.712   3.403 -0.9639 -0.9146 -2.4308
 7045TIP3    H245331   5.014   6.692   3.531  0.7771  2.6688 -0.6976
 7046TIP3   OH245332   3.412   0.964   1.496 -0.6147  0.0858  0.2062
 7046TIP3    H145333   3.414   0.921   1.410  1.0750 -2.5127  1.4194
 7046TIP3    H245334   3.476   1.035   1.488  0.5612 -0.9952 -0.3272
 7047TIP3   OH245335   0.054   2.400   2.778  0.5495  0.2074  0.1743
 7047TIP3    H145336  -0.040   2.397   2.764  0.8246  0.4270 -2.2369
 7047TIP3    H245337   0.072   2.492   2.799  0.2429  0.1470  0.7308
 7048TIP3   OH245338   5.908   2.310   2.134 -0.1332  0.0855  0.3812
 7048TIP3    H145339   5.920   2.338   2.044 -0.5405 -0.7466  0.0490
 7048TIP3    H245340   5.996   2.289   2.165 -0.1294 -1.0297 -0.3184
 7049TIP3   OH245341   3.509   4.774   1.074 -0.1071 -0.3526  0.1004
 7049TIP3    H145342   3.518   4.822   0.992 -1.2334 -0.9140 -0.3851
 7049TIP3    H245343   3.414   4.768   1.087  0.0363  1.2627  2.3735
 7050TIP3   OH245344   6.029   6.700   0.536  0.2808  0.1815 -0.0633
 7050TIP3    H145345   5.973   6.776   0.523  0.4991  0.5931  1.2512
 7050TIP3    H245346   6.062   6.678   0.449  0.3475  1.6876 -0.4333
 7051TIP3   OH245347   0.286   4.057   2.220 -0.5570 -0.2840 -0.2955
 7051TIP3    H145348   0.209   4.001   2.232 -1.1737  0.9408  1.9996
 7051TIP3    H245349   0.258   4.144   2.249  0.7951  0.9581 -2.4118
 7052TIP3   OH245350   5.342   3.912   3.497 -0.3447  0.7079  0.6503
 7052TIP3    H145351   5.430   3.898   3.461 -1.2495 -0.9559 -1.0420
 7052TIP3    H245352   5.289   3.935   3.422 -2.2115 -2.3888  0.8649
 7053TIP3   OH245353   4.762   1.982   2.083 -0.3813  0.2321  0.2681
 7053TIP3    H145354   4.836   1.983   2.022  0.3300  3.4027  1.0264
 7053TIP3    H245355   4.793   2.031   2.159 -2.2401 -1.0955  1.9786
 7054TIP3   OH245356   6.460   2.829   2.717  0.5616 -0.2014 -0.2518
 7054TIP3    H145357   6.368   2.848   2.699  0.3926  0.2860  1.0474
 7054TIP3    H245358   6.508   2.899   2.673  0.2873 -0.1439 -0.4645
 7055TIP3   OH245359   2.987   6.200   4.089  0.2977 -0.0702  0.1389
 7055TIP3    H145360   3.067   6.191   4.037  0.6705 -1.1710  0.8659
 7055TIP3    H245361   2.969   6.111   4.120 -2.1799 -0.1972 -1.3821
 7056TIP3   OH245362   2.122   3.136   2.221 -0.3314  0.0536 -0.1823
 7056TIP3    H145363   2.154   3.226   2.211  1.5927 -0.1589  2.9127
 7056TIP3    H245364   2.201   3.082   2.216 -0.9929 -1.1182  1.4007
 7057TIP3   OH245365   2.695   2.147   2.292 -0.5279 -0.0213 -0.2623
 7057TIP3    H145366   2.754   2.223   2.285  0.0329 -0.4595 -0.3122
 7057TIP3    H245367   2.688   2.114   2.202  1.4334 -1.6806  0.1265
 7058TIP3   OH245368   1.097   1.540   1.262 -0.2393 -0.4682 -0.3019
 7058TIP3    H145369   1.154   1.486   1.317 -0.3361 -1.4423 -1.1219
 7058TIP3    H245370   1.157   1.587   1.204 -0.1862 -0.1070  0.0390
 7059TIP3   OH245371   0.914   2.926   1.201  0.0698 -0.2786 -0.1589
 7059TIP3    H145372   0.930   2.930   1.295 -0.4885 -1.5726  0.0124
 7059TIP3    H245373   0.968   2.996   1.164 -0.6384  1.0408  1.2190
 7060TIP3   OH245374   1.749   3.162   2.846 -0.0449 -0.2275  0.2356
 7060TIP3    H145375   1.675   3.116   2.886  0.0050 -1.2937 -0.8123
 7060TIP3    H245376   1.748   3.249   2.885 -0.5860 -0.8958  1.7739
 7061TIP3   OH245377   5.420   4.095   1.331 -0.0763  1.1167 -0.0535
 7061TIP3    H145378   5.500   4.123   1.286  0.5005 -1.6930 -1.0028
 7061TIP3    H245379   5.371   4.047   1.264  0.5935 -2.8978  2.0375
 7062TIP3   OH245380   0.449   0.342   3.864  0.0702  0.5578  0.3277
 7062TIP3    H145381   0.395   0.421   3.853 -0.5841  0.0179 -0.4834
 7062TIP3    H245382   0.537   0.376   3.879 -0.2656  1.4512  0.4045
 7063TIP3   OH245383   0.140   1.281   3.762  0.0456 -0.1456 -0.7322
 7063TIP3    H145384   0.227   1.250   3.789 -0.1694  0.3757  0.6245
 7063TIP3    H245385   0.087   1.275   3.841 -1.8692 -2.7812 -2.0661
 7064TIP3   OH245386   2.273   5.449   3.084  0.1470  0.3504 -0.1367
 7064TIP3    H145387   2.251   5.473   3.174 -0.2386 -3.5035  0.9728
 7064TIP3    H245388   2.197   5.402   3.052  0.5940  0.9348 -2.2814
 7065TIP3   OH245389   5.478   2.475   2.011 -0.0849  0.0505 -0.0715
 7065TIP3    H145390   5.507   2.541   1.948 -1.5960  1.2874  0.4811
 7065TIP3    H245391   5.384   2.490   2.020 -0.5407 -2.3252 -0.0764
 7066TIP3   OH245392   1.680   0.277   2.636  0.4943 -0.6367  0.5898
 7066TIP3    H145393   1.608   0.283   2.574 -0.1076  0.1644  1.3382
 7066TIP3    H245394   1.685   0.184   2.659  1.6646 -1.1999 -1.6975
 7067TIP3   OH245395   5.238   2.816   2.574  0.4873 -0.7376  0.0994
 7067TIP3    H145396   5.169   2.771   2.526  0.6088  0.2306 -1.0372
 7067TIP3    H245397   5.296   2.852   2.506  0.8000  0.4805  0.9588
 7068TIP3   OH245398   0.349   4.328   3.190  0.5042  0.7446 -0.0251
 7068TIP3    H145399   0.312   4.248   3.153  1.2747  1.0313 -1.4753
 7068TIP3    H245400   0.442   4.310   3.199  0.3441  0.6487  1.9593
 7069TIP3   OH245401   5.374   4.165   1.768  0.2063 -0.5069 -0.2537
 7069TIP3    H145402   5.355   4.190   1.858 -1.5169 -2.5060  0.0230
 7069TIP3    H245403   5.295   4.187   1.719  0.5291 -0.8674 -0.9536
 7070TIP3   OH245404   1.110   6.621   3.815 -0.3634 -0.3500 -0.9228
 7070TIP3    H145405   1.057   6.556   3.861  1.3402 -1.8736 -0.9864
 7070TIP3    H245406   1.191   6.626   3.866  0.1966  0.4639 -1.8592
 7071TIP3   OH245407   3.823   5.832   1.464 -0.2917 -0.3945 -0.2081
 7071TIP3    H145408   3.741   5.832   1.416 -1.0938 -1.1392  1.1026
 7071TIP3    H245409   3.833   5.923   1.495  0.6619  0.3056 -2.3898
 7072TIP3   OH245410   0.523   5.447   2.362  0.5255  0.0893 -0.0236
 7072TIP3    H145411   0.524   5.517   2.297  0.7342 -0.2922 -0.4417
 7072TIP3    H245412   0.444   5.397   2.341  1.7979 -1.4256 -1.5210
 7073TIP3   OH245413   4.247   4.070   1.990 -0.0736  0.6270 -0.3037
 7073TIP3    H145414   4.269   4.015   2.065 -1.3368 -1.0990 -1.1207
 7073TIP3    H245415   4.267   4.016   1.914 -0.9264  1.4675 -1.1574
 7074TIP3   OH245416   3.052   2.860   3.110 -0.0291 -0.0420 -0.7891
 7074TIP3    H145417   2.961   2.846   3.082  0.7046 -0.8779 -2.9576
 7074TIP3    H245418   3.055   2.826   3.199 -1.8382 -0.0129 -0.6777
 7075TIP3   OH245419   4.483   0.228   2.036 -0.1673  0.6222 -0.0187
 7075TIP3    H145420   4.447   0.309   2.071  0.6798  0.1680  2.0416
 7075TIP3    H245421   4.406   0.172   2.022 -0.4949  0.2108  2.8664
 7076TIP3   OH245422   4.595   1.887   3.065  0.0142 -1.2760  0.1448
 7076TIP3    H145423   4.561   1.959   3.119 -2.7362 -1.4119 -1.2414
 7076TIP3    H245424   4.605   1.814   3.126  1.3283 -0.2113  1.2696
 7077TIP3   OH245425   1.750   4.013   2.139 -0.4449 -0.0046 -0.5321
 7077TIP3    H145426   1.829   4.052   2.102  0.2896 -0.4461  0.5577
 7077TIP3    H245427   1.683   4.081   2.130  0.3811  0.8499 -0.2704
 7078TIP3   OH245428   4.232   1.599   1.679 -0.3693  0.0801 -0.1720
 7078TIP3    H145429   4.170   1.553   1.622 -0.7766  0.7393 -0.2722
 7078TIP3    H245430   4.179   1.629   1.753 -0.0630  0.1725  0.0133
 7079TIP3   OH245431   3.159   4.933   1.859 -0.8089 -0.2310 -0.1376
 7079TIP3    H145432   3.208   4.938   1.942  1.2430  1.6632 -1.3607
 7079TIP3    H245433   3.093   5.002   1.867 -0.9666 -0.4081  0.1202
 7080TIP3   OH245434   5.804   2.218   1.235 -0.0716 -0.3167  0.3611
 7080TIP3    H145435   5.770   2.286   1.178  0.6043  0.3531  0.7286
 7080TIP3    H245436   5.825   2.145   1.176 -1.2259 -0.3912  0.0237
 7081TIP3   OH245437   5.402   1.464   2.392  0.2431 -0.2161  0.0243
 7081TIP3    H145438   5.319   1.476   2.438 -0.5857 -1.4254 -1.0638
 7081TIP3    H245439   5.420   1.370   2.399  0.7427 -0.2162 -1.0047
 7082TIP3   OH245440   1.474   0.304   3.834 -0.7527  0.4515  0.7894
 7082TIP3    H145441   1.486   0.290   3.740 -1.9471  1.4945  0.4469
 7082TIP3    H245442   1.489   0.397   3.847 -3.4294  0.9378  1.0734
 7083TIP3   OH245443   3.733   3.914   0.983 -0.3947  0.1069  0.1671
 7083TIP3    H145444   3.653   3.904   0.931 -1.0057  1.4219  0.8171
 7083TIP3    H245445   3.778   3.989   0.945  0.6342 -0.7123 -0.2893
 7084TIP3   OH245446   2.919   5.435   3.720  0.5930  0.8490  0.7004
 7084TIP3    H145447   3.002   5.475   3.746 -0.2076  1.2480  2.8806
 7084TIP3    H245448   2.933   5.408   3.629  2.8305  1.5899  0.7511
 7085TIP3   OH245449   5.767   1.327   2.987  0.2397 -0.1038 -0.6908
 7085TIP3    H145450   5.767   1.286   3.073  1.6375  0.0796 -0.5835
 7085TIP3    H245451   5.859   1.331   2.961 -0.0960  0.4302 -1.9138
 7086TIP3   OH245452   5.402   0.120   1.869 -0.3439 -0.5717 -0.1603
 7086TIP3    H145453   5.464   0.141   1.799 -0.2673 -0.7411 -0.1416
 7086TIP3    H245454   5.426   0.180   1.940 -0.8327  0.0479 -0.5127
 7087TIP3   OH245455   2.578   4.566   0.602 -0.3583 -0.1792  0.5936
 7087TIP3    H145456   2.585   4.471   0.601 -0.2552 -0.2738 -3.1785
 7087TIP3    H245457   2.495   4.584   0.557  1.1965  1.4639 -1.8366
 7088TIP3   OH245458   2.486   4.945   3.137  0.7915  0.9364 -0.1566
 7088TIP3    H145459   2.557   4.978   3.083  1.1483  0.0448 -0.2414
 7088TIP3    H245460   2.465   4.859   3.101 -0.9261  1.5324 -0.6864
 7089TIP3   OH245461   3.955   3.611   1.393  0.1672  0.0236 -0.0015
 7089TIP3    H145462   4.045   3.578   1.392  1.4908  3.1850 -1.8934
 7089TIP3    H245463   3.911   3.563   1.323  1.4711  0.8276 -1.4402
 7090TIP3   OH245464   4.380   5.742   2.394  0.2907  0.2379 -0.2863
 7090TIP3    H145465   4.293   5.783   2.401  1.1586  1.9825  1.7292
 7090TIP3    H245466   4.407   5.760   2.304 -0.5949  1.5662 -0.3295
 7091TIP3   OH245467   0.343   1.911   2.844  0.1938  0.3699  0.2565
 7091TIP3    H145468   0.399   1.988   2.856 -0.8429  1.3503 -0.9125
 7091TIP3    H245469   0.385   1.843   2.896  2.2479  1.1697 -0.2383
 7092TIP3   OH245470   0.953   5.360   1.103  0.1872  0.3684 -0.0041
 7092TIP3    H145471   0.966   5.281   1.050  0.8316  0.3934  0.1118
 7092TIP3    H245472   1.042   5.392   1.121  0.0097  0.0488  1.5773
 7093TIP3   OH245473   2.212   0.877   3.461 -0.2798 -0.7690  0.5063
 7093TIP3    H145474   2.165   0.931   3.398 -1.2972 -0.8910  1.1408
 7093TIP3    H245475   2.234   0.937   3.533  1.4840 -0.4639 -0.2206
 7094TIP3   OH245476   6.443   6.696   2.968 -0.1889  0.1373 -0.5323
 7094TIP3    H145477   6.503   6.768   2.989 -0.0994  0.7533 -2.6536
 7094TIP3    H245478   6.419   6.711   2.877 -1.2063 -1.8175 -0.6369
 7095TIP3   OH245479   2.658   3.627   3.287 -0.0474 -0.6464 -0.4130
 7095TIP3    H145480   2.679   3.720   3.288 -0.8795 -0.4439  0.5490
 7095TIP3    H245481   2.741   3.584   3.268  0.8151  0.2150  1.1179
 7096TIP3   OH245482   6.646   5.591   1.368  0.3211 -0.2988 -0.1413
 7096TIP3    H145483   6.674   5.661   1.428  1.9371  0.2180 -1.4157
 7096TIP3    H245484   6.572   5.550   1.412 -0.3914  1.9101  0.8945
 7097TIP3   OH245485   2.500   2.771   1.614  0.4709  0.2042  0.3906
 7097TIP3    H145486   2.533   2.770   1.524  0.0465 -0.0143  0.2356
 7097TIP3    H245487   2.540   2.694   1.654  0.3381  0.0722  0.2712
 7098TIP3   OH245488   2.106   3.761   2.197 -0.2757  0.2571 -0.3640
 7098TIP3    H145489   2.043   3.790   2.263 -0.7798 -1.2199 -0.1518
 7098TIP3    H245490   2.054   3.707   2.137  0.7843 -1.0117 -0.1814
 7099TIP3   OH245491   6.681   6.632   2.723 -0.1290  0.3930 -0.2837
 7099TIP3    H145492   6.685   6.664   2.633  0.3220 -0.3666 -0.5375
 7099TIP3    H245493   6.721   6.702   2.775 -1.7264  1.4999 -0.4704
 7100TIP3   OH245494   2.254   3.394   2.164  0.2543  0.2441 -0.7037
 7100TIP3    H145495   2.209   3.417   2.083  0.6144  0.2811 -0.8947
 7100TIP3    H245496   2.336   3.444   2.162  0.4924 -0.1284 -0.5525
 7101TIP3   OH245497   6.172   3.098   3.112 -0.2184 -0.2272  0.2748
 7101TIP3    H145498   6.127   3.181   3.127 -0.9911 -0.4357 -0.7558
 7101TIP3    H245499   6.265   3.119   3.118 -0.4256  0.5010  1.0169
 7102TIP3   OH245500   4.082   1.978   2.697 -0.1752 -0.3797 -0.2367
 7102TIP3    H145501   4.128   2.021   2.770 -2.6922  0.1143  1.1538
 7102TIP3    H245502   4.007   1.936   2.738  0.5837 -3.7891 -1.9564
 7103TIP3   OH245503   1.812   4.037   0.496  0.3252  0.1220 -0.4885
 7103TIP3    H145504   1.896   4.049   0.451  0.3328 -0.6363 -0.6881
 7103TIP3    H245505   1.777   3.956   0.460 -0.4901  0.4254 -0.3939
 7104TIP3   OH245506   3.040   4.222   3.484 -0.3446  0.7514 -0.3872
 7104TIP3    H145507   3.004   4.189   3.567 -1.1024 -0.4700 -1.1684
 7104TIP3    H245508   2.965   4.223   3.424  0.6341 -0.6719 -1.7083
 7105TIP3   OH245509   1.843   6.576   1.170  0.2929 -0.1384  1.1821
 7105TIP3    H145510   1.846   6.501   1.110 -0.4389  0.0087  0.9491
 7105TIP3    H245511   1.857   6.652   1.115  2.8349 -0.1636  1.6583
 7106TIP3   OH245512   3.616   2.104   1.113 -0.4028 -0.9793  0.2423
 7106TIP3    H145513   3.530   2.109   1.071 -0.0689 -0.1381 -0.3700
 7106TIP3    H245514   3.617   2.178   1.174  0.0893 -0.6599 -0.1487
 7107TIP3   OH245515   1.113   3.908   2.369 -0.0133 -0.1515 -0.2225
 7107TIP3    H145516   1.106   3.914   2.273  2.1439 -1.1513 -0.4938
 7107TIP3    H245517   1.136   3.817   2.386 -1.6335 -0.3096  1.3829
 7108TIP3   OH245518   0.505   2.453   1.032  0.0248  0.7968  0.0340
 7108TIP3    H145519   0.486   2.397   0.958 -0.5181  1.1839 -0.1294
 7108TIP3    H245520   0.451   2.418   1.103 -1.8276  2.2440 -0.5851
 7109TIP3   OH245521   2.446   0.510   2.407 -0.6552 -0.1781 -0.2379
 7109TIP3    H145522   2.400   0.436   2.448  0.9046 -1.9033 -1.4609
 7109TIP3    H245523   2.376   0.566   2.374 -2.0001 -2.7317 -2.0797
 7110TIP3   OH245524   2.812   4.026   1.705  0.1107 -0.1720 -0.0579
 7110TIP3    H145525   2.722   4.040   1.734  0.2721  0.9371 -0.0446
 7110TIP3    H245526   2.861   4.009   1.785  0.0680  0.1582  0.0415
 7111TIP3   OH245527   5.326   4.789   2.606  0.4131 -0.0629 -0.2302
 7111TIP3    H145528   5.260   4.722   2.623 -0.6164  1.0027  0.1761
 7111TIP3    H245529   5.355   4.774   2.516 -0.2564 -0.6663 -0.3459
 7112TIP3   OH245530   4.700   3.166   2.815 -0.2423 -0.0410 -0.3171
 7112TIP3    H145531   4.721   3.147   2.723  1.7403  1.4548 -0.2456
 7112TIP3    H245532   4.643   3.243   2.811  1.2052  1.0878 -0.3179
 7113TIP3   OH245533   0.920   1.778   2.025  0.0551 -0.6876 -0.2415
 7113TIP3    H145534   0.922   1.808   1.934  1.5156  0.7599  0.2131
 7113TIP3    H245535   0.975   1.841   2.072 -3.0259  0.3866  2.2203
 7114TIP3   OH245536   2.986   5.104   3.161  0.1348  0.0661 -0.2952
 7114TIP3    H145537   3.050   5.168   3.130  0.7025  0.3952  1.4875
 7114TIP3    H245538   2.904   5.152   3.168  0.6929  0.8180  1.6348
 7115TIP3   OH245539   4.161   4.228   1.791 -0.4274 -0.0478  0.5062
 7115TIP3    H145540   4.066   4.223   1.783 -0.4336 -0.4453  0.8234
 7115TIP3    H245541   4.182   4.175   1.867  0.0253  0.2881  0.6202
 7116TIP3   OH245542   3.299   0.721   2.870  0.2574 -0.1535 -0.5206
 7116TIP3    H145543   3.369   0.702   2.808  0.4283 -1.4279  0.0470
 7116TIP3    H245544   3.240   0.646   2.865  0.0596 -0.0917  0.5672
 7117TIP3   OH245545   1.668   3.772   1.904 -0.7667 -0.1915  0.0618
 7117TIP3    H145546   1.590   3.813   1.941 -1.7397  0.3977 -2.5022
 7117TIP3    H245547   1.679   3.692   1.955 -4.2703 -1.3687 -0.7524
 7118TIP3   OH245548   3.182   0.489   2.773 -0.2357 -0.2095  0.0758
 7118TIP3    H145549   3.092   0.489   2.743 -0.1543 -1.0679 -0.1981
 7118TIP3    H245550   3.179   0.448   2.859  0.0195 -1.2502 -0.3914
 7119TIP3   OH245551   4.470   5.426   4.047 -0.6316 -0.2184  0.2683
 7119TIP3    H145552   4.402   5.425   4.114 -1.6118  1.4031 -0.6325
 7119TIP3    H245553   4.534   5.489   4.079 -0.8817  0.2283 -0.1056
 7120TIP3   OH245554   4.824   4.687   1.926  0.0191 -0.1194  0.4614
 7120TIP3    H145555   4.737   4.725   1.934 -0.0016 -0.2251  0.7441
 7120TIP3    H245556   4.857   4.683   2.015 -0.5496 -2.0847  0.6304
 7121TIP3   OH245557   6.020   2.885   1.921  0.6138 -0.2779  0.1476
 7121TIP3    H145558   6.110   2.911   1.939  1.0475 -2.1900  1.0649
 7121TIP3    H245559   5.979   2.878   2.007 -0.2527  0.0365 -0.2269
 7122TIP3   OH245560   2.178   1.385   0.913 -0.0233 -0.1339 -0.0947
 7122TIP3    H145561   2.220   1.448   0.855 -0.7239 -1.2227 -1.8360
 7122TIP3    H245562   2.098   1.429   0.942 -0.6746 -0.3161 -1.5600
 7123TIP3   OH245563   5.216   6.299   2.552  0.3262 -0.3503  0.1768
 7123TIP3    H145564   5.200   6.379   2.502  0.3436 -0.5626 -0.1737
 7123TIP3    H245565   5.302   6.268   2.522  0.3459 -0.4682  0.3521
 7124TIP3   OH245566   5.335   0.917   1.415  0.7582 -0.0595 -0.2983
 7124TIP3    H145567   5.419   0.943   1.450  1.0868  0.5874 -1.5191
 7124TIP3    H245568   5.291   0.999   1.393 -0.2562 -0.3813  0.4374
 7125TIP3   OH245569   5.192   0.542   3.928  0.0447 -0.0441  1.0543
 7125TIP3    H145570   5.256   0.588   3.981  1.9256 -1.7638  0.4147
 7125TIP3    H245571   5.242   0.506   3.855 -2.1427  0.7723 -1.0044
 7126TIP3   OH245572   3.177   2.480   0.455 -0.3345 -0.2252  0.4911
 7126TIP3    H145573   3.196   2.573   0.444 -0.9939 -0.2787 -1.7079
 7126TIP3    H245574   3.214   2.457   0.540  1.8890  1.5122  0.0860
 7127TIP3   OH245575   4.117   3.925   3.282 -0.5628  0.5066  0.6054
 7127TIP3    H145576   4.170   4.004   3.283  0.5708 -0.0933 -2.5792
 7127TIP3    H245577   4.175   3.856   3.316  0.4870  0.0339 -1.9815
 7128TIP3   OH245578   1.246   5.764   1.348 -0.1231 -0.2331  0.0594
 7128TIP3    H145579   1.233   5.671   1.364 -3.1529  0.0756 -0.1641
 7128TIP3    H245580   1.196   5.783   1.269 -0.3328  1.7539  0.6172
 7129TIP3   OH245581   3.552   5.575   1.022 -0.5968  0.4103  0.0969
 7129TIP3    H145582   3.457   5.567   1.033 -0.7928 -0.5809 -1.9293
 7129TIP3    H245583   3.566   5.669   1.007 -1.2666  0.5341  0.2184
 7130TIP3   OH245584   1.539   2.819   2.793 -0.6653 -0.4318  0.3609
 7130TIP3    H145585   1.597   2.883   2.752  0.1817 -0.2388  1.8066
 7130TIP3    H245586   1.566   2.735   2.755  1.3366 -0.4939  1.7687
 7131TIP3   OH245587   0.129   0.069   1.888  0.3430  0.0408  0.0733
 7131TIP3    H145588   0.169   0.134   1.831 -2.3194  2.0847  0.2970
 7131TIP3    H245589   0.192   0.056   1.959  1.9727  0.5164 -1.2461
 7132TIP3   OH245590   1.350   2.350   1.698 -0.7294  0.2750 -0.0788
 7132TIP3    H145591   1.255   2.352   1.710 -0.7450 -2.7039  1.0541
 7132TIP3    H245592   1.386   2.351   1.786  0.2183 -0.2682 -0.4431
 7133TIP3   OH245593   6.547   5.264   2.249 -0.9103 -0.2839  0.1298
 7133TIP3    H145594   6.453   5.255   2.233 -1.4345  1.3282  1.8871
 7133TIP3    H245595   6.566   5.354   2.223 -0.3879  0.1644  1.9554
 7134TIP3   OH245596   0.266   2.014   0.434  0.2013  0.1334  0.0533
 7134TIP3    H145597   0.224   2.051   0.512 -0.2072  0.3113 -0.2495
 7134TIP3    H245598   0.216   1.935   0.415  0.1570  0.2158 -0.1672
 7135TIP3   OH245599   3.015   6.419   0.576 -0.1698  0.0287 -0.3528
 7135TIP3    H145600   3.066   6.490   0.616  0.2226 -0.3407 -0.1909
 7135TIP3    H245601   2.993   6.452   0.489  1.3703 -0.2751 -0.8879
 7136TIP3   OH245602   3.754   1.781   3.209  0.0183 -0.6404 -0.0745
 7136TIP3    H145603   3.791   1.729   3.279 -1.0322  0.0879  1.0559
 7136TIP3    H245604   3.811   1.858   3.203  2.3853 -2.3998 -2.6542
 7137TIP3   OH245605   2.866   0.700   2.162  0.0240 -0.1927  0.0909
 7137TIP3    H145606   2.920   0.623   2.143 -0.1953 -0.5523  0.8573
 7137TIP3    H245607   2.840   0.733   2.076  0.2861 -0.8584 -0.2529
 7138TIP3   OH245608   4.489   6.226   0.873 -0.8937  0.1401  0.6266
 7138TIP3    H145609   4.530   6.175   0.803  0.7120 -1.0309  2.3196
 7138TIP3    H245610   4.410   6.178   0.894 -0.1137 -0.9097  1.2488
 7139TIP3   OH245611   1.878   2.991   3.638 -0.0096 -0.9141  1.0649
 7139TIP3    H145612   1.789   2.990   3.674 -1.1993 -1.3662 -1.6334
 7139TIP3    H245613   1.866   2.970   3.545  2.8494 -0.1058  0.4246
 7140TIP3   OH245614   2.076   0.027   2.850 -0.3839 -0.6288  0.1043
 7140TIP3    H145615   2.148   0.076   2.811 -0.5877  0.0317  0.5461
 7140TIP3    H245616   2.070  -0.053   2.798  0.1788 -0.3443 -0.4032
 7141TIP3   OH245617   1.737   3.268   3.634 -0.7361 -0.1557  0.1519
 7141TIP3    H145618   1.690   3.346   3.662 -1.0633 -0.4327  0.3711
 7141TIP3    H245619   1.811   3.262   3.693 -1.0850 -0.3927  0.5669
 7142TIP3   OH245620   4.681   4.497   1.315  0.1119  0.1349  0.6135
 7142TIP3    H145621   4.774   4.505   1.291  0.2243 -0.1400  0.9390
 7142TIP3    H245622   4.682   4.445   1.395 -0.3535 -0.2043  0.4018
 7143TIP3   OH245623   3.437   5.994   2.350 -0.4212 -0.9990  0.3721
 7143TIP3    H145624   3.442   5.973   2.444 -1.8186 -2.5940  0.1268
 7143TIP3    H245625   3.492   6.072   2.341 -0.4131 -0.6746  2.5500
 7144TIP3   OH245626   3.279   4.811   3.192  0.7302  0.3894  0.3016
 7144TIP3    H145627   3.224   4.751   3.243 -0.2428  0.5120 -0.5666
 7144TIP3    H245628   3.306   4.760   3.116 -0.3872  1.1052 -0.6205
 7145TIP3   OH245629   0.484   4.773   1.325  0.5384 -0.4700 -0.0534
 7145TIP3    H145630   0.508   4.728   1.244 -0.7416 -0.8347 -0.2580
 7145TIP3    H245631   0.389   4.782   1.320  0.6320  1.1729  0.5657
 7146TIP3   OH245632   2.196   0.427   1.470  0.3719  0.7074 -0.0392
 7146TIP3    H145633   2.249   0.360   1.428 -2.9227 -0.9938 -1.8352
 7146TIP3    H245634   2.219   0.422   1.563  1.2394 -1.9224 -0.3362
 7147TIP3   OH245635   0.961   0.200   1.285 -0.0303  0.0672 -0.0191
 7147TIP3    H145636   1.032   0.239   1.233 -0.1111 -0.8872 -0.8604
 7147TIP3    H245637   0.887   0.260   1.274  0.2702  0.4242 -0.1304
 7148TIP3   OH245638   0.495   1.147   3.020 -0.3811 -0.0075 -0.2855
 7148TIP3    H145639   0.452   1.231   3.029 -1.3410 -0.1348 -2.7413
 7148TIP3    H245640   0.582   1.169   2.984 -0.8500 -0.0440 -1.4975
 7149TIP3   OH245641   3.328   2.648   2.980  0.0099  0.1279 -0.2093
 7149TIP3    H145642   3.257   2.594   3.016  0.8022 -0.3223  0.7398
 7149TIP3    H245643   3.385   2.664   3.055  0.6817  0.8527 -0.8654
 7150TIP3   OH245644   6.606   4.632   0.962 -0.4449 -0.1775 -0.2417
 7150TIP3    H145645   6.675   4.567   0.977  0.4908  0.6044 -1.0405
 7150TIP3    H245646   6.580   4.660   1.050 -2.0395 -2.7717  0.2281
 7151TIP3   OH245647   5.800   6.253   3.178  0.2598  0.4934 -0.3398
 7151TIP3    H145648   5.725   6.245   3.238  0.3220  2.1008  0.0071
 7151TIP3    H245649   5.801   6.346   3.154  1.4384  0.2576 -1.2851
 7152TIP3   OH245650   4.210   3.061   1.308 -0.3113  0.0467 -0.1565
 7152TIP3    H145651   4.301   3.062   1.279  0.5141  0.2620  2.2165
 7152TIP3    H245652   4.165   3.120   1.247  1.2023  0.2599 -1.1369
 7153TIP3   OH245653   5.863   6.203   2.186  0.0040  0.6472  0.6109
 7153TIP3    H145654   5.941   6.245   2.150 -1.1243  2.1291 -0.2021
 7153TIP3    H245655   5.887   6.181   2.276  0.3749  3.8883  1.4014
 7154TIP3   OH245656   3.204   5.483   4.960  0.1040  0.1318 -0.3036
 7154TIP3    H145657   3.254   5.564   4.949  0.2264  0.2551  1.0678
 7154TIP3    H245658   3.142   5.502   5.030 -0.4695 -0.6853 -0.5816
 7155TIP3   OH245659   2.862   2.110   0.523 -0.4895 -0.0201  0.1481
 7155TIP3    H145660   2.882   2.193   0.481 -2.4821 -0.1379 -1.1261
 7155TIP3    H245661   2.875   2.044   0.454  0.7053 -0.7824  1.0364
 7156TIP3   OH245662   5.902   0.213   2.315  0.0179 -0.0238 -0.5086
 7156TIP3    H145663   5.889   0.250   2.228 -0.6653 -0.6424 -0.6761
 7156TIP3    H245664   5.989   0.173   2.311 -0.0972 -0.2273 -0.9679
 7157TIP3   OH245665   3.620   2.660   3.783  0.4416  0.0104  0.0065
 7157TIP3    H145666   3.537   2.700   3.755  1.2802  1.7620 -0.0939
 7157TIP3    H245667   3.685   2.728   3.769  1.7432 -0.9463  1.1750
 7158TIP3   OH245668   1.674   4.903   0.475  0.2433 -0.3562 -0.0891
 7158TIP3    H145669   1.652   4.967   0.543  2.6086  0.6198 -0.1489
 7158TIP3    H245670   1.769   4.896   0.479  0.1392 -3.5419 -0.4524
 7159TIP3   OH245671   4.023   5.031   1.244 -0.6419 -0.3829  0.2742
 7159TIP3    H145672   4.079   4.993   1.177 -1.1206  1.0409 -0.9911
 7159TIP3    H245673   3.938   4.988   1.234 -0.5466 -0.5922  0.3678
 7160TIP3   OH245674   3.569   5.561   1.864  0.2487 -0.2380 -0.2045
 7160TIP3    H145675   3.555   5.655   1.852  0.1874 -0.1739  0.3109
 7160TIP3    H245676   3.575   5.525   1.776 -2.5059 -0.1533 -0.5251
 7161TIP3   OH245677   4.493   6.043   1.182  0.1026  0.5311  0.3419
 7161TIP3    H145678   4.458   5.999   1.104  1.4561 -0.8484  0.4590
 7161TIP3    H245679   4.421   6.041   1.245 -0.5746  0.4701 -0.4102
 7162TIP3   OH245680   2.893   4.302   1.749  0.3263  0.1540 -0.3895
 7162TIP3    H145681   2.879   4.211   1.723  1.2058  0.5099 -2.2716
 7162TIP3    H245682   2.949   4.297   1.826  0.4880 -0.8883 -0.5621
 7163TIP3   OH245683   3.621   0.412   3.786  0.2237  0.1485 -0.1858
 7163TIP3    H145684   3.580   0.456   3.712  0.3300 -1.0694 -1.0076
 7163TIP3    H245685   3.713   0.437   3.782  0.2637 -0.0496 -0.5880
 7164TIP3   OH245686   0.249   2.103   2.017  0.3427 -0.1273 -0.8095
 7164TIP3    H145687   0.268   2.098   2.110 -0.7850 -0.3596 -0.5757
 7164TIP3    H245688   0.257   2.013   1.985 -0.4378 -0.2461 -0.6853
 7165TIP3   OH245689   3.053   1.601   1.350  0.6598 -0.0384 -0.6243
 7165TIP3    H145690   3.116   1.643   1.409  0.2720 -0.5331  0.1546
 7165TIP3    H245691   3.075   1.508   1.355 -0.7820 -0.3402  0.4500
 7166TIP3   OH245692   2.040   4.891   1.445 -0.2117  0.2438 -0.4619
 7166TIP3    H145693   2.033   4.821   1.380 -2.0342 -0.1461  0.1142
 7166TIP3    H245694   1.988   4.962   1.409  1.4488  1.2943 -0.9384
 7167TIP3   OH245695   3.947   2.749   0.762  0.2434 -0.5626  0.1080
 7167TIP3    H145696   3.918   2.693   0.691 -1.8188 -1.2127  1.3952
 7167TIP3    H245697   3.868   2.793   0.793  1.6704  2.8174 -0.5444
 7168TIP3   OH245698   0.569   4.000   3.075  0.0280 -0.7852  0.4360
 7168TIP3    H145699   0.476   4.021   3.066  0.4640  0.7816 -0.9286
 7168TIP3    H245700   0.608   4.033   2.994  1.9502 -0.3695  1.4935
 7169TIP3   OH245701   2.359   3.202   1.881  0.3564 -0.4001 -0.0571
 7169TIP3    H145702   2.412   3.131   1.918  0.1205 -1.1008 -1.0232
 7169TIP3    H245703   2.394   3.214   1.793  2.5566  2.9077  1.0655
 7170TIP3   OH245704   2.901   1.997   1.867 -0.4179 -0.2121  0.1835
 7170TIP3    H145705   2.903   1.915   1.817  3.6705  0.6649 -1.4569
 7170TIP3    H245706   2.941   1.975   1.950  0.4464  0.0258 -0.1607
 7171TIP3   OH245707   2.020   3.217   2.862 -0.2598 -0.2851 -0.0083
 7171TIP3    H145708   1.927   3.198   2.852 -0.1984  0.2009 -2.0534
 7171TIP3    H245709   2.037   3.208   2.956 -2.7628  1.4070  0.7081
 7172TIP3   OH245710   1.539   2.198   1.205 -0.3040 -0.4360 -0.0448
 7172TIP3    H145711   1.497   2.271   1.252 -0.0731  0.1718 -0.7549
 7172TIP3    H245712   1.466   2.148   1.168 -0.5075 -1.1594  1.2770
 7173TIP3   OH245713   2.911   4.922   3.356  0.0241 -0.6399  0.3553
 7173TIP3    H145714   2.886   4.835   3.325 -0.5562 -0.0090 -1.0278
 7173TIP3    H245715   2.915   4.976   3.277  0.1895  0.6482  1.2036
 7174TIP3   OH245716   0.141   5.903   1.750 -0.1628 -0.0767 -0.6041
 7174TIP3    H145717   0.137   5.956   1.830 -2.8513  0.8779 -1.2624
 7174TIP3    H245718   0.150   5.968   1.680 -0.9318 -0.6705 -1.2619
 7175TIP3   OH245719   0.382   0.893   1.480 -0.2082 -0.1181 -0.3096
 7175TIP3    H145720   0.412   0.901   1.571 -0.7531  0.6949 -0.1926
 7175TIP3    H245721   0.287   0.883   1.488 -0.6347  2.7480 -0.8731
 7176TIP3   OH245722   0.250   2.180   3.567  0.4444  0.0625  0.2727
 7176TIP3    H145723   0.263   2.109   3.631 -3.1807 -1.8367 -0.7906
 7176TIP3    H245724   0.158   2.204   3.577  1.1928  3.7495 -0.4258
 7177TIP3   OH245725   1.160   2.594   2.955  0.3928  0.0265  0.4324
 7177TIP3    H145726   1.207   2.613   2.874 -2.0294  0.4808 -0.9768
 7177TIP3    H245727   1.084   2.543   2.926 -0.7180  0.4934  2.3717
 7178TIP3   OH245728   0.132   0.934   2.071 -0.1206  0.6711  0.4095
 7178TIP3    H145729   0.178   1.016   2.055 -2.4245  2.2034  1.2014
 7178TIP3    H245730   0.077   0.921   1.993 -1.0657  0.8264  1.0389
 7179TIP3   OH245731   0.791   3.122   1.606 -0.3975  0.2594 -0.1351
 7179TIP3    H145732   0.883   3.103   1.625  0.2413 -0.1611 -3.1397
 7179TIP3    H245733   0.746   3.039   1.624  0.3235 -0.4245 -1.3068
 7180TIP3   OH245734   3.264   3.414   2.824  0.1140 -0.2629 -0.0005
 7180TIP3    H145735   3.320   3.405   2.746  0.8766  0.2221  0.4723
 7180TIP3    H245736   3.218   3.497   2.811  0.3073 -0.1380  0.0937
 7181TIP3   OH245737   1.867   4.907   1.973  0.3912 -0.2050 -0.2488
 7181TIP3    H145738   1.816   4.890   2.052 -0.8856 -0.1954 -1.0571
 7181TIP3    H245739   1.958   4.895   2.001 -0.1339 -2.4114  0.6935
 7182TIP3   OH245740   1.287   6.404   3.958 -0.1250 -0.5799  0.4707
 7182TIP3    H145741   1.328   6.484   3.991 -2.1189 -0.1936  2.1916
 7182TIP3    H245742   1.308   6.338   4.023 -1.5929 -0.5239  1.0445
 7183TIP3   OH245743   2.881   0.140   3.061 -0.4984 -0.5743 -0.7159
 7183TIP3    H145744   2.925   0.169   2.982 -0.8604 -0.3196 -0.8227
 7183TIP3    H245745   2.788   0.141   3.039 -0.6716  0.3870 -0.0055
 7184TIP3   OH245746   6.386   4.495   2.836 -0.1530 -0.2977 -0.0791
 7184TIP3    H145747   6.342   4.481   2.920 -1.4778 -0.0715 -0.7205
 7184TIP3    H245748   6.339   4.567   2.795  0.1647 -0.7299 -1.2384
 7185TIP3   OH245749   3.779   0.802   2.056  0.2173  0.3035 -0.9578
 7185TIP3    H145750   3.737   0.827   1.974 -1.8143 -1.2605 -0.4893
 7185TIP3    H245751   3.725   0.729   2.089  1.1998  0.6141  1.5500
 7186TIP3   OH245752   1.905   4.814   2.881  0.0797 -0.0536  0.4209
 7186TIP3    H145753   1.967   4.882   2.906 -1.8018  1.7691  0.4180
 7186TIP3    H245754   1.958   4.734   2.874  1.9676  0.8749  2.7561
 7187TIP3   OH245755   0.666   6.465   2.575 -0.3023  0.5106 -0.4269
 7187TIP3    H145756   0.732   6.435   2.637 -1.8076 -0.7784  0.6221
 7187TIP3    H245757   0.665   6.397   2.507  0.7671  1.5038 -1.4697
 7188TIP3   OH245758   6.121   3.711   1.205 -0.2420  0.1854  0.1052
 7188TIP3    H145759   6.127   3.618   1.186 -0.3446 -0.0322  1.0676
 7188TIP3    H245760   6.042   3.720   1.258 -0.3165  0.8440 -0.1037
 7189TIP3   OH245761   5.355   0.750   3.190  0.2021 -0.4977  0.1788
 7189TIP3    H145762   5.439   0.782   3.157  1.2959 -0.8940  2.4206
 7189TIP3    H245763   5.372   0.659   3.215  0.2778  0.4168  4.1614
 7190TIP3   OH245764   3.113   2.788   1.513 -1.5660  0.1531  0.3152
 7190TIP3    H145765   3.176   2.850   1.475 -1.0266 -0.2685  0.5037
 7190TIP3    H245766   3.147   2.702   1.490 -2.2881 -0.0825  0.0956
 7191TIP3   OH245767   5.274   0.728   1.581  0.2899 -0.2858  0.4313
 7191TIP3    H145768   5.314   0.737   1.667 -1.4733  1.8254  1.1028
 7191TIP3    H245769   5.310   0.799   1.529 -0.9920  0.3803  0.4193
 7192TIP3   OH245770   0.802   1.456   4.195 -0.3375 -0.6406 -0.1811
 7192TIP3    H145771   0.865   1.526   4.177 -0.6655 -0.3035 -0.0197
 7192TIP3    H245772   0.717   1.499   4.197 -0.3077 -0.5615  2.5121
 7193TIP3   OH245773   6.192   0.998   2.470  0.6647  0.0232 -0.4071
 7193TIP3    H145774   6.166   0.986   2.561  1.3480 -0.7527 -0.3006
 7193TIP3    H245775   6.193   0.909   2.433  2.2824  0.1032 -0.6253
 7194TIP3   OH245776   4.912   4.625   2.164 -0.0089  0.0720 -0.6711
 7194TIP3    H145777   4.978   4.667   2.219 -1.2893  1.4677 -0.1581
 7194TIP3    H245778   4.947   4.537   2.148  1.1831  0.2086  0.9587
 7195TIP3   OH245779   0.425   3.388   3.014 -0.4845 -0.1636  0.5804
 7195TIP3    H145780   0.424   3.476   3.053 -1.4537 -0.7382  1.8868
 7195TIP3    H245781   0.456   3.403   2.924 -1.7788  1.6717  0.3787
 7196TIP3   OH245782   4.697   5.880   1.356 -0.0358  0.1185 -0.0827
 7196TIP3    H145783   4.629   5.911   1.296  0.1694 -1.6124 -1.2989
 7196TIP3    H245784   4.658   5.804   1.399 -0.1481  1.2801  1.9866
 7197TIP3   OH245785   0.767   5.663   2.695  0.2020  0.6308 -1.0112
 7197TIP3    H145786   0.842   5.605   2.708  1.0171  1.8491  0.0477
 7197TIP3    H245787   0.692   5.612   2.725  0.8951  0.0919 -0.1257
 7198TIP3   OH245788   3.099   5.449   4.259 -0.5671  0.1456  0.2508
 7198TIP3    H145789   3.013   5.437   4.218 -0.6880 -2.1613  1.0589
 7198TIP3    H245790   3.113   5.369   4.310  1.3769  1.1578  1.4229
 7199TIP3   OH245791   4.791   3.469   0.568  0.0420  0.5680 -0.4251
 7199TIP3    H145792   4.872   3.451   0.521 -0.7741  2.5723 -2.8575
 7199TIP3    H245793   4.773   3.390   0.618  0.3178 -2.4568 -4.5936
 7200TIP3   OH245794   0.859   1.905   1.285 -0.1293  0.1006  0.2063
 7200TIP3    H145795   0.856   1.926   1.192 -0.5673 -2.5770 -0.4621
 7200TIP3    H245796   0.947   1.931   1.313 -0.4149  2.0949 -0.5799
 7201TIP3   OH245797   2.493   0.376   2.684  0.1041  0.0291 -0.0182
 7201TIP3    H145798   2.525   0.434   2.615 -2.4938  1.2330 -0.3395
 7201TIP3    H245799   2.399   0.390   2.685 -0.1071 -0.9581  2.9007
 7202TIP3   OH245800   1.310   3.069   1.828  0.0540 -0.4441  0.5223
 7202TIP3    H145801   1.244   3.120   1.783  0.3242 -1.2306 -0.8198
 7202TIP3    H245802   1.264   3.028   1.901 -0.5300  0.3867  0.6243
 7203TIP3   OH245803   5.656   3.542   1.523  0.3650 -0.2128 -0.0085
 7203TIP3    H145804   5.695   3.519   1.439  0.7714  1.6237 -0.3625
 7203TIP3    H245805   5.575   3.588   1.501  0.4418  0.2358  0.5964
 7204TIP3   OH245806   3.136   1.145   3.647  0.2486  0.1904  0.1757
 7204TIP3    H145807   3.105   1.126   3.558  1.3234 -1.1546  0.0547
 7204TIP3    H245808   3.084   1.221   3.675  0.2449  0.9687 -1.7805
 7205TIP3   OH245809   0.532   0.792   2.447  0.5895 -0.6536 -0.7132
 7205TIP3    H145810   0.494   0.704   2.444  1.5184 -1.0403 -1.8042
 7205TIP3    H245811   0.522   0.819   2.538  2.1753 -2.7502  0.1724
 7206TIP3   OH245812   1.650   6.311   1.433  0.2442  0.3374 -0.2367
 7206TIP3    H145813   1.643   6.406   1.442  3.5286  0.6420  0.4074
 7206TIP3    H245814   1.734   6.297   1.390 -0.0046 -2.2957 -0.0257
 7207TIP3   OH245815   3.583   4.416   3.192 -0.7734  0.2779 -0.1099
 7207TIP3    H145816   3.663   4.364   3.189 -1.4892 -0.7852 -1.1115
 7207TIP3    H245817   3.514   4.357   3.162 -2.0948  0.9119  1.5282
 7208TIP3   OH245818   4.801   6.331   2.891  0.4173 -0.2076  0.0793
 7208TIP3    H145819   4.860   6.406   2.888  0.3334 -0.1272  0.4169
 7208TIP3    H245820   4.836   6.271   2.825  0.5762  0.0595 -0.0814
 7209TIP3   OH245821   4.656   4.626   2.857 -0.3413 -0.2194  0.4944
 7209TIP3    H145822   4.663   4.610   2.951 -0.9985  1.2247  0.8121
 7209TIP3    H245823   4.730   4.578   2.819 -0.4914 -1.4252  1.6532
 7210TIP3   OH245824   3.764   1.441   3.182  0.8274  0.5663  0.2891
 7210TIP3    H145825   3.818   1.389   3.122  0.5935 -1.0081  1.3778
 7210TIP3    H245826   3.758   1.527   3.141  2.3897  0.1428 -0.9012
 7211TIP3   OH245827   2.160   6.523   1.587  0.1745  0.3971  0.1233
 7211TIP3    H145828   2.101   6.533   1.512 -0.9451  0.3624  0.9658
 7211TIP3    H245829   2.156   6.430   1.609  3.5085 -0.4540 -2.0846
 7212TIP3   OH245830   0.579   4.291   2.344  0.6052  0.1168  0.4270
 7212TIP3    H145831   0.494   4.265   2.310  0.1467  0.1453  1.5179
 7212TIP3    H245832   0.642   4.256   2.280 -0.2824  2.3426 -1.7970
 7213TIP3   OH245833   2.385   3.937   2.414 -0.1141  0.1174 -0.3277
 7213TIP3    H145834   2.369   3.953   2.507 -1.3628  0.9382 -0.6568
 7213TIP3    H245835   2.331   4.001   2.369  0.2153 -0.4839 -1.6331
 7214TIP3   OH245836   5.353   3.833   3.232  0.2038 -0.3129 -0.7147
 7214TIP3    H145837   5.445   3.854   3.250 -0.0154  0.1635 -0.1130
 7214TIP3    H245838   5.353   3.740   3.208  0.9584 -0.0912 -1.6075
 7215TIP3   OH245839   1.767   0.222   3.552 -0.4606 -0.1761  0.4435
 7215TIP3    H145840   1.811   0.238   3.636  2.1809  0.1469 -0.8874
 7215TIP3    H245841   1.799   0.291   3.495 -1.6268 -0.8165 -1.0385
 7216TIP3   OH245842   0.329   4.873   3.276  0.2897  0.5124 -0.1716
 7216TIP3    H145843   0.287   4.787   3.270  1.4030 -0.0571 -0.1577
 7216TIP3    H245844   0.344   4.899   3.185 -1.5639  1.4984 -0.2378
 7217TIP3   OH245845   1.189   0.598   1.923 -0.0747 -0.6653  0.1312
 7217TIP3    H145846   1.180   0.537   1.850 -1.4554 -0.8556  0.4233
 7217TIP3    H245847   1.121   0.571   1.985  0.2097  0.3030  0.8909
 7218TIP3   OH245848   2.796   3.501   0.865 -0.1993  0.1353 -0.1958
 7218TIP3    H145849   2.714   3.467   0.830 -1.5784  1.5202  1.5136
 7218TIP3    H245850   2.854   3.425   0.870 -0.5101 -0.4934 -3.5666
 7219TIP3   OH245851   3.960   3.274   1.979  0.0189 -0.2698 -0.6977
 7219TIP3    H145852   3.998   3.186   1.977  0.0897 -0.2237 -1.5338
 7219TIP3    H245853   4.036   3.333   1.984 -0.0518 -0.2703  0.8751
 7220TIP3   OH245854   5.730   1.831   3.206  0.0625 -0.4555  0.1375
 7220TIP3    H145855   5.726   1.741   3.240  0.3513 -0.4912  0.0866
 7220TIP3    H245856   5.815   1.835   3.163 -0.4379 -0.5097 -0.8747
 7221TIP3   OH245857   0.410   6.119   2.482 -0.2494 -0.3817 -0.3792
 7221TIP3    H145858   0.315   6.113   2.492 -0.3530 -0.4646 -1.2904
 7221TIP3    H245859   0.446   6.083   2.564 -0.9983  1.3693  0.7689
 7222TIP3   OH245860   4.081   6.339   3.451 -0.1899  0.2294  0.2477
 7222TIP3    H145861   4.161   6.337   3.504 -1.2343 -1.5204  1.8778
 7222TIP3    H245862   4.095   6.273   3.384  0.3328  1.0394 -0.4606
 7223TIP3   OH245863   6.313   1.829   2.075  0.1175  0.6355  0.1872
 7223TIP3    H145864   6.253   1.903   2.079 -0.0086  0.5143  0.6157
 7223TIP3    H245865   6.398   1.865   2.104  0.2870  0.8403 -0.5583
 7224TIP3   OH245866   4.158   4.944   4.591  0.0802  0.3924 -0.1807
 7224TIP3    H145867   4.166   5.018   4.652  1.4791 -0.0956  0.2598
 7224TIP3    H245868   4.070   4.909   4.607  0.3532  0.3724  1.4592
 7225TIP3   OH245869   0.687   0.738   0.627  0.1442 -0.3688 -0.3680
 7225TIP3    H145870   0.647   0.711   0.544 -0.8862 -1.0262  0.3271
 7225TIP3    H245871   0.722   0.658   0.665 -1.4002 -0.4844  0.8889
 7226TIP3   OH245872   5.095   3.177   2.803  0.1486 -0.0887  0.6462
 7226TIP3    H145873   5.188   3.169   2.782  0.2617  0.6236  0.8634
 7226TIP3    H245874   5.073   3.268   2.785 -0.6216 -0.3578  0.1603
 7227TIP3   OH245875   6.530   6.135   1.711 -0.1693  0.1180  0.0007
 7227TIP3    H145876   6.617   6.122   1.674  0.6667  2.7222  0.8352
 7227TIP3    H245877   6.473   6.152   1.636  0.7640  1.7240 -0.3890
 7228TIP3   OH245878   2.277   1.282   1.160  0.3671 -0.5899  0.4355
 7228TIP3    H145879   2.263   1.355   1.220  1.7617  0.0521  0.0062
 7228TIP3    H245880   2.229   1.307   1.081  0.1226 -0.5479  0.5948
 7229TIP3   OH245881   1.837   2.279   1.955 -0.4712  0.0954  0.1623
 7229TIP3    H145882   1.809   2.274   2.046 -0.4135 -0.9750  0.1299
 7229TIP3    H245883   1.923   2.322   1.959 -0.6679  0.4660  0.5601
 7230TIP3   OH245884   3.091   2.232   3.940  0.3713 -0.6977  0.0451
 7230TIP3    H145885   3.031   2.174   3.986  1.5137 -2.8096 -0.9834
 7230TIP3    H245886   3.136   2.175   3.878 -0.5507  1.8121 -3.2108
 7231TIP3   OH245887   2.769   4.739   3.035  0.2311  0.0735  0.1799
 7231TIP3    H145888   2.731   4.818   2.995 -2.4051 -1.4552 -0.5687
 7231TIP3    H245889   2.852   4.727   2.989  0.1625  1.7957 -0.4681
 7232TIP3   OH245890   0.938   0.394   2.636 -0.1448  0.4482  0.3232
 7232TIP3    H145891   1.020   0.442   2.639  0.0739  0.1643 -0.7693
 7232TIP3    H245892   0.884   0.435   2.703  0.9901  0.4221  1.2817
 7233TIP3   OH245893   0.871   1.110   1.516  0.3295 -0.1486  0.3679
 7233TIP3    H145894   0.914   1.189   1.550  2.8410 -1.5881  0.7649
 7233TIP3    H245895   0.811   1.084   1.586  3.0556 -1.2479  2.4720
 7234TIP3   OH245896   1.969   3.792   0.600  0.3260 -0.5450  0.2113
 7234TIP3    H145897   1.972   3.697   0.598  0.4675 -0.5560  0.6793
 7234TIP3    H245898   1.898   3.816   0.540  0.9748 -0.8962 -0.7036
 7235TIP3   OH245899   4.548   5.979   2.250 -0.1514  0.3691 -0.2587
 7235TIP3    H145900   4.509   6.061   2.217  1.8656  0.7851 -1.8240
 7235TIP3    H245901   4.513   5.912   2.191 -0.4055  0.3690 -0.1096
 7236TIP3   OH245902   3.160   4.460   4.473 -0.2284  0.1619  0.1731
 7236TIP3    H145903   3.085   4.520   4.479 -0.5856 -0.0376 -1.6430
 7236TIP3    H245904   3.185   4.462   4.381 -0.6326 -2.8887 -0.1196
 7237TIP3   OH245905   6.201   3.190   3.748 -0.7685 -0.0498  0.7946
 7237TIP3    H145906   6.154   3.271   3.769  0.0924  0.6958 -0.0310
 7237TIP3    H245907   6.287   3.202   3.787  0.0992  0.4108 -1.1358
 7238TIP3   OH245908   4.841   3.273   2.468 -0.3323 -0.2742 -0.3375
 7238TIP3    H145909   4.753   3.239   2.479 -0.1106 -0.6524  0.2815
 7238TIP3    H245910   4.898   3.204   2.502  0.2171 -0.1440 -0.9656
 7239TIP3   OH245911   0.377   4.992   3.009  0.4924 -0.4022  0.4073
 7239TIP3    H145912   0.365   5.068   2.952 -0.1681 -0.8734 -0.0966
 7239TIP3    H245913   0.389   4.918   2.948  2.6276 -0.5045  0.8670
 7240TIP3   OH245914   1.636   5.152   1.009 -0.1684  0.2550  0.1243
 7240TIP3    H145915   1.587   5.185   1.084 -0.9361  1.0724 -0.7049
 7240TIP3    H245916   1.621   5.217   0.940  1.9536  0.4386 -0.2278
 7241TIP3   OH245917   5.165   4.421   0.999 -0.2860 -0.1841  0.2604
 7241TIP3    H145918   5.132   4.511   0.996 -3.0271 -1.0566  1.2020
 7241TIP3    H245919   5.186   4.400   0.908  0.0828  1.2710 -0.0226
 7242TIP3   OH245920   5.893   6.527   2.707  0.2824 -0.2614 -0.0844
 7242TIP3    H145921   5.885   6.575   2.790  0.5590 -0.0416 -0.1831
 7242TIP3    H245922   5.804   6.497   2.688  0.0101  0.6365 -0.2724
 7243TIP3   OH245923   6.594   6.048   1.363  0.6428  0.1952  0.2684
 7243TIP3    H145924   6.660   6.088   1.420  1.1622  0.8213 -0.7593
 7243TIP3    H245925   6.632   6.052   1.275 -1.0000  1.0850 -0.4358
 7244TIP3   OH245926   3.940   5.613   2.793 -0.0823  0.2450 -0.5262
 7244TIP3    H145927   4.029   5.584   2.811 -0.5315 -0.1340  1.2740
 7244TIP3    H245928   3.927   5.594   2.700  1.3693 -0.6267 -0.5750
 7245TIP3   OH245929   2.804   2.687   1.930 -0.3363 -0.1712  0.6839
 7245TIP3    H145930   2.751   2.632   1.872  0.8845 -1.3296  0.6169
 7245TIP3    H245931   2.885   2.703   1.880 -0.1525  0.6154  1.2243
 7246TIP3   OH245932   1.131   4.555   3.905  0.7144 -0.1464  0.1716
 7246TIP3    H145933   1.185   4.614   3.852 -0.2033 -0.6110 -1.3373
 7246TIP3    H245934   1.151   4.468   3.872  0.8285 -0.5390  1.2540
 7247TIP3   OH245935   4.345   1.927   1.775  0.1450  0.5625  0.6413
 7247TIP3    H145936   4.279   1.988   1.807  0.2469  0.2879  1.3783
 7247TIP3    H245937   4.426   1.978   1.773  0.0550  0.7011  0.3937
 7248TIP3   OH245938   2.374   3.884   1.013  0.6834 -0.2345  0.0397
 7248TIP3    H145939   2.405   3.796   1.034 -0.1273 -0.4776  0.2319
 7248TIP3    H245940   2.283   3.885   1.041  0.5089  0.4714 -0.5352
 7249TIP3   OH245941   4.015   2.253   2.164  0.3890 -0.1213 -0.9048
 7249TIP3    H145942   4.015   2.163   2.133  0.1901  0.3039 -2.2103
 7249TIP3    H245943   3.927   2.267   2.199  1.4464 -1.4816  2.6830
 7250TIP3   OH245944   3.544   6.240   1.467 -0.2519  0.3467  0.4510
 7250TIP3    H145945   3.635   6.265   1.454 -0.3000  0.7258  0.8234
 7250TIP3    H245946   3.494   6.316   1.438 -0.5105 -0.3443 -1.0135
 7251TIP3   OH245947   3.220   0.548   2.420 -0.3317  0.1556  0.4910
 7251TIP3    H145948   3.244   0.618   2.481  0.7368  0.0174  0.2461
 7251TIP3    H245949   3.218   0.590   2.334  4.1491 -0.7459 -0.2964
 7252TIP3   OH245950   0.750   0.931   0.782  0.2631  0.2335 -0.5165
 7252TIP3    H145951   0.736   0.865   0.714 -1.0657  0.9628 -0.9850
 7252TIP3    H245952   0.724   1.013   0.741 -0.4009  0.7085  0.8273
 7253TIP3   OH245953   3.337   4.094   2.147  0.0492  0.5896  0.0997
 7253TIP3    H145954   3.344   4.181   2.108 -2.0056  0.4161 -0.7676
 7253TIP3    H245955   3.386   4.037   2.088  0.0050  0.8962 -0.2344
 7254TIP3   OH245956   0.871   5.935   1.319  0.2210 -0.4471  0.5315
 7254TIP3    H145957   0.876   6.006   1.383  1.7909  2.4457 -2.4940
 7254TIP3    H245958   0.788   5.949   1.274  0.4008 -0.7103  0.1109
 7255TIP3   OH245959   1.894   3.320   1.358  0.0920  0.0013  0.2427
 7255TIP3    H145960   1.909   3.413   1.344  0.8856 -0.1180  0.2511
 7255TIP3    H245961   1.965   3.277   1.310 -1.1317 -0.6594 -1.0505
 7256TIP3   OH245962   6.136   0.381   1.178  0.0169 -0.3277 -0.7488
 7256TIP3    H145963   6.113   0.343   1.093 -1.3800 -0.9209 -0.1329
 7256TIP3    H245964   6.212   0.332   1.207  0.0084 -0.6708 -1.2921
 7257TIP3   OH245965   4.869   3.807   1.973  0.3052  0.2246  0.4036
 7257TIP3    H145966   4.899   3.769   1.890 -1.2589 -1.4138  0.5389
 7257TIP3    H245967   4.918   3.889   1.981  1.2335 -0.0807 -1.6313
 7258TIP3   OH245968   1.761   2.002   0.736 -0.1414  0.2958  0.2619
 7258TIP3    H145969   1.702   2.075   0.715  0.4276  0.3620 -1.1929
 7258TIP3    H245970   1.721   1.961   0.813 -1.5456  0.9294 -0.0953
 7259TIP3   OH245971   0.435   0.850   1.795 -0.4906  0.0984 -0.1836
 7259TIP3    H145972   0.401   0.927   1.841 -0.7657 -0.2940  0.2740
 7259TIP3    H245973   0.490   0.806   1.860 -0.4881 -0.1945 -0.3824
 7260TIP3   OH245974   5.745   1.535   3.238  0.0803 -0.5650  0.7451
 7260TIP3    H145975   5.670   1.539   3.297 -0.1628 -3.6254  0.7875
 7260TIP3    H245976   5.805   1.473   3.279  0.9593 -0.9907 -1.0531
 7261TIP3   OH245977   1.209   2.894   1.058 -0.1040 -0.4308 -0.0354
 7261TIP3    H145978   1.206   2.883   1.153 -0.2516  0.0404  0.0134
 7261TIP3    H245979   1.157   2.972   1.040  1.9843  0.9985 -0.2673
 7262TIP3   OH245980   1.336   2.194   4.025 -0.3653 -0.3187  0.4491
 7262TIP3    H145981   1.255   2.162   4.065 -0.5882  0.2877  0.4946
 7262TIP3    H245982   1.312   2.213   3.934 -0.0402 -1.0061  0.2124
 7263TIP3   OH245983   2.051   0.556   1.751  0.2313 -0.1723  0.1784
 7263TIP3    H145984   2.047   0.637   1.802  0.3976 -0.0670  0.0260
 7263TIP3    H245985   2.144   0.543   1.735  0.3365 -1.1529  1.4049
 7264TIP3   OH245986   5.132   4.999   2.528 -0.1460  0.5583 -0.1868
 7264TIP3    H145987   5.175   4.916   2.549 -1.5239 -0.8086 -2.4029
 7264TIP3    H245988   5.181   5.033   2.454  0.8810  2.2008  1.1679
 7265TIP3   OH245989   1.732   3.547  10.748 -0.1940  0.1299  0.0945
 7265TIP3    H145990   1.807   3.512  10.796 -0.6796 -2.6170 -0.9457
 7265TIP3    H245991   1.715   3.482  10.681 -2.1951  1.7537 -1.0759
 7266TIP3   OH245992   5.429   2.161   2.224 -0.1352  0.2189 -0.3959
 7266TIP3    H145993   5.513   2.167   2.178 -0.1558 -0.9180 -0.6157
 7266TIP3    H245994   5.430   2.074   2.264 -1.4976 -0.0735 -0.9650
 7267TIP3   OH245995   4.081   1.032   2.936  0.0918  0.0148 -0.0482
 7267TIP3    H145996   4.146   0.998   2.875  0.3440 -0.0432  0.2518
 7267TIP3    H245997   4.111   1.121   2.956  2.0700 -1.1289  2.8044
 7268TIP3   OH245998   4.447   3.070   1.172  0.1178 -0.0632 -0.1088
 7268TIP3    H145999   4.428   3.142   1.111  0.5387  0.5233  0.4349
 7268TIP3    H246000   4.523   3.026   1.133  0.3823  0.3049 -0.0107
 7269TIP3   OH246001   2.178   0.380   0.778 -0.0441  0.1025 -0.3930
 7269TIP3    H146002   2.157   0.465   0.738 -0.5236  0.0139 -0.3352
 7269TIP3    H246003   2.274   0.381   0.788 -0.1696  1.3623  1.1957
 7270TIP3   OH246004   1.073   0.158   4.196  0.0360  0.2684 -0.5337
 7270TIP3    H146005   1.057   0.149   4.290 -0.6033  1.4141 -0.5184
 7270TIP3    H246006   1.004   0.217   4.165 -0.0144 -0.4196 -1.8046
 7271TIP3   OH246007   5.968   4.816   3.405  0.2452  0.0026  0.1501
 7271TIP3    H146008   5.877   4.846   3.413  0.0924 -0.6997  1.2503
 7271TIP3    H246009   6.021   4.890   3.433 -0.0869 -0.3370  1.7739
 7272TIP3   OH246010   0.219   3.628   1.128  0.1587 -0.5661  0.2791
 7272TIP3    H146011   0.251   3.694   1.190  1.1360 -1.8680  1.2173
 7272TIP3    H246012   0.223   3.672   1.043  2.3417  0.1053  0.6565
 7273TIP3   OH246013   2.499   3.020   1.726  0.3776 -0.6329 -0.0167
 7273TIP3    H146014   2.503   2.926   1.709 -1.9371 -0.6868 -0.5900
 7273TIP3    H246015   2.452   3.056   1.651 -0.1423  0.7755  0.9479
 7274TIP3   OH246016   0.942   6.435   3.193  0.1166  0.0640 -0.1777
 7274TIP3    H146017   0.931   6.474   3.280  1.0872 -0.2574  0.1086
 7274TIP3    H246018   0.858   6.448   3.150 -0.3267  0.3887  0.7475
 7275TIP3   OH246019   6.631   4.403   3.118 -0.2356  0.6408  0.3967
 7275TIP3    H146020   6.616   4.497   3.120  0.2495  0.7061  1.3362
 7275TIP3    H246021   6.667   4.382   3.204 -2.0195 -0.6887  0.8768
 7276TIP3   OH246022   1.946   1.058   2.848  0.5781 -0.1943  0.1044
 7276TIP3    H146023   1.916   1.149   2.844 -0.2946 -0.5058 -2.3006
 7276TIP3    H246024   1.875   1.011   2.893 -1.4350 -0.4238 -2.9830
 7277TIP3   OH246025   2.072   1.098   0.891 -0.3109 -0.0886 -0.0196
 7277TIP3    H146026   2.084   1.022   0.834  0.8897 -0.0875  0.2251
 7277TIP3    H246027   2.097   1.173   0.836  0.4782 -0.0542  0.3865
 7278TIP3   OH246028   6.698   3.651   1.850 -0.6323  0.2510  0.0319
 7278TIP3    H146029   6.787   3.624   1.827 -1.1333 -0.3723 -1.2243
 7278TIP3    H246030   6.701   3.664   1.945  0.6118 -0.4525  0.1065
 7279TIP3   OH246031   5.343   0.329   3.534  0.8870  0.3327 -0.1235
 7279TIP3    H146032   5.332   0.420   3.509 -0.7495  0.3502  0.5817
 7279TIP3    H246033   5.324   0.327   3.628  0.5232 -0.7908 -0.2091
 7280TIP3   OH246034   1.302   0.160   0.856 -0.7641  0.2963 -0.1939
 7280TIP3    H146035   1.232   0.194   0.800  0.3607  0.0043 -1.8632
 7280TIP3    H246036   1.325   0.075   0.818 -1.6245 -1.1234  2.2409
 7281TIP3   OH246037   3.054   6.180   1.604  0.1404  0.0882 -0.6432
 7281TIP3    H146038   3.018   6.171   1.516  0.3787 -0.2069 -0.7086
 7281TIP3    H246039   3.050   6.274   1.621  1.5286  0.3509 -1.5798
 7282TIP3   OH246040   5.892   0.880   1.489  0.0076 -0.3503  0.5135
 7282TIP3    H146041   5.929   0.936   1.557  0.8249 -1.1234  0.7270
 7282TIP3    H246042   5.942   0.901   1.411  0.0489 -0.4999  0.4995
 7283TIP3   OH246043   3.041   0.304   2.557 -0.7150 -0.0320 -0.0936
 7283TIP3    H146044   2.980   0.285   2.486 -3.0704 -0.6842  1.9203
 7283TIP3    H246045   3.043   0.400   2.562 -1.0679  0.0068 -0.5963
 7284TIP3   OH246046   3.779   4.986   1.792  0.3991  0.5757 -0.1976
 7284TIP3    H146047   3.841   5.025   1.854 -0.9049  0.9525  0.9224
 7284TIP3    H246048   3.827   4.915   1.750  0.7684 -1.0762  2.7364
 7285TIP3   OH246049   4.442   5.523   1.044  0.4738  0.6141 -0.0284
 7285TIP3    H146050   4.469   5.448   1.097  2.3459  1.1459 -0.1812
 7285TIP3    H246051   4.350   5.537   1.068 -0.2562 -2.3043 -0.7137
 7286TIP3   OH246052   1.069   1.524   0.875  0.2088 -0.6540 -0.6280
 7286TIP3    H146053   1.066   1.606   0.924  2.1876 -0.5713 -0.5941
 7286TIP3    H246054   0.985   1.521   0.829 -0.9887  0.1172  1.3504
 7287TIP3   OH246055   6.020   4.990   1.574  0.1616  0.1997  0.5710
 7287TIP3    H146056   5.929   4.994   1.602  0.0068 -0.9189  0.2611
 7287TIP3    H246057   6.018   5.008   1.480  0.0608 -1.3859  0.2447
 7288TIP3   OH246058   3.115   1.148   2.411 -0.2197  0.5513  0.0924
 7288TIP3    H146059   3.087   1.231   2.372  0.8727 -0.3014 -2.7716
 7288TIP3    H246060   3.034   1.099   2.424 -0.8291  1.8327  1.3652
 7289TIP3   OH246061   1.931   5.976   0.843 -0.4622  0.4341  0.2864
 7289TIP3    H146062   1.972   6.000   0.926  0.8040  0.3629 -0.2978
 7289TIP3    H246063   1.934   6.056   0.790 -1.4696  0.5446  0.3716
 7290TIP3   OH246064   6.664   3.300   1.088  0.0898  0.1251  0.1842
 7290TIP3    H146065   6.754   3.275   1.107  0.7380  1.2919 -1.2260
 7290TIP3    H246066   6.656   3.293   0.993 -0.8219  1.5811  0.1216
 7291TIP3   OH246067   3.075   5.651   1.877 -0.1284 -0.3920 -0.5423
 7291TIP3    H146068   3.138   5.622   1.811  0.7714 -1.8840  0.9045
 7291TIP3    H246069   3.011   5.580   1.883  0.3516 -0.7337  0.8510
 7292TIP3   OH246070   6.099   5.762   1.721  0.7343 -0.5538  0.1979
 7292TIP3    H146071   6.060   5.813   1.792  0.1164  1.7288 -1.6595
 7292TIP3    H246072   6.161   5.821   1.680  0.6858 -1.6038 -1.4977
 7293TIP3   OH246073   6.408   0.774   1.267 -0.2591  0.0887 -0.0416
 7293TIP3    H146074   6.397   0.728   1.351 -0.5319 -1.3590 -0.8359
 7293TIP3    H246075   6.323   0.765   1.224 -0.1356  0.8707 -0.4597
 7294TIP3   OH246076   5.777   3.903   1.481 -0.4942 -0.1180 -0.0517
 7294TIP3    H146077   5.846   3.928   1.543 -1.3173  1.7724  0.1752
 7294TIP3    H246078   5.699   3.890   1.535 -0.5910 -1.1636 -0.4226
 7295TIP3   OH246079   6.145   0.347   2.420 -0.8846 -0.3437  0.2103
 7295TIP3    H146080   6.201   0.392   2.356  0.6581 -1.1069  0.9825
 7295TIP3    H246081   6.064   0.397   2.420  0.2598  1.5996 -0.0002
 7296TIP3   OH246082   1.356   5.033   2.163  0.3236  0.0206  0.3739
 7296TIP3    H146083   1.275   5.080   2.183  0.8232  0.9107  0.3122
 7296TIP3    H246084   1.350   5.014   2.069 -0.1032 -0.4990  0.4965
 7297TIP3   OH246085   3.679   0.566   2.176  0.1571 -0.1045  0.7494
 7297TIP3    H146086   3.718   0.514   2.246  0.4773  0.5993  1.1020
 7297TIP3    H246087   3.685   0.510   2.098 -0.4297 -0.9843  1.3245
 7298TIP3   OH246088   0.402   0.491   0.769 -0.6603 -0.6650  0.1658
 7298TIP3    H146089   0.443   0.576   0.751  0.7027 -0.7741  2.3821
 7298TIP3    H246090   0.309   0.511   0.777 -0.4922  0.4349 -0.3971
 7299TIP3   OH246091   4.266   5.535   2.087  0.1118 -0.2703  0.0355
 7299TIP3    H146092   4.187   5.586   2.069  0.9472  1.1378  0.2700
 7299TIP3    H246093   4.256   5.456   2.034 -0.0076  1.2887 -2.3666
 7300TIP3   OH246094   0.444   6.489   3.645  0.3923  0.0895  0.0039
 7300TIP3    H146095   0.432   6.402   3.682 -0.1172 -0.3159 -1.0732
 7300TIP3    H246096   0.382   6.545   3.693 -1.5402 -0.7714 -1.3546
 7301TIP3   OH246097   2.796   5.606   3.061  0.1095 -0.3624  0.0663
 7301TIP3    H146098   2.783   5.533   3.001  0.7083  0.2025 -0.7793
 7301TIP3    H246099   2.713   5.652   3.062  0.4495  0.3380 -1.3325
 7302TIP3   OH246100   4.778   2.701   1.896  0.0936  0.1062  0.2605
 7302TIP3    H146101   4.704   2.731   1.950 -0.0854 -2.2228  1.4199
 7302TIP3    H246102   4.740   2.686   1.809 -0.3368  0.8355  0.3181
 7303TIP3   OH246103   6.299   4.908   2.269  0.3344  0.1644 -0.4713
 7303TIP3    H146104   6.234   4.899   2.200  0.3655  3.1218 -1.0073
 7303TIP3    H246105   6.383   4.898   2.224  0.3210  0.0047 -0.4619
 7304TIP3   OH246106   6.330   4.007   1.916 -0.0537  0.8569  0.2258
 7304TIP3    H146107   6.410   4.048   1.948 -0.0487  1.5100 -0.5956
 7304TIP3    H246108   6.342   4.001   1.822 -0.4037 -0.3136  0.2420
 7305TIP3   OH246109   0.846   2.209   1.339  0.1824 -0.0984 -0.2452
 7305TIP3    H146110   0.778   2.219   1.272 -1.3984 -0.1148  1.2576
 7305TIP3    H246111   0.909   2.278   1.320  1.0455 -1.5026 -3.0651
 7306TIP3   OH246112   6.529   1.703   1.498  0.3065 -0.0382 -0.2638
 7306TIP3    H146113   6.438   1.720   1.475  0.8527  0.9657 -1.8191
 7306TIP3    H246114   6.543   1.610   1.477 -0.1143  0.0330 -0.8712
 7307TIP3   OH246115   3.032   0.569   1.482 -0.3432  0.8524  0.0678
 7307TIP3    H146116   3.065   0.580   1.571 -0.3914  2.3222 -0.0757
 7307TIP3    H246117   3.046   0.477   1.463  1.3191  0.8880  0.9393
 7308TIP3   OH246118   4.833   2.815   2.979  0.3351  0.5744  0.4892
 7308TIP3    H146119   4.823   2.910   2.981  1.9818  0.7789  2.4664
 7308TIP3    H246120   4.928   2.801   2.977  0.1130 -1.0442 -0.4935
 7309TIP3   OH246121   3.886   2.656   1.021  0.6009  0.0980  0.4186
 7309TIP3    H146122   3.929   2.673   0.937  1.2383 -0.4176  0.6307
 7309TIP3    H246123   3.794   2.677   1.005  0.4687 -1.2340 -0.7957
 7310TIP3   OH246124   2.978   5.707   2.191  0.1143 -0.2570  0.0220
 7310TIP3    H146125   2.960   5.615   2.209  0.5340 -0.1361  1.1908
 7310TIP3    H246126   3.017   5.739   2.273  1.4861  0.5528 -0.9213
 7311TIP3   OH246127   3.080   4.459   1.016 -0.3820  0.4225 -0.1954
 7311TIP3    H146128   3.054   4.460   0.924  0.0646  0.6501 -0.3203
 7311TIP3    H246129   3.070   4.367   1.042 -4.6478  0.9219  0.7399
 7312TIP3   OH246130   3.105   0.279   3.339 -0.6058  0.7836 -0.4486
 7312TIP3    H146131   3.122   0.244   3.427 -2.0140  0.1637 -0.4013
 7312TIP3    H246132   3.012   0.266   3.325 -0.6014  1.8341 -1.6435
 7313TIP3   OH246133   4.289   1.777   0.541  0.1964  0.3660 -0.1388
 7313TIP3    H146134   4.296   1.871   0.525 -1.4796  0.2955 -1.7002
 7313TIP3    H246135   4.324   1.764   0.629  0.8104  2.3870 -0.0440
 7314TIP3   OH246136   5.656   4.256   2.088 -0.2893 -0.5130 -0.2170
 7314TIP3    H146137   5.647   4.185   2.024 -0.3759 -2.9505  2.3004
 7314TIP3    H246138   5.580   4.247   2.145  0.4397  0.7015  1.0290
 7315TIP3   OH246139   2.881   0.478   3.065 -0.4804 -0.1531  0.1721
 7315TIP3    H146140   2.793   0.458   3.095 -0.4856 -0.7207 -0.2196
 7315TIP3    H246141   2.868   0.546   2.999 -0.7481 -1.1549 -0.8304
 7316TIP3   OH246142   2.177   0.635   1.227  0.2482 -0.0835  0.1194
 7316TIP3    H146143   2.142   0.589   1.303  2.4617 -1.2892  0.4878
 7316TIP3    H246144   2.186   0.566   1.160  1.6657  0.1921 -0.0120
 7317TIP3   OH246145   5.692   0.072   0.684 -0.1419 -0.2732 -0.1617
 7317TIP3    H146146   5.623   0.068   0.618 -0.3753 -1.7476  0.1340
 7317TIP3    H246147   5.645   0.078   0.768  0.0653 -1.3442  0.0453
 7318TIP3   OH246148   6.032   5.789   1.237 -0.1955  0.2760  0.1123
 7318TIP3    H146149   6.036   5.783   1.142  0.3882  1.2142  0.0708
 7318TIP3    H246150   5.964   5.726   1.262 -1.5638  1.2412 -1.0460
 7319TIP3   OH246151   3.816   4.227   3.502  0.1564 -0.3017 -0.4432
 7319TIP3    H146152   3.825   4.246   3.409  1.7247  0.3185 -0.1962
 7319TIP3    H246153   3.856   4.141   3.514  0.4806 -0.1271 -0.2569
 7320TIP3   OH246154   1.639   2.415   2.258  0.6558 -0.7922  0.2182
 7320TIP3    H146155   1.647   2.470   2.179  2.9918  1.0088  1.5597
 7320TIP3    H246156   1.666   2.328   2.229 -0.5987 -0.6842 -1.4155
 7321TIP3   OH246157   5.355   2.257   0.719  0.2419 -0.1463  0.2994
 7321TIP3    H146158   5.269   2.297   0.713  0.1717 -0.4532 -1.0146
 7321TIP3    H246159   5.415   2.324   0.686  0.2370 -0.6871 -0.8932
 7322TIP3   OH246160   1.452   5.692   2.767 -0.1475 -0.3198  0.1050
 7322TIP3    H146161   1.431   5.607   2.728  0.0408 -0.4889  0.3733
 7322TIP3    H246162   1.521   5.728   2.712 -1.2402  0.3265 -0.9072
 7323TIP3   OH246163   2.573   5.788   3.026 -0.4485  0.4639  0.1805
 7323TIP3    H146164   2.627   5.809   2.950  0.4157 -1.1901  0.2833
 7323TIP3    H246165   2.502   5.734   2.991 -1.0032  1.0926  0.3173
 7324TIP3   OH246166   0.222   3.454   1.809  0.2307 -0.0959 -0.0592
 7324TIP3    H146167   0.213   3.376   1.755  0.1970 -0.2017  0.0988
 7324TIP3    H246168   0.308   3.489   1.789  0.5121 -0.5413  0.3581
 7325TIP3   OH246169   1.656   4.069   3.603  0.3225 -1.1098 -0.1480
 7325TIP3    H146170   1.633   3.991   3.655  0.8080 -0.4188  1.1606
 7325TIP3    H246171   1.748   4.055   3.579  0.2915 -1.1260 -0.2573
 7326TIP3   OH246172   5.021   2.300   0.402  0.2841 -0.1042 -0.3684
 7326TIP3    H146173   4.970   2.219   0.399 -0.3942  0.3336 -1.3124
 7326TIP3    H246174   5.053   2.311   0.313  0.2106  0.7621 -0.2940
 7327TIP3   OH246175   5.237   3.269   2.407  0.4677  0.5906  0.5048
 7327TIP3    H146176   5.207   3.348   2.450 -0.3991  1.0233 -0.8286
 7327TIP3    H246177   5.264   3.297   2.319  2.9464 -0.1138  0.9473
 7328TIP3   OH246178   0.273   1.110   2.741  0.2998  0.2932  0.2363
 7328TIP3    H146179   0.224   1.032   2.714 -0.2816  0.2326  1.4148
 7328TIP3    H246180   0.275   1.105   2.836 -2.2592  3.1699  0.5951
 7329TIP3   OH246181   1.704   1.292   2.152  0.3516  0.9232 -0.2103
 7329TIP3    H146182   1.781   1.244   2.182  1.1452  1.8640 -0.6911
 7329TIP3    H246183   1.730   1.329   2.067 -1.6775 -1.3690 -1.9940
 7330TIP3   OH246184   3.045   5.592   5.162 -0.2066 -0.1702  0.1588
 7330TIP3    H146185   3.054   5.679   5.199  0.7540 -0.2639  0.1839
 7330TIP3    H246186   2.955   5.567   5.180 -1.2984  1.7965 -2.0443
 7331TIP3   OH246187   0.330   5.356   2.131 -1.2060 -0.6723 -0.0563
 7331TIP3    H146188   0.298   5.303   2.058  0.0234 -0.1633 -1.0137
 7331TIP3    H246189   0.275   5.434   2.130 -1.5086 -0.8828 -0.1220
 7332TIP3   OH246190   1.909   1.766   3.036 -0.1139 -0.3310 -0.0672
 7332TIP3    H146191   1.944   1.712   2.964 -0.2289 -0.4183 -0.0581
 7332TIP3    H246192   1.977   1.832   3.051  0.0727 -0.5327 -0.0134
 7333TIP3   OH246193   1.978   2.342   1.556  0.0464  0.1667 -0.3702
 7333TIP3    H146194   1.918   2.270   1.576 -0.4491  0.7438  0.2820
 7333TIP3    H246195   1.929   2.397   1.494  0.0957  0.3760 -0.2239
 7334TIP3   OH246196   1.479   3.725   0.364 -0.1982  0.1127 -0.4963
 7334TIP3    H146197   1.485   3.700   0.456 -3.0368  1.5690  0.2029
 7334TIP3    H246198   1.460   3.643   0.317  1.7916 -0.7239  0.0651
 7335TIP3   OH246199   5.414   4.157   2.635 -0.2189 -0.3286 -0.3668
 7335TIP3    H146200   5.352   4.164   2.708 -1.7069  0.6496 -1.6725
 7335TIP3    H246201   5.498   4.136   2.677 -1.0658  0.0065  1.5986
 7336TIP3   OH246202   5.457   0.974   2.643  0.4103 -0.0332 -0.4337
 7336TIP3    H146203   5.523   1.000   2.708 -0.4698 -0.9818  0.8969
 7336TIP3    H246204   5.463   0.879   2.640 -1.4292 -0.2100  0.3392
 7337TIP3   OH246205   4.525   3.728   1.070  0.5692 -0.1436 -0.1592
 7337TIP3    H146206   4.600   3.766   1.023 -0.3161  0.6476 -0.9647
 7337TIP3    H246207   4.450   3.747   1.014 -0.1965 -1.2727  0.4498
 7338TIP3   OH246208   2.009   4.426   2.048  0.2799 -0.5656 -0.2768
 7338TIP3    H146209   2.073   4.485   2.087  0.9851 -1.2126 -0.4329
 7338TIP3    H246210   1.924   4.462   2.073  0.7089  0.0213  0.3543
 7339TIP3   OH246211   5.038   6.395   2.043 -0.0753 -0.1243  0.7144
 7339TIP3    H146212   4.988   6.464   2.000 -0.3834 -1.1467 -0.6183
 7339TIP3    H246213   4.975   6.323   2.054  0.5503 -0.6389  0.9769
 7340TIP3   OH246214   4.962   5.896   3.581 -0.4760 -0.2278  0.1386
 7340TIP3    H146215   4.977   5.990   3.597 -0.5361 -0.3814  1.2181
 7340TIP3    H246216   5.049   5.857   3.588 -0.4674 -0.2626 -0.1908
 7341TIP3   OH246217   6.274   2.619   2.967  0.4518 -0.3229  0.2582
 7341TIP3    H146218   6.266   2.711   2.942  0.0740 -0.6407 -0.8273
 7341TIP3    H246219   6.367   2.598   2.956  0.1235 -0.7820 -2.1664
 7342TIP3   OH246220   4.783   3.881   2.574 -0.5991 -0.0150  0.2582
 7342TIP3    H146221   4.813   3.883   2.483  1.9563  1.7239  1.0047
 7342TIP3    H246222   4.688   3.890   2.568 -0.4216  1.2067 -2.2368
 7343TIP3   OH246223   0.243   4.884   1.198 -0.0664 -0.4930 -0.3547
 7343TIP3    H146224   0.170   4.906   1.256 -0.2536 -0.5111 -0.5813
 7343TIP3    H246225   0.297   4.962   1.196  1.0454 -1.1529  1.4737
 7344TIP3   OH246226   5.193   5.524   1.004  0.5389 -0.4919  0.0453
 7344TIP3    H146227   5.136   5.489   1.072 -0.3888  0.6135 -0.1429
 7344TIP3    H246228   5.281   5.497   1.031  0.1051 -0.7863  1.2304
 7345TIP3   OH246229   1.180   5.319   3.282 -0.1105  0.1663  0.8095
 7345TIP3    H146230   1.112   5.385   3.268 -0.8657 -0.8421 -0.5665
 7345TIP3    H246231   1.232   5.353   3.355 -0.9146  1.9004  0.6288
 7346TIP3   OH246232   0.760   6.161   2.599 -0.0902  0.5768 -0.1782
 7346TIP3    H146233   0.787   6.154   2.508  1.9264  2.4556  0.1998
 7346TIP3    H246234   0.711   6.080   2.616  1.1393 -0.7051 -2.3633
 7347TIP3   OH246235   3.070   3.668   3.907  0.2896  0.7957  0.2626
 7347TIP3    H146236   3.154   3.689   3.950  0.7804  0.7827 -0.6755
 7347TIP3    H246237   3.007   3.666   3.979  0.9250  1.7270  0.8699
 7348TIP3   OH246238   3.998   2.352   0.862 -0.0954 -0.5464  0.4404
 7348TIP3    H146239   3.959   2.356   0.950  2.3740  0.1564  1.6024
 7348TIP3    H246240   4.006   2.259   0.843  0.5968 -0.7503  1.6146
 7349TIP3   OH246241   4.666   0.928   2.323 -0.1218  0.6815 -0.4061
 7349TIP3    H146242   4.577   0.961   2.335  0.8141  2.8199  1.5352
 7349TIP3    H246243   4.661   0.835   2.340 -2.0863  0.6439 -1.0271
 7350TIP3   OH246244   1.213   2.340   0.548  0.1360  0.0636  0.1831
 7350TIP3    H146245   1.239   2.304   0.633 -0.1984  1.0636  0.7190
 7350TIP3    H246246   1.295   2.357   0.503  0.3474  0.6626  0.7904
 7351TIP3   OH246247   3.794   2.587   1.270 -0.0914  0.3625  0.2819
 7351TIP3    H146248   3.731   2.569   1.199 -0.4596  0.2806  0.6252
 7351TIP3    H246249   3.876   2.606   1.225  0.5319 -2.7373 -0.1400
 7352TIP3   OH246250   4.066   3.106   2.549 -0.0471 -0.6175 -0.7809
 7352TIP3    H146251   3.984   3.155   2.545 -1.0565 -2.2210 -0.6428
 7352TIP3    H246252   4.042   3.023   2.589  1.4623 -1.5222 -1.6563
 7353TIP3   OH246253   1.214   6.518   3.436 -0.0593  0.5362 -0.0757
 7353TIP3    H146254   1.200   6.609   3.464  0.4737  0.2576  1.1904
 7353TIP3    H246255   1.257   6.477   3.511 -1.7033 -1.1734  0.0164
 7354TIP3   OH246256   4.639   5.596   4.220 -0.8052 -0.0701 -0.3298
 7354TIP3    H146257   4.719   5.644   4.199 -0.8170 -0.7604 -2.2007
 7354TIP3    H246258   4.598   5.646   4.290  0.6555  0.9644 -0.1688
 7355TIP3   OH246259   4.883   6.152   2.044 -0.3034  0.4607  0.1581
 7355TIP3    H146260   4.949   6.088   2.072 -0.5497  0.0998 -0.0672
 7355TIP3    H246261   4.851   6.118   1.961 -1.8369 -0.1816  0.9596
 7356TIP3   OH246262   0.824   0.331   0.538 -0.0407  0.2312 -0.1121
 7356TIP3    H146263   0.771   0.259   0.505  0.8353 -0.6393  0.3002
 7356TIP3    H246264   0.769   0.373   0.604  0.8947 -2.8464  2.9564
 7357TIP3   OH246265   4.301   0.519   1.676 -0.3014  0.4506 -0.0587
 7357TIP3    H146266   4.276   0.435   1.715 -0.9511  0.0177 -1.3737
 7357TIP3    H246267   4.231   0.538   1.614  1.7841 -0.0385 -2.7515
 7358TIP3   OH246268   0.982   3.815   1.879  0.0662 -0.0981  0.9103
 7358TIP3    H146269   0.920   3.836   1.809 -0.3669 -1.5161  0.8536
 7358TIP3    H246270   0.927   3.789   1.953  0.5785 -2.3737  0.5405
 7359TIP3   OH246271   0.831   6.511   3.967 -0.7190 -0.0982  0.7373
 7359TIP3    H146272   0.755   6.490   4.022 -1.3532  0.4192  0.0858
 7359TIP3    H246273   0.808   6.595   3.926 -1.1948 -1.4016 -1.8982
 7360TIP3   OH246274   2.834   2.362   0.929 -0.1742 -0.5339  0.1429
 7360TIP3    H146275   2.804   2.288   0.980 -2.2227 -0.9326 -1.5018
 7360TIP3    H246276   2.790   2.353   0.844 -0.9640  2.8400  0.0438
 7361TIP3   OH246277   0.207   4.515   3.624 -0.2806  0.6685  0.6255
 7361TIP3    H146278   0.139   4.473   3.676  1.1981 -0.7217  1.5357
 7361TIP3    H246279   0.237   4.447   3.564  0.1575  1.3300  0.0712
 7362TIP3   OH246280   5.131   2.774   0.535 -0.3409 -0.0556 -0.3578
 7362TIP3    H146281   5.108   2.822   0.455  0.2182  1.9591  0.6319
 7362TIP3    H246282   5.050   2.731   0.562 -0.2893 -1.8271 -2.6087
 7363TIP3   OH246283   1.002   2.224   2.396 -0.2443 -0.6623 -0.1768
 7363TIP3    H146284   1.036   2.146   2.440 -0.5837 -0.6181  0.1756
 7363TIP3    H246285   0.908   2.206   2.386  0.2014 -1.8314 -3.2899
 7364TIP3   OH246286   6.188   1.146   3.032  0.7315 -0.2427  0.2401
 7364TIP3    H146287   6.280   1.140   3.007  0.2286 -0.1381 -1.7804
 7364TIP3    H246288   6.149   1.064   3.003 -0.0632  0.2275 -0.0516
 7365TIP3   OH246289   3.186   5.875   3.313 -0.4775  0.1982  0.0881
 7365TIP3    H146290   3.174   5.796   3.366 -1.0039 -0.4867 -1.0206
 7365TIP3    H246291   3.104   5.885   3.265 -0.2240  1.1402 -0.1717
 7366TIP3   OH246292   1.143   4.761   1.148  0.1605  0.1759  0.3084
 7366TIP3    H146293   1.102   4.837   1.190 -1.1491  0.3401 -1.1685
 7366TIP3    H246294   1.084   4.688   1.168  0.4115 -0.0683  0.1586
 7367TIP3   OH246295   0.130   3.697   1.502  0.2414  0.2584 -0.2483
 7367TIP3    H146296   0.080   3.742   1.435 -0.2068 -0.1931 -0.2208
 7367TIP3    H246297   0.148   3.611   1.465  1.6189  0.6406 -0.5507
 7368TIP3   OH246298   5.418   1.571   1.504  0.0855  0.3466 -0.8110
 7368TIP3    H146299   5.419   1.664   1.484  0.5894  0.2595 -1.1983
 7368TIP3    H246300   5.372   1.530   1.431 -1.4500  0.4404  0.0597
 7369TIP3   OH246301   3.541   1.709   1.964 -0.3420 -0.6445 -0.6755
 7369TIP3    H146302   3.448   1.703   1.938 -0.9142  1.8709  0.4832
 7369TIP3    H246303   3.573   1.787   1.917  0.0841  0.7496  1.7760
 7370TIP3   OH246304   4.760   2.900   2.307  0.4561 -0.0203 -0.1160
 7370TIP3    H146305   4.845   2.880   2.345  0.3997  1.1510  0.6611
 7370TIP3    H246306   4.698   2.892   2.380  0.1299  0.7150 -0.3020
 7371TIP3   OH246307   4.518   5.839   0.420  0.2521 -0.1200  0.1528
 7371TIP3    H146308   4.568   5.758   0.425  1.2281  0.5233  1.5139
 7371TIP3    H246309   4.442   5.825   0.477  0.6873  0.0788  0.7944
 7372TIP3   OH246310   6.458   4.694   2.138  0.4464  0.3207  0.0155
 7372TIP3    H146311   6.451   4.723   2.047  2.1612  0.9249  0.0378
 7372TIP3    H246312   6.439   4.601   2.136 -0.7850  0.5830 -0.7596
 7373TIP3   OH246313   5.845   4.594   2.494 -0.2834  0.2192  0.3104
 7373TIP3    H146314   5.875   4.630   2.577 -0.0071  0.5148  0.0882
 7373TIP3    H246315   5.892   4.646   2.428 -0.7970  0.2527 -0.0334
 7374TIP3   OH246316   4.428   6.385   3.390 -0.4681  0.3538 -0.1387
 7374TIP3    H146317   4.405   6.464   3.341  0.3944  0.5384 -0.2707
 7374TIP3    H246318   4.446   6.417   3.478  2.0012  0.6790 -0.6880
 7375TIP3   OH246319   5.992   5.346   1.249 -0.2403 -0.1908 -0.6961
 7375TIP3    H146320   6.011   5.388   1.165  1.1754  1.2085  0.2603
 7375TIP3    H246321   5.977   5.419   1.309  0.5667 -1.0908  0.6624
 7376TIP3   OH246322   2.316   0.753   2.603 -0.0932  0.0555 -0.2735
 7376TIP3    H146323   2.252   0.798   2.659  0.3134  3.3572 -2.2085
 7376TIP3    H246324   2.263   0.694   2.550 -1.1691  0.6991  0.0373
 7377TIP3   OH246325   3.529   1.073   1.212 -0.0359 -0.6483 -0.3245
 7377TIP3    H146326   3.448   1.123   1.207  0.6725  0.5949  0.0991
 7377TIP3    H246327   3.510   0.991   1.166 -2.0640 -1.1730  1.3276
 7378TIP3   OH246328   5.886   6.126   2.450 -0.1672 -0.5843 -0.7539
 7378TIP3    H146329   5.854   6.139   2.539  1.8238 -0.4833 -0.0105
 7378TIP3    H246330   5.979   6.147   2.454 -0.2066  0.4335 -3.0824
 7379TIP3   OH246331   3.966   4.301   1.240  0.2642  0.1424  0.3414
 7379TIP3    H146332   3.984   4.317   1.333 -1.4334 -0.1669  0.7610
 7379TIP3    H246333   4.008   4.217   1.222  0.5851  0.1907  0.8346
 7380TIP3   OH246334   5.255   4.238   1.522 -0.3679  0.6869 -0.1678
 7380TIP3    H146335   5.332   4.198   1.481 -0.7335 -1.0830  0.7782
 7380TIP3    H246336   5.249   4.325   1.482  1.8006  0.6750 -0.6482
 7381TIP3   OH246337   4.832   1.814   2.718  0.9710 -0.5634  0.3861
 7381TIP3    H146338   4.870   1.726   2.718  0.7039 -0.6802 -0.0630
 7381TIP3    H246339   4.797   1.825   2.629  0.8131 -0.0877  0.5060
 7382TIP3   OH246340   1.220   4.268   0.748  0.3278  0.2637 -0.0013
 7382TIP3    H146341   1.215   4.328   0.673 -0.4233  0.2408  0.0244
 7382TIP3    H246342   1.158   4.304   0.811  1.6473  0.8338  1.0305
 7383TIP3   OH246343   4.018   3.411   1.645  0.1974 -0.0050  0.1519
 7383TIP3    H146344   4.101   3.460   1.639 -0.0904  0.2628 -2.8941
 7383TIP3    H246345   3.951   3.479   1.644 -0.1433 -0.3203 -2.0818
 7384TIP3   OH246346   1.443   4.800   1.099 -0.0100 -0.5810 -0.8030
 7384TIP3    H146347   1.360   4.757   1.082  1.0785 -3.0018 -0.3931
 7384TIP3    H246348   1.446   4.811   1.194  0.0398 -0.3006 -0.8370
 7385TIP3   OH246349   3.677   3.175   1.486 -0.0774  0.1953  0.4934
 7385TIP3    H146350   3.583   3.178   1.502 -0.1730  0.4078 -0.0868
 7385TIP3    H246351   3.715   3.227   1.556 -0.6046  2.4758 -0.8218
 7386TIP3   OH246352   3.751   4.284   4.259 -0.2144 -0.2364 -0.7147
 7386TIP3    H146353   3.767   4.204   4.208 -4.0273 -1.9081  0.3554
 7386TIP3    H246354   3.772   4.259   4.349 -3.5212 -0.9839 -0.0148
 7387TIP3   OH246355   2.549   0.722   2.745 -0.1130  0.2849 -0.0238
 7387TIP3    H146356   2.477   0.738   2.685  0.0841  0.7640 -0.1413
 7387TIP3    H246357   2.568   0.808   2.783  0.7753  0.2891 -0.4367
 7388TIP3   OH246358   1.086   6.492   0.516 -0.4015 -0.0579 -0.2939
 7388TIP3    H146359   1.000   6.476   0.477 -0.8084 -1.9512  1.2068
 7388TIP3    H246360   1.068   6.550   0.590 -0.2902 -0.0009 -0.3115
 7389TIP3   OH246361   2.210   2.212   2.087  0.0988  0.1855 -0.2406
 7389TIP3    H146362   2.157   2.292   2.085  0.1459  0.2663  1.0610
 7389TIP3    H246363   2.168   2.157   2.154  1.4995  0.1562  0.6567
 7390TIP3   OH246364   5.176   3.704   0.785 -0.3745 -0.0670  0.4065
 7390TIP3    H146365   5.218   3.781   0.824  0.2743 -0.7510  1.0914
 7390TIP3    H246366   5.239   3.633   0.799 -0.0098 -0.3093 -2.1213
 7391TIP3   OH246367   0.473   4.235   3.891 -0.1479 -0.3358 -0.2455
 7391TIP3    H146368   0.487   4.186   3.972  0.4601  1.8459  1.0639
 7391TIP3    H246369   0.383   4.267   3.897  0.3609  1.0716  0.3462
 7392TIP3   OH246370   0.330   3.844   0.971  0.1599  0.0600 -0.0434
 7392TIP3    H146371   0.248   3.850   0.921  0.0442  0.0241  0.1389
 7392TIP3    H246372   0.389   3.906   0.928  0.4683 -0.8522 -0.9774
 7393TIP3   OH246373   4.509   6.514   3.623 -0.3591  0.7110  1.1107
 7393TIP3    H146374   4.541   6.517   3.713 -1.0547  1.6750  1.3415
 7393TIP3    H246375   4.558   6.582   3.577 -2.1537  2.3736  1.5247
 7394TIP3   OH246376   4.437   5.005   2.583 -0.2367 -0.7244 -0.1301
 7394TIP3    H146377   4.433   5.090   2.627  2.6726 -0.7381  0.4180
 7394TIP3    H246378   4.479   4.947   2.646  0.1446 -1.8891 -1.3945
 7395TIP3   OH246379   2.069   6.192   4.251  0.0308 -0.3888 -0.2917
 7395TIP3    H146380   2.157   6.207   4.215 -0.3382 -1.2697 -1.6538
 7395TIP3    H246381   2.069   6.100   4.278 -0.9170 -0.8405 -1.7205
 7396TIP3   OH246382   1.666   5.857   1.992  0.3801 -0.5665  0.2133
 7396TIP3    H146383   1.597   5.923   2.006  0.9413  0.5694 -1.8689
 7396TIP3    H246384   1.722   5.863   2.069 -1.1701 -0.6875  1.4028
 7397TIP3   OH246385   5.040   3.666   2.410  0.2139  0.4633 -0.4434
 7397TIP3    H146386   4.981   3.741   2.409  1.1188  1.2026 -0.9320
 7397TIP3    H246387   5.077   3.664   2.321  1.1711  0.2468 -0.0570
 7398TIP3   OH246388   6.461   2.897   3.913  0.1685 -0.0367  0.0321
 7398TIP3    H146389   6.414   2.831   3.964  2.1022 -0.1598  1.7617
 7398TIP3    H246390   6.492   2.850   3.836 -0.2411 -0.6156  0.2128
 7399TIP3   OH246391   2.537   5.569   2.657  0.7183 -0.3839 -0.4002
 7399TIP3    H146392   2.504   5.566   2.567  1.0089  2.7406 -0.7258
 7399TIP3    H246393   2.543   5.662   2.677  0.0872 -0.9434  3.1085
 7400TIP3   OH246394   0.302   2.518   2.382  0.1626 -0.0822 -0.7305
 7400TIP3    H146395   0.271   2.540   2.294 -2.6390 -1.1675 -0.1274
 7400TIP3    H246396   0.262   2.433   2.402  2.1252 -0.7023  0.9692
 7401TIP3   OH246397   2.237   0.293   1.937  0.3643  0.6336 -0.2845
 7401TIP3    H146398   2.329   0.289   1.909  0.5806  2.7472 -0.0424
 7401TIP3    H246399   2.209   0.381   1.915 -1.3187  0.3536  0.5741
 7402TIP3   OH246400   5.702   5.994   2.260 -0.2474 -0.2088 -0.1243
 7402TIP3    H146401   5.755   6.052   2.314  0.6734  0.0132 -1.2152
 7402TIP3    H246402   5.665   6.052   2.193 -0.0380 -0.7230 -0.6955
 7403TIP3   OH246403   2.390   4.620   0.421 -0.2246 -0.3372 -0.4242
 7403TIP3    H146404   2.300   4.631   0.388 -0.8173 -1.2325  0.8104
 7403TIP3    H246405   2.439   4.691   0.381 -1.0358 -0.9705 -2.6676
 7404TIP3   OH246406   0.229   4.105   1.326 -0.1417  0.2477 -0.3834
 7404TIP3    H146407   0.321   4.125   1.308  0.0465 -1.2128 -1.1728
 7404TIP3    H246408   0.180   4.166   1.270  0.3853 -0.2391 -1.4069
 7405TIP3   OH246409   2.662   5.230   3.515 -0.3430  0.2931 -0.1460
 7405TIP3    H146410   2.718   5.181   3.575  2.1602  1.3660 -1.4378
 7405TIP3    H246411   2.597   5.167   3.485 -1.3830 -0.3922  3.2132
 7406TIP3   OH246412   1.461   3.052   1.378 -0.2781  0.0566 -0.3520
 7406TIP3    H146413   1.414   3.005   1.447 -0.0811 -1.2718 -1.0687
 7406TIP3    H246414   1.546   3.071   1.416  0.0450 -1.1930 -0.3787
 7407TIP3   OH246415   6.574   2.788   0.938 -0.4241  0.1420 -0.1476
 7407TIP3    H146416   6.502   2.750   0.888  0.1683  0.1433 -1.0185
 7407TIP3    H246417   6.652   2.742   0.907  0.0695  0.8026  0.0925
 7408TIP3   OH246418   3.098   3.947   2.203 -0.0782 -0.0456 -0.6604
 7408TIP3    H146419   3.178   3.997   2.217 -0.3359 -0.0540  1.1555
 7408TIP3    H246420   3.127   3.856   2.200 -0.0785 -0.1449  1.1288
 7409TIP3   OH246421   5.250   6.631   2.987 -0.0200 -0.1412  0.0287
 7409TIP3    H146422   5.208   6.569   2.927 -1.0475  0.4469  0.1184
 7409TIP3    H246423   5.190   6.706   2.989  0.5424  0.2881  0.9578
 7410TIP3   OH246424   0.732   5.241   3.504 -0.0926 -0.2171  0.3533
 7410TIP3    H146425   0.691   5.179   3.564  0.2878  1.0505  2.0046
 7410TIP3    H246426   0.679   5.236   3.425 -0.8435 -1.6917  0.9106
 7411TIP3   OH246427   2.317   0.212   2.474  0.2313  0.0739 -0.3797
 7411TIP3    H146428   2.410   0.191   2.483  0.1470 -0.7380 -1.2747
 7411TIP3    H246429   2.276   0.129   2.449 -0.8749  0.2099  0.8440
 7412TIP3   OH246430   2.240   5.494   0.798  0.6961 -0.8273  0.0102
 7412TIP3    H146431   2.241   5.408   0.841 -1.2012 -1.6305 -1.4055
 7412TIP3    H246432   2.165   5.539   0.837  0.3419 -0.6763 -0.8447
 7413TIP3   OH246433   1.724   3.603   2.360  0.1785  0.3646 -0.6705
 7413TIP3    H146434   1.688   3.515   2.348 -0.4248  0.5479 -0.2414
 7413TIP3    H246435   1.805   3.589   2.410  0.0417  0.0623 -0.5332
 7414TIP3   OH246436   2.028   2.605   1.206  0.1450  0.1611 -0.0455
 7414TIP3    H146437   1.954   2.557   1.242 -0.8605  1.4741 -0.2575
 7414TIP3    H246438   2.102   2.580   1.260 -0.5356 -0.8856  0.4228
 7415TIP3   OH246439   0.162   3.398   2.871  0.0680 -0.0560 -0.1909
 7415TIP3    H146440   0.192   3.489   2.862 -2.9396  0.9145 -1.5458
 7415TIP3    H246441   0.142   3.371   2.781 -0.4270 -1.5716  0.3586
 7416TIP3   OH246442   5.320   3.447   2.205 -0.1241  0.3874  0.4879
 7416TIP3    H146443   5.247   3.477   2.152  0.9851 -2.0456 -2.7706
 7416TIP3    H246444   5.373   3.525   2.220 -2.1840  1.7641  1.0099
 7417TIP3   OH246445   4.421   2.871   3.676  0.0441  0.0704 -0.3912
 7417TIP3    H146446   4.482   2.836   3.612 -1.8181  0.4227 -2.4560
 7417TIP3    H246447   4.393   2.794   3.726 -0.6052 -0.6988 -1.8945
 7418TIP3   OH246448   4.097   2.625   1.205 -0.2334 -0.1675  0.4850
 7418TIP3    H146449   4.083   2.654   1.115  0.2349  0.2986  0.5571
 7418TIP3    H246450   4.152   2.547   1.196 -1.7676 -1.2795  0.2728
 7419TIP3   OH246451   2.639   1.882   3.188 -0.5707  0.4974  0.0895
 7419TIP3    H146452   2.734   1.894   3.182 -0.6310  0.8256 -0.2035
 7419TIP3    H246453   2.628   1.795   3.228 -0.1608 -0.5076 -1.8536
 7420TIP3   OH246454   4.169   5.920   2.347 -0.9065 -0.7908 -0.6998
 7420TIP3    H146455   4.171   5.889   2.256  0.4954 -3.1973  0.0436
 7420TIP3    H246456   4.079   5.906   2.375 -1.7803  1.4887 -2.1186
 7421TIP3   OH246457   6.536   4.608   1.711  0.3770 -0.1567 -0.2529
 7421TIP3    H146458   6.609   4.624   1.770  0.3965 -2.0235  0.2815
 7421TIP3    H246459   6.576   4.599   1.625  0.7161 -0.6810 -0.0387
 7422TIP3   OH246460   3.890   1.461   2.731 -0.1320 -0.2946  0.1780
 7422TIP3    H146461   3.837   1.383   2.717  0.1271 -0.5110  0.3903
 7422TIP3    H246462   3.847   1.529   2.680 -1.4386 -0.0971  1.4863
 7423TIP3   OH246463   2.491   3.885   2.156  0.2611  0.4400  0.1195
 7423TIP3    H146464   2.540   3.968   2.153  1.7297 -0.2698  2.0805
 7423TIP3    H246465   2.452   3.883   2.243  1.1926 -1.3804  0.5590
 7424TIP3   OH246466   4.486   4.343   3.953 -0.5185  0.4890  0.3604
 7424TIP3    H146467   4.406   4.315   3.998 -0.9007  0.2438 -0.4492
 7424TIP3    H246468   4.506   4.428   3.991 -1.3236  0.6775  0.3827
 7425TIP3   OH246469   5.772   4.742   3.176 -0.1159  0.0412  0.0457
 7425TIP3    H146470   5.724   4.717   3.255 -2.1044  2.1258 -0.3876
 7425TIP3    H246471   5.720   4.706   3.104  0.7049 -0.3112 -0.3843
 7426TIP3   OH246472   3.620   0.843   3.283 -0.6444 -0.3906  0.3817
 7426TIP3    H146473   3.607   0.801   3.199 -1.3673 -0.4437  0.5126
 7426TIP3    H246474   3.531   0.863   3.314 -0.3483  0.4181  0.7249
 7427TIP3   OH246475   1.643   6.538   3.780  0.5239  0.4480  0.3470
 7427TIP3    H146476   1.590   6.568   3.706  0.5877 -0.0009  0.1175
 7427TIP3    H246477   1.660   6.445   3.763  0.0886  0.1959  1.1919
 7428TIP3   OH246478   2.630   4.303   3.119 -0.2393 -0.0803 -0.1586
 7428TIP3    H146479   2.710   4.269   3.158 -1.0770 -0.7318  1.0611
 7428TIP3    H246480   2.604   4.376   3.176  0.4669  1.3682 -1.6177
 7429TIP3   OH246481   1.450   5.122   3.452  0.5008 -0.4044  0.2351
 7429TIP3    H146482   1.362   5.115   3.490  0.4058  0.5510  0.1959
 7429TIP3    H246483   1.435   5.134   3.358  0.6038  1.5299  0.4393
 7430TIP3   OH246484   0.545   1.255   1.698  0.3635 -0.1210 -0.4875
 7430TIP3    H146485   0.519   1.288   1.612 -2.3271 -1.0716 -0.1548
 7430TIP3    H246486   0.470   1.275   1.755  1.7255 -0.2620  1.4458
 7431TIP3   OH246487   1.467   3.794   0.924 -0.2482 -0.1517  0.0705
 7431TIP3    H146488   1.455   3.859   0.994  0.5528  0.7851 -0.6242
 7431TIP3    H246489   1.400   3.815   0.859 -1.6258 -1.6274  0.9385
 7432TIP3   OH246490   4.081   5.332   1.126  0.1039  0.0517  0.1214
 7432TIP3    H146491   4.144   5.307   1.193  0.3316  0.7228  0.1645
 7432TIP3    H246492   4.031   5.403   1.165  0.4595  0.6781 -0.5212
 7433TIP3   OH246493   5.033   2.412   2.412  0.1994  0.0452  0.6433
 7433TIP3    H146494   5.023   2.346   2.343 -2.9720 -0.0477  1.0356
 7433TIP3    H246495   5.123   2.443   2.402  0.1132 -0.4218 -3.1106
 7434TIP3   OH246496   3.126   4.651   2.944 -0.3816  0.1785 -0.1971
 7434TIP3    H146497   3.215   4.687   2.942  0.1930 -1.1870 -0.6952
 7434TIP3    H246498   3.069   4.727   2.951  0.7232  1.2845 -2.2971
 7435TIP3   OH246499   6.307   4.254   2.668 -0.1970 -0.1880  0.3999
 7435TIP3    H146500   6.319   4.342   2.705  0.3630  0.2644 -0.7997
 7435TIP3    H246501   6.215   4.234   2.684  0.1905 -0.3954  2.7714
 7436TIP3   OH246502   1.653   4.642   1.312 -0.8177 -0.4045  0.0264
 7436TIP3    H146503   1.599   4.720   1.297 -0.1670  0.0787  0.1537
 7436TIP3    H246504   1.719   4.670   1.375 -0.9563 -1.2445  0.5583
 7437TIP3   OH246505   1.185   0.541   2.646 -0.4611  0.0121 -0.1050
 7437TIP3    H146506   1.240   0.495   2.709  0.1854  0.1486 -0.5715
 7437TIP3    H246507   1.245   0.596   2.597 -0.8924 -0.4358 -1.1618
 7438TIP3   OH246508   2.855   0.912   1.139 -0.5478  0.3669  0.4547
 7438TIP3    H146509   2.843   0.988   1.196  0.1432  0.9340 -0.1385
 7438TIP3    H246510   2.859   0.838   1.199  0.1336  0.9471  1.1463
 7439TIP3   OH246511   6.375   5.794   0.575 -0.0216 -0.2188 -0.2783
 7439TIP3    H146512   6.369   5.725   0.509 -0.6429 -0.5592  0.1293
 7439TIP3    H246513   6.430   5.757   0.644  0.0595 -0.1200 -0.2896
 7440TIP3   OH246514   3.762   0.744   4.097  0.6552 -0.0508 -0.1856
 7440TIP3    H146515   3.693   0.778   4.041 -0.0914 -0.0599  0.7041
 7440TIP3    H246516   3.750   0.649   4.096 -1.9755  0.0629  3.1087
 7441TIP3   OH246517   5.668   5.504   2.356  0.4027  0.0592 -0.2994
 7441TIP3    H146518   5.741   5.513   2.418 -0.8283  0.5950  1.1345
 7441TIP3    H246519   5.688   5.568   2.288  0.4991  1.3980  0.9187
 7442TIP3   OH246520   1.670   6.284   3.215  0.4278 -0.0540 -0.3790
 7442TIP3    H146521   1.749   6.338   3.214  0.3076  0.1124 -1.3978
 7442TIP3    H246522   1.655   6.261   3.124 -0.1843 -0.8566 -0.0860
 7443TIP3   OH246523   0.559   4.016   1.920  0.3852 -0.0898 -0.1667
 7443TIP3    H146524   0.594   4.104   1.935 -0.7205  0.0990  1.5598
 7443TIP3    H246525   0.591   3.965   1.994 -0.7413 -0.5910 -0.0098
 7444TIP3   OH246526   5.212   1.507   2.001  0.2310  0.2900 -0.1413
 7444TIP3    H146527   5.305   1.492   2.015  0.3605 -2.4508 -2.8571
 7444TIP3    H246528   5.173   1.420   2.004 -2.6630  1.4781  2.6594
 7445TIP3   OH246529   0.396   5.118   1.259  0.6115  0.2718  0.1748
 7445TIP3    H146530   0.488   5.110   1.232  0.4290  1.3783 -0.8610
 7445TIP3    H246531   0.377   5.212   1.254 -0.4499  0.1126  0.8283
 7446TIP3   OH246532   5.985   2.489   2.653  0.8911 -0.3637 -0.2734
 7446TIP3    H146533   6.026   2.467   2.569  0.5167  0.3129 -0.6460
 7446TIP3    H246534   5.940   2.571   2.636  0.1637 -0.6180  0.3859
 7447TIP3   OH246535   2.526   1.153   1.160 -0.4974 -0.1417 -0.0048
 7447TIP3    H146536   2.549   1.127   1.072  1.4877  0.3922  0.3231
 7447TIP3    H246537   2.463   1.225   1.148 -0.5450 -0.3355 -0.9647
 7448TIP3   OH246538   5.623   5.602   3.490  0.0854  0.4131  0.3983
 7448TIP3    H146539   5.710   5.625   3.523 -0.6578  1.8091  1.4797
 7448TIP3    H246540   5.562   5.644   3.551 -1.3618 -0.7473 -0.1847
 7449TIP3   OH246541   5.931   3.473   2.900 -0.2797 -0.1604 -0.1035
 7449TIP3    H146542   5.859   3.512   2.949 -0.0833  0.2252 -0.1155
 7449TIP3    H246543   5.925   3.513   2.813 -0.2992 -0.4325 -0.2256
 7450TIP3   OH246544   6.651   4.990   3.252  0.2392 -0.4862 -0.4399
 7450TIP3    H146545   6.596   4.941   3.191 -1.4659 -1.0518  1.4347
 7450TIP3    H246546   6.729   4.935   3.263 -1.0757 -2.2827  0.6386
 7451TIP3   OH246547   0.580   6.249   2.305  0.0887  0.3383  0.2024
 7451TIP3    H146548   0.662   6.201   2.303  1.0339  1.8751 -0.2339
 7451TIP3    H246549   0.524   6.201   2.366  1.3078 -0.7251  0.5074
 7452TIP3   OH246550   0.637   5.190   1.528  0.2466  0.4144 -0.0713
 7452TIP3    H146551   0.689   5.123   1.482  0.3602  0.8282 -0.5506
 7452TIP3    H246552   0.561   5.142   1.560  0.6517 -0.0888  0.1687
 7453TIP3   OH246553   6.409   5.498   2.885  0.1055  0.5213  0.9420
 7453TIP3    H146554   6.360   5.508   2.803 -0.0749  0.6546  1.0644
 7453TIP3    H246555   6.449   5.584   2.900  1.1162  0.1558  0.3774
 7454TIP3   OH246556   5.924   3.222   1.613 -0.0440 -0.0325  0.5356
 7454TIP3    H146557   5.973   3.207   1.694  1.6821  0.8765 -0.2930
 7454TIP3    H246558   5.914   3.135   1.575  0.0896 -0.3405  1.1919
 7455TIP3   OH246559   3.481   2.201   2.974 -0.3263 -0.5878 -0.0429
 7455TIP3    H146560   3.404   2.169   2.926 -0.0214 -2.8409  0.8655
 7455TIP3    H246561   3.550   2.206   2.907 -1.2237  1.6374 -0.9059
 7456TIP3   OH246562   6.683   1.324   2.321  0.5372 -0.9833 -0.6305
 7456TIP3    H146563   6.729   1.316   2.404  0.9161 -0.3909 -0.7778
 7456TIP3    H246564   6.612   1.260   2.327 -1.1010  0.8588  1.2502
 7457TIP3   OH246565   1.285   3.605   2.367 -0.2969  0.1038 -0.2791
 7457TIP3    H146566   1.198   3.580   2.335  0.0019 -0.7655 -0.4484
 7457TIP3    H246567   1.288   3.571   2.457 -0.0249 -0.1580 -0.3823
 7458TIP3   OH246568   2.069   3.884   1.619  0.2172  0.4188 -0.6489
 7458TIP3    H146569   2.028   3.884   1.706 -0.1354 -0.7831 -0.8013
 7458TIP3    H246570   2.000   3.913   1.560  0.3077  0.7402 -0.5996
 7459TIP3   OH246571   0.602   0.199   2.261  0.2117 -0.6024 -0.0217
 7459TIP3    H146572   0.628   0.269   2.201 -1.0959  0.4301  0.5503
 7459TIP3    H246573   0.658   0.210   2.338 -0.6052  0.4282  0.4454
 7460TIP3   OH246574   1.944   6.157   3.361  0.0444 -0.5877 -0.0435
 7460TIP3    H146575   1.857   6.139   3.326 -1.1836  2.0408  1.3432
 7460TIP3    H246576   1.930   6.162   3.456  1.4017  1.1972  0.1088
 7461TIP3   OH246577   0.971   0.726   4.012 -0.2042  0.4094  0.0195
 7461TIP3    H146578   0.941   0.653   3.958  0.0269  0.2582  0.0918
 7461TIP3    H246579   0.990   0.686   4.097  0.0786  0.5251  0.0113
 7462TIP3   OH246580   0.635   5.635   1.058 -0.9148  0.0838  0.1339
 7462TIP3    H146581   0.641   5.612   1.151 -1.5636 -1.5391 -0.1817
 7462TIP3    H246582   0.628   5.730   1.057  0.6069  0.2767  1.6532
 7463TIP3   OH246583   4.009   4.995   1.986  0.1919  0.1488 -0.0395
 7463TIP3    H146584   3.966   5.062   2.040  1.3598  1.7529 -0.9846
 7463TIP3    H246585   4.070   4.951   2.045 -1.6060 -1.1526  0.9525
 7464TIP3   OH246586   5.714   5.007   1.051 -0.2470  0.1316 -0.6758
 7464TIP3    H146587   5.785   4.992   0.990 -0.1455 -0.0319 -0.5189
 7464TIP3    H246588   5.696   5.101   1.045  1.6186  0.6812  1.0311
 7465TIP3   OH246589   2.965   2.013   4.067  0.2110  0.5116  0.0307
 7465TIP3    H146590   2.883   2.048   4.103 -1.0077 -0.8996 -1.2119
 7465TIP3    H246591   3.022   2.002   4.143 -1.1225  0.6244  1.0782
 7466TIP3   OH246592   5.736   6.067   0.910  0.2500  0.0431 -0.4872
 7466TIP3    H146593   5.730   6.144   0.966  1.4821  0.3089 -0.6903
 7466TIP3    H246594   5.710   6.097   0.823 -0.5049 -0.0874 -0.3151
 7467TIP3   OH246595   5.082   0.319   2.327 -0.2698  0.2644  0.0227
 7467TIP3    H146596   5.074   0.224   2.328 -0.9135  0.2543  3.1803
 7467TIP3    H246597   5.017   0.350   2.390  2.0374  2.5289  1.5149
 7468TIP3   OH246598   2.745   2.061   1.575 -0.3307 -0.3816  0.2793
 7468TIP3    H146599   2.800   2.015   1.638 -0.5188 -0.0398  0.6954
 7468TIP3    H246600   2.773   2.027   1.490  0.0186 -0.7435  0.5352
 7469TIP3   OH246601   6.286   1.132   2.178 -0.1888  0.0292 -0.2552
 7469TIP3    H146602   6.262   1.224   2.190 -0.4917 -0.0067 -0.5773
 7469TIP3    H246603   6.202   1.085   2.176 -0.0040 -0.4054  1.0801
 7470TIP3   OH246604   0.082   5.166   3.078 -0.1122  0.3091 -0.3912
 7470TIP3    H146605   0.051   5.105   3.145  1.0064 -1.6009 -1.5365
 7470TIP3    H246606   0.065   5.122   2.995  2.9551  0.3949 -1.1845
 7471TIP3   OH246607   2.242   1.390   2.336 -0.5008  0.0978  0.0439
 7471TIP3    H146608   2.196   1.425   2.259 -1.6660  2.2783  1.6128
 7471TIP3    H246609   2.194   1.310   2.358  0.4022 -1.0677 -1.9384
 7472TIP3   OH246610   1.063   4.804   2.449  0.2983  0.0050  0.0336
 7472TIP3    H146611   1.131   4.738   2.439  0.3859  0.2940 -1.3651
 7472TIP3    H246612   1.050   4.840   2.362 -1.3629  0.2437  0.3364
 7473TIP3   OH246613   4.108   1.334   1.242 -0.9347  0.3370 -0.3252
 7473TIP3    H146614   4.020   1.352   1.209 -1.2470 -0.3368  0.1065
 7473TIP3    H246615   4.161   1.320   1.163 -1.4110 -0.0998 -0.5749
 7474TIP3   OH246616   5.594   4.671   1.441 -0.5163  0.0050 -0.0038
 7474TIP3    H146617   5.686   4.696   1.453 -0.3589 -0.8051  0.6162
 7474TIP3    H246618   5.545   4.751   1.458  0.1380  1.0087 -2.4194
 7475TIP3   OH246619   1.847   0.066   2.127  0.2442  0.0207 -0.0095
 7475TIP3    H146620   1.903   0.001   2.086  0.1702 -1.8230  2.5351
 7475TIP3    H246621   1.893   0.149   2.114  0.4954 -0.4896 -3.0915
 7476TIP3   OH246622   6.487   4.400   2.178 -0.7128 -0.1892 -0.0443
 7476TIP3    H146623   6.418   4.334   2.176  0.4840 -1.6524  2.4911
 7476TIP3    H246624   6.563   4.358   2.137 -0.6029  0.4792 -0.5387
 7477TIP3   OH246625   4.625   4.035   2.168 -0.0487  0.0343  0.5088
 7477TIP3    H146626   4.546   4.085   2.190  0.1116  0.9540 -0.8848
 7477TIP3    H246627   4.684   4.048   2.242 -1.8591 -2.2698  2.5220
 7478TIP3   OH246628   2.636   6.391   3.781  0.0679  0.3809 -0.0439
 7478TIP3    H146629   2.657   6.467   3.835  1.9127  0.6676 -1.0882
 7478TIP3    H246630   2.672   6.317   3.828  1.1163  0.5555 -0.5508
 7479TIP3   OH246631   4.395   3.143  11.777  0.0851  0.4668  0.6222
 7479TIP3    H146632   4.480   3.180  11.800  0.0460  0.1542  1.2915
 7479TIP3    H246633   4.393   3.058  11.821 -0.6849  0.5901  0.8535
 7480TIP3   OH246634   4.731   4.339   1.947 -0.2577 -0.1386 -0.0967
 7480TIP3    H146635   4.777   4.412   1.907  0.7596 -0.3450  0.6594
 7480TIP3    H246636   4.707   4.370   2.034 -0.8058 -0.3271 -0.1752
 7481TIP3   OH246637   5.009   1.977   2.003  0.0133  0.3250  0.6099
 7481TIP3    H146638   5.061   2.055   2.023  0.6804 -0.1514  0.7516
 7481TIP3    H246639   5.071   1.916   1.963 -0.9624  0.6931 -1.6256
 7482TIP3   OH246640   2.256   3.851   4.032  0.1316 -0.0513  0.0921
 7482TIP3    H146641   2.299   3.915   4.088  1.0609 -0.0221 -0.6355
 7482TIP3    H246642   2.296   3.863   3.946 -2.0615  0.6655 -0.8848
 7483TIP3   OH246643   3.055   3.778   3.360 -0.2963 -0.5392  0.2214
 7483TIP3    H146644   3.008   3.854   3.394 -1.3304 -0.6889 -0.8333
 7483TIP3    H246645   2.989   3.709   3.355  0.0454 -0.7848 -1.2075
 7484TIP3   OH246646   1.339   4.709   3.749 -0.0972  0.1398 -0.0220
 7484TIP3    H146647   1.318   4.799   3.775  1.1625  0.6412 -0.6407
 7484TIP3    H246648   1.322   4.706   3.655  0.5619 -0.0419 -0.1415
 7485TIP3   OH246649   3.559   5.469   1.600 -0.6986  0.6562  0.3314
 7485TIP3    H146650   3.519   5.488   1.515 -1.2080 -1.4484  0.0580
 7485TIP3    H246651   3.642   5.427   1.578 -0.9984 -0.2241  0.8526
 7486TIP3   OH246652   2.392   3.131   3.824 -0.0243 -0.3946  0.0704
 7486TIP3    H146653   2.435   3.217   3.827  0.9750 -0.8515 -0.4053
 7486TIP3    H246654   2.307   3.148   3.784  0.0436  0.4195  0.2501
 7487TIP3   OH246655   0.049   4.267   1.236 -0.5242 -0.1735  0.5710
 7487TIP3    H146656   0.000   4.323   1.176 -0.4185  0.4486  1.0481
 7487TIP3    H246657  -0.016   4.207   1.271 -0.5089 -0.8036 -0.4574
 7488TIP3   OH246658   3.667   6.239   0.524  0.1601 -0.7323 -0.6744
 7488TIP3    H146659   3.762   6.233   0.533  0.0464 -1.7610  0.0924
 7488TIP3    H246660   3.639   6.148   0.512 -0.5064 -0.2442 -3.6132
 7489TIP3   OH246661   3.025   3.269   1.166 -0.2442 -0.0826 -0.2630
 7489TIP3    H146662   3.096   3.227   1.119  0.8778 -0.0638  1.3445
 7489TIP3    H246663   2.946   3.222   1.138  0.6607 -1.5606 -0.4227
 7490TIP3   OH246664   2.913   6.377   1.978  0.5890  0.0907  0.3838
 7490TIP3    H146665   2.990   6.359   1.924 -0.0806  2.1980 -1.3817
 7490TIP3    H246666   2.904   6.472   1.978 -1.9531 -0.0704  0.6400
 7491TIP3   OH246667   1.061   5.583   2.141 -0.3444  0.2199 -0.4104
 7491TIP3    H146668   1.039   5.490   2.143  0.7452 -0.0400  0.9936
 7491TIP3    H246669   0.976   5.628   2.137 -0.9183 -0.8089 -0.1220
 7492TIP3   OH246670   6.286   5.210   1.863  0.6617  0.2869  0.1006
 7492TIP3    H146671   6.345   5.164   1.922  0.1686  0.4663  0.7518
 7492TIP3    H246672   6.344   5.260   1.805  1.1803 -0.7655 -0.3063
 7493TIP3   OH246673   3.685   0.013   4.305 -0.0180 -0.3718 -0.8795
 7493TIP3    H146674   3.775  -0.016   4.291  0.5364  0.7563  0.1535
 7493TIP3    H246675   3.639  -0.065   4.334  0.7804 -0.8130 -0.7706
 7494TIP3   OH246676   4.232   6.031   3.522 -0.1020 -0.0284  0.0722
 7494TIP3    H146677   4.197   6.109   3.565  0.0098 -0.9055  1.8132
 7494TIP3    H246678   4.327   6.042   3.527 -0.0839  0.0189 -0.2854
 7495TIP3   OH246679   2.442   3.758   3.546  0.1642 -0.2292 -0.1505
 7495TIP3    H146680   2.457   3.798   3.460  2.2751  0.6714  0.5767
 7495TIP3    H246681   2.431   3.833   3.605  1.1844 -0.7797  0.7533
 7496TIP3   OH246682   0.643   3.032   3.493 -0.6082  0.1098  0.5332
 7496TIP3    H146683   0.559   3.048   3.536 -1.6396 -2.8685 -0.1693
 7496TIP3    H246684   0.682   2.961   3.543  0.0005 -0.6865 -1.0115
 7497TIP3   OH246685   2.833   1.643   1.511  0.3581  0.0569  0.4468
 7497TIP3    H146686   2.771   1.675   1.446 -1.2426 -0.2809  1.7562
 7497TIP3    H246687   2.900   1.598   1.460 -2.2535 -2.6124 -0.8714
 7498TIP3   OH246688   2.149   4.284   1.868 -0.3050 -0.6985 -0.5334
 7498TIP3    H146689   2.106   4.348   1.925  0.6259 -0.5158 -0.0200
 7498TIP3    H246690   2.215   4.334   1.820  1.6238 -1.5076  1.1139
 7499TIP3   OH246691   2.435   3.737   0.574 -0.3427  0.2641 -0.0696
 7499TIP3    H146692   2.371   3.666   0.567  0.1891 -0.1773 -0.5731
 7499TIP3    H246693   2.382   3.816   0.583 -0.9462 -0.2692  1.5305
 7500TIP3   OH246694   6.671   5.407   1.892 -0.1030  0.5306  0.2206
 7500TIP3    H146695   6.621   5.441   1.967  0.3390 -0.4190  0.9552
 7500TIP3    H246696   6.721   5.334   1.927 -0.0543 -0.0727 -1.0612
 7501TIP3   OH246697   0.119   4.249   2.358  0.0555 -0.4147 -0.3337
 7501TIP3    H146698   0.110   4.305   2.282 -0.5554 -1.5254 -1.1104
 7501TIP3    H246699   0.032   4.249   2.398 -0.3613 -1.8999 -1.1583
 7502TIP3   OH246700   1.234   0.649   3.443  0.0167  0.1192 -0.2614
 7502TIP3    H146701   1.193   0.725   3.401  2.3697  1.3131 -0.5480
 7502TIP3    H246702   1.304   0.623   3.383  0.3398 -1.2198  0.6516
 7503TIP3   OH246703   5.102   4.599   3.131  0.3775  0.3068 -0.2270
 7503TIP3    H146704   5.126   4.507   3.117 -0.9901 -0.2300  0.8038
 7503TIP3    H246705   5.129   4.617   3.221  0.2503  0.7868 -0.2854
 7504TIP3   OH246706   5.535   0.482   0.434 -0.2231  0.0498 -0.7480
 7504TIP3    H146707   5.519   0.431   0.355 -4.1658  1.7882 -1.3241
 7504TIP3    H246708   5.455   0.470   0.486  1.0796  1.1852  1.6998
 7505TIP3   OH246709   6.067   6.641   1.222 -0.2548 -0.1444 -0.1854
 7505TIP3    H146710   6.120   6.632   1.142  0.8095  0.4385  0.4266
 7505TIP3    H246711   6.093   6.567   1.276 -1.5922 -1.0197 -0.6875
 7506TIP3   OH246712   6.690   0.907   1.828  0.1098 -0.1520 -0.0370
 7506TIP3    H146713   6.628   0.925   1.756  0.0657  0.3947  0.1358
 7506TIP3    H246714   6.678   0.813   1.846  0.0632 -0.2775 -0.6890
 7507TIP3   OH246715   1.316   6.660   1.579 -0.3929  0.3531 -0.9413
 7507TIP3    H146716   1.255   6.650   1.506 -0.3038  0.6472 -1.0584
 7507TIP3    H246717   1.260   6.662   1.657 -0.5080  0.2955 -1.0227
 7508TIP3   OH246718   3.242   0.290   2.295  0.0403  0.2041  0.0089
 7508TIP3    H146719   3.294   0.229   2.348  0.7515  0.8578  0.0748
 7508TIP3    H246720   3.253   0.375   2.337  0.8203  0.7937 -1.3196
 7509TIP3   OH246721   2.856   0.148   1.635  0.5438  0.3600 -0.3157
 7509TIP3    H146722   2.917   0.198   1.689  0.6729  1.4957 -1.4611
 7509TIP3    H246723   2.771   0.157   1.679  0.7472  0.8186 -0.0130
 7510TIP3   OH246724   1.556   3.842   3.720 -0.0753  0.4689 -0.0994
 7510TIP3    H146725   1.628   3.828   3.782  0.4160  0.2342 -0.7050
 7510TIP3    H246726   1.491   3.776   3.744 -1.5246  2.6376  2.4513
 7511TIP3   OH246727   1.497   1.387   2.873 -0.5570 -0.3778  0.8210
 7511TIP3    H146728   1.471   1.445   2.801 -0.7107 -2.3991 -0.8397
 7511TIP3    H246729   1.568   1.434   2.917  0.6104  0.3256 -1.6011
 7512TIP3   OH246730   5.279   0.106   1.474 -0.3042 -0.2787  0.0591
 7512TIP3    H146731   5.358   0.058   1.497 -0.3227 -0.5653 -0.4510
 7512TIP3    H246732   5.308   0.167   1.406 -0.8213 -1.4657 -1.2711
 7513TIP3   OH246733   1.408   6.388   4.542 -0.1407  0.0744  0.2497
 7513TIP3    H146734   1.364   6.311   4.507  0.2416  0.4721 -1.2059
 7513TIP3    H246735   1.384   6.390   4.635 -0.7938 -1.3322  0.1383
 7514TIP3   OH246736   6.153   5.894   2.943 -0.4714 -0.0520  0.3637
 7514TIP3    H146737   6.070   5.887   2.896 -0.2439  0.6398 -0.1603
 7514TIP3    H246738   6.154   5.983   2.977  0.6847  0.4398 -0.8718
 7515TIP3   OH246739   5.603   4.016   3.355 -0.6355  0.2408 -0.6563
 7515TIP3    H146740   5.571   4.075   3.287  0.5201  1.3157 -0.3239
 7515TIP3    H246741   5.687   4.054   3.382  0.3872 -1.8230 -0.7304
 7516TIP3   OH246742   4.962   4.480   0.799 -0.1579 -0.2117  0.3237
 7516TIP3    H146743   4.997   4.554   0.847  0.7213 -0.1436 -0.3910
 7516TIP3    H246744   5.009   4.404   0.835  0.5999 -0.1451 -0.4843
 7517TIP3   OH246745   2.340   1.676   3.169 -0.2012 -0.1241  0.3045
 7517TIP3    H146746   2.375   1.714   3.088 -1.9817 -3.2425 -2.2124
 7517TIP3    H246747   2.387   1.593   3.179  0.7782  0.6962  3.2389
 7518TIP3   OH246748   1.191   0.848   0.940 -0.1063 -0.1541  0.2477
 7518TIP3    H146749   1.097   0.860   0.927 -0.4222 -1.4485  1.1016
 7518TIP3    H246750   1.204   0.754   0.931  0.7236 -0.2949  2.3479
 7519TIP3   OH246751   0.403   2.346   1.288 -0.1381 -0.6570 -0.1831
 7519TIP3    H146752   0.421   2.352   1.382  1.9195 -0.5613 -0.5352
 7519TIP3    H246753   0.467   2.283   1.255  0.2606  0.5113 -1.7689
 7520TIP3   OH246754   5.772   3.100   2.466  0.0780 -0.0772 -0.0306
 7520TIP3    H146755   5.795   3.180   2.514 -0.6326  0.1518 -0.0596
 7520TIP3    H246756   5.701   3.061   2.516 -0.5662  0.0790 -0.7875
 7521TIP3   OH246757   0.990   3.604   2.574  0.5055 -0.4079 -0.0740
 7521TIP3    H146758   1.049   3.596   2.649  1.1363  0.6712 -0.4296
 7521TIP3    H246759   0.979   3.515   2.542  1.3608 -0.7094  0.4488
 7522TIP3   OH246760   2.378   0.660   0.681 -0.0921 -0.7162  0.0022
 7522TIP3    H146761   2.394   0.576   0.724 -0.4140 -1.3662 -1.1046
 7522TIP3    H246762   2.455   0.673   0.625 -0.4460 -0.7238 -0.4994
 7523TIP3   OH246763   3.176   6.232   4.985  0.3006  0.3648 -0.6339
 7523TIP3    H146764   3.117   6.305   4.967 -2.4390 -1.7155 -0.7225
 7523TIP3    H246765   3.235   6.229   4.909  1.0163  2.8540 -0.2668
 7524TIP3   OH246766   3.277   1.680   1.806  0.2163 -0.4298 -0.0348
 7524TIP3    H146767   3.239   1.716   1.725  0.6027 -2.5747 -1.2343
 7524TIP3    H246768   3.252   1.588   1.805  0.5453 -0.5911  2.1532
 7525TIP3   OH246769   1.552   4.700   2.246 -0.1167 -0.1091 -0.2674
 7525TIP3    H146770   1.563   4.638   2.319  0.6567 -0.4697 -0.6695
 7525TIP3    H246771   1.458   4.706   2.234 -0.2508 -0.2204  0.6142
 7526TIP3   OH246772   2.851   1.737   1.763  0.2276  0.3168 -0.1462
 7526TIP3    H146773   2.856   1.692   1.678  0.1555 -0.5124  0.2806
 7526TIP3    H246774   2.886   1.674   1.826 -2.6094 -0.3616  0.9196
 7527TIP3   OH246775   5.515   1.237   3.669 -0.1840 -0.4144  0.3240
 7527TIP3    H146776   5.561   1.165   3.625 -1.5090  0.5375 -2.8800
 7527TIP3    H246777   5.579   1.308   3.672  0.0740 -0.6483  0.3994
 7528TIP3   OH246778   3.973   0.770   1.693 -0.3156 -0.4700  0.1759
 7528TIP3    H146779   4.040   0.799   1.755  0.4436 -0.1981 -0.7446
 7528TIP3    H246780   4.019   0.709   1.635 -1.1844 -1.2772  0.3103
 7529TIP3   OH246781   3.915   4.685   3.388 -0.2149  0.2817 -0.0001
 7529TIP3    H146782   3.822   4.697   3.370 -0.6793 -0.5862  1.6407
 7529TIP3    H246783   3.958   4.752   3.334 -1.9348  2.2881  0.9475
 7530TIP3   OH246784   5.109   0.474   1.167  0.4318  0.0084 -0.1863
 7530TIP3    H146785   5.044   0.413   1.202  3.2503 -2.8220  0.5683
 7530TIP3    H246786   5.165   0.495   1.242  1.8337  0.3587 -1.2879
 7531TIP3   OH246787   6.455   3.716   3.276  0.1296  0.0210  0.0885
 7531TIP3    H146788   6.467   3.757   3.190 -1.7187 -1.1953 -0.8104
 7531TIP3    H246789   6.409   3.635   3.257  2.7783 -2.0541  1.9049
 7532TIP3   OH246790   2.573   3.758   2.602 -0.1190 -0.6649  0.5893
 7532TIP3    H146791   2.502   3.815   2.572 -1.6301 -1.7406  1.9678
 7532TIP3    H246792   2.531   3.696   2.662  1.6545 -2.5679 -0.0306
 7533TIP3   OH246793   3.527   6.090   1.248  0.4107  0.0473 -0.5995
 7533TIP3    H146794   3.519   6.147   1.171  0.0011 -0.8557 -1.2345
 7533TIP3    H246795   3.524   6.150   1.322  0.2610  0.8819 -1.2656
 7534TIP3   OH246796   2.794   0.275   1.408  0.2934 -0.5585  0.1526
 7534TIP3    H146797   2.796   0.222   1.488 -1.9746  0.0786  0.6841
 7534TIP3    H246798   2.858   0.344   1.424 -0.5227 -0.1200  1.6784
 7535TIP3   OH246799   1.059   1.785   0.938 -0.5858  0.0814  0.2075
 7535TIP3    H146800   1.144   1.791   0.981 -0.2494  0.2083 -0.4505
 7535TIP3    H246801   1.000   1.837   0.993 -0.0079  0.8242  0.1427
 7536TIP3   OH246802   1.841   4.239   0.705  0.0324 -0.1480 -0.0759
 7536TIP3    H146803   1.848   4.314   0.646  0.9373 -1.1779 -1.3357
 7536TIP3    H246804   1.846   4.163   0.648  0.4479 -1.1938  1.2915
 7537TIP3   OH246805   5.548   1.516   1.743 -0.3563 -0.1362  0.7011
 7537TIP3    H146806   5.621   1.576   1.730 -0.0956 -0.1994  1.7453
 7537TIP3    H246807   5.502   1.515   1.659  1.3379 -0.7857 -0.2646
 7538TIP3   OH246808   4.590   1.659   0.463  0.0789  0.7422 -0.3726
 7538TIP3    H146809   4.588   1.565   0.478  0.9334  0.9124  0.9036
 7538TIP3    H246810   4.498   1.684   0.451 -0.0190 -0.5721 -3.0255
 7539TIP3   OH246811   1.505   5.902   3.045  0.3998  0.3953  0.1218
 7539TIP3    H146812   1.442   5.832   3.025  0.2890  0.4761  0.1903
 7539TIP3    H246813   1.579   5.883   2.988  1.0093 -0.6527  1.2128
 7540TIP3   OH246814   1.931   5.433   2.641 -0.4093 -0.2490  0.1207
 7540TIP3    H146815   1.952   5.482   2.562 -0.6798 -0.5475 -0.1367
 7540TIP3    H246816   1.860   5.374   2.615 -1.1475  0.3019  0.8060
 7541TIP3   OH246817   1.270   3.816   3.562 -0.5125  0.2026 -0.7373
 7541TIP3    H146818   1.299   3.727   3.583  0.5311  0.7677  0.3258
 7541TIP3    H246819   1.332   3.847   3.496  0.5124  0.9061  0.5078
 7542TIP3   OH246820   5.893   6.025   1.876 -0.1260 -0.0553  0.2685
 7542TIP3    H146821   5.984   6.004   1.898 -0.3146  0.5285  1.7426
 7542TIP3    H246822   5.845   5.945   1.895  0.1322 -0.5548 -1.0675
 7543TIP3   OH246823   0.480   6.112   4.016 -0.3327  0.5432 -0.1041
 7543TIP3    H146824   0.385   6.111   4.002 -0.3462 -0.2071 -0.0482
 7543TIP3    H246825   0.491   6.135   4.108 -0.5225 -0.4108  0.1752
 7544TIP3   OH246826   1.720   2.652   3.373  0.3732  0.0203 -0.0052
 7544TIP3    H146827   1.666   2.685   3.444  0.7493 -0.6361  0.5935
 7544TIP3    H246828   1.695   2.559   3.365 -1.3833  0.5964 -2.3088
 7545TIP3   OH246829   1.052   2.513   1.220 -0.4409  0.2820 -0.6888
 7545TIP3    H146830   1.034   2.486   1.130  2.6658  0.2978 -1.4510
 7545TIP3    H246831   1.134   2.563   1.214  0.3092 -0.3839  2.2316
 7546TIP3   OH246832   3.694   5.780   2.590 -0.0660 -0.5231  0.3900
 7546TIP3    H146833   3.725   5.869   2.607  0.0168 -0.5100  0.1691
 7546TIP3    H246834   3.606   5.777   2.629 -0.8798  0.2549 -1.2915
 7547TIP3   OH246835   4.022   0.305   4.578  0.5834  0.0219  0.7618
 7547TIP3    H146836   4.026   0.398   4.601  1.8562  0.0295  0.5851
 7547TIP3    H246837   3.929   0.289   4.559 -0.1866  0.5646  3.5630
 7548TIP3   OH246838   6.024   4.490   1.291 -0.1661  0.1166  0.0115
 7548TIP3    H146839   6.062   4.495   1.203 -1.0390  0.3443 -0.3624
 7548TIP3    H246840   6.032   4.398   1.315  0.9503  0.2212  0.1018
 7549TIP3   OH246841   2.344   3.480   0.915  0.3140  0.2608  0.3723
 7549TIP3    H146842   2.429   3.479   0.871 -0.5558  2.3619 -1.6112
 7549TIP3    H246843   2.360   3.524   0.998  0.7706  3.6783 -1.3351
 7550TIP3   OH246844   1.281   3.256   3.546 -0.0468 -0.0838 -0.4033
 7550TIP3    H146845   1.196   3.299   3.558 -0.1526 -0.2666 -0.4933
 7550TIP3    H246846   1.297   3.209   3.627 -1.8527 -3.2464 -1.7155
 7551TIP3   OH246847   2.163   4.989   3.399 -0.4382 -0.3605 -0.2336
 7551TIP3    H146848   2.194   4.964   3.486 -0.4338  1.0871  0.2080
 7551TIP3    H246849   2.238   5.031   3.357 -0.7879  0.0596 -0.4585
 7552TIP3   OH246850   4.026   4.070   0.943  0.3387  0.3873 -0.0491
 7552TIP3    H146851   4.111   4.114   0.949  0.5938 -0.1596  0.4345
 7552TIP3    H246852   4.041   3.984   0.983  0.0265 -0.4070 -1.5765
 7553TIP3   OH246853   1.763   2.747   2.492 -0.0097  0.7295  0.0943
 7553TIP3    H146854   1.786   2.823   2.546 -4.2380  1.6264  1.0078
 7553TIP3    H246855   1.731   2.785   2.410  0.7211 -0.2985 -0.6938
 7554TIP3   OH246856   0.867   6.478   2.166 -0.1911  0.0759 -0.2290
 7554TIP3    H146857   0.772   6.478   2.171 -0.2873 -1.3025 -1.4907
 7554TIP3    H246858   0.894   6.409   2.227 -0.2720 -2.1805 -2.5569
 7555TIP3   OH246859   2.213   1.183   3.452 -0.9356  0.1512  0.2063
 7555TIP3    H146860   2.127   1.160   3.419 -0.7144  1.4997 -1.4287
 7555TIP3    H246861   2.203   1.184   3.547 -2.1179 -1.8798  0.1619
 7556TIP3   OH246862   6.673   5.091   1.241 -0.0365 -0.1444  0.5026
 7556TIP3    H146863   6.583   5.077   1.212  0.2974 -0.8576 -0.2364
 7556TIP3    H246864   6.681   5.185   1.252 -0.2063  0.1875 -1.7292
 7557TIP3   OH246865   5.580   6.453   3.349  0.1426 -0.2221 -0.4085
 7557TIP3    H146866   5.555   6.546   3.346 -0.7428 -0.3894  0.9737
 7557TIP3    H246867   5.524   6.415   3.416 -0.8956 -2.2037 -2.2518
 7558TIP3   OH246868   6.183   2.588   2.364  0.3142  0.2099 -0.6535
 7558TIP3    H146869   6.268   2.613   2.400  0.7388  1.2974 -2.2930
 7558TIP3    H246870   6.178   2.493   2.374 -0.0173  0.4816  3.0315
 7559TIP3   OH246871   3.050   0.843   2.769  0.2484  0.3000 -0.0664
 7559TIP3    H146872   3.091   0.928   2.758 -1.0076  0.8978 -0.3164
 7559TIP3    H246873   3.113   0.781   2.732  1.4155  1.0426  0.6095
 7560TIP3   OH246874   0.281   1.323   1.041 -0.2275  0.4210 -0.5539
 7560TIP3    H146875   0.322   1.326   1.128  2.1422  0.3073 -1.6020
 7560TIP3    H246876   0.341   1.271   0.988 -1.7635  0.2573 -2.2267
 7561TIP3   OH246877   1.984   4.086   1.993  0.1023 -0.2074  0.4832
 7561TIP3    H146878   1.981   4.012   1.933  2.4748 -1.1950  1.4604
 7561TIP3    H246879   2.020   4.158   1.942 -1.4152  0.0714 -0.2416
 7562TIP3   OH246880   1.196   6.660   2.087 -0.0956  0.0265 -0.0749
 7562TIP3    H146881   1.110   6.695   2.112 -0.0278 -0.2089  0.5139
 7562TIP3    H246882   1.190   6.648   1.992 -0.9176 -0.5110  0.0279
 7563TIP3   OH246883   2.486   2.990   2.547 -0.3418 -0.5324 -0.6935
 7563TIP3    H146884   2.552   2.987   2.616 -0.8108  0.2713 -0.1983
 7563TIP3    H246885   2.508   2.916   2.490  1.0029 -0.2741 -0.5555
 7564TIP3   OH246886   1.549   1.374   1.787  0.0343  0.1905 -0.1935
 7564TIP3    H146887   1.513   1.289   1.811  1.7779 -0.6996 -0.6014
 7564TIP3    H246888   1.474   1.423   1.752 -0.9288 -1.2751 -0.2557
 7565TIP3   OH246889   4.962   0.394   3.327 -0.1470 -0.2340  0.6985
 7565TIP3    H146890   4.978   0.407   3.421  0.3371  2.8484  0.3121
 7565TIP3    H246891   5.049   0.399   3.288 -0.3946 -1.0625  0.0294
 7566TIP3   OH246892   1.783   1.844   1.093  0.2730 -0.2325 -0.1330
 7566TIP3    H146893   1.839   1.900   1.145  0.8912 -2.4469  1.7629
 7566TIP3    H246894   1.746   1.781   1.155 -1.2253 -1.2696 -1.9381
 7567TIP3   OH246895   1.872   5.454   3.666 -0.7009  0.1610 -0.0896
 7567TIP3    H146896   1.803   5.479   3.727  0.5577 -0.1394  1.5310
 7567TIP3    H246897   1.945   5.512   3.687 -1.2790  2.5471 -3.7492
 7568TIP3   OH246898   2.092   6.567   3.370 -0.1680  0.4374  0.0788
 7568TIP3    H146899   2.045   6.610   3.441 -0.1768  0.8387 -0.1658
 7568TIP3    H246900   2.050   6.600   3.290 -1.3053 -1.3111 -0.0946
 7569TIP3   OH246901   2.450   4.113   3.231 -0.2140 -0.1672 -0.0052
 7569TIP3    H146902   2.464   4.155   3.316  1.1522  1.1181 -0.8116
 7569TIP3    H246903   2.481   4.178   3.167 -1.5628 -0.9396 -1.5211
 7570TIP3   OH246904   0.369   4.281   2.033  0.7088 -0.0754 -0.5615
 7570TIP3    H146905   0.369   4.190   2.004 -1.4519 -0.5063  0.5993
 7570TIP3    H246906   0.447   4.319   1.993  0.2683 -1.7449 -3.2663
 7571TIP3   OH246907   1.506   0.771   3.611 -0.4102 -0.3056  0.4010
 7571TIP3    H146908   1.410   0.778   3.617 -0.4952  0.0350 -1.0555
 7571TIP3    H246909   1.538   0.844   3.662 -0.9793  0.5149 -0.3848
 7572TIP3   OH246910   3.550   4.988   2.962 -0.0466 -0.1730  0.3448
 7572TIP3    H146911   3.645   4.982   2.966 -0.1439 -1.3143  2.1445
 7572TIP3    H246912   3.527   5.059   3.022 -0.3712 -0.4195  0.5186
 7573TIP3   OH246913   1.080   5.514   3.008 -0.4380  0.4724 -0.1349
 7573TIP3    H146914   1.033   5.550   3.084 -1.0256  0.2538 -0.3891
 7573TIP3    H246915   1.011   5.496   2.944  0.0018  0.1782 -0.5279
 7574TIP3   OH246916   5.826   3.647   1.785 -0.7099 -0.3591  0.2225
 7574TIP3    H146917   5.810   3.568   1.836 -0.0646 -0.4833  0.2373
 7574TIP3    H246918   5.909   3.631   1.741 -1.5786 -0.5587 -1.4447
 7575TIP3   OH246919   0.031   3.880   1.302  0.2720  0.0551  0.1298
 7575TIP3    H146920  -0.039   3.912   1.359 -0.1891 -0.5823 -0.0614
 7575TIP3    H246921   0.104   3.940   1.317  0.1629 -0.0884  1.3863
 7576TIP3   OH246922   3.749   4.474   1.242  0.2549 -0.5871 -0.1104
 7576TIP3    H146923   3.808   4.399   1.253  0.2448 -0.6245 -0.3112
 7576TIP3    H246924   3.808   4.549   1.234  0.2474 -0.3993  1.3351
 7577TIP3   OH246925   0.442   3.008   1.833 -0.0152 -0.2198 -0.3485
 7577TIP3    H146926   0.511   3.075   1.831 -0.8753  0.6723 -0.6419
 7577TIP3    H246927   0.476   2.938   1.777  1.5729 -0.7332  1.1834
 7578TIP3   OH246928   2.499   6.035   4.430 -0.7628 -0.5884 -0.8595
 7578TIP3    H146929   2.583   6.002   4.400 -0.0611  1.7258 -1.6207
 7578TIP3    H246930   2.520   6.115   4.478 -2.4130 -0.8877  0.4815
 7579TIP3   OH246931   4.015   2.787   1.487 -0.2257  0.1352 -0.0710
 7579TIP3    H146932   4.037   2.763   1.397  1.2111 -0.3975  0.3890
 7579TIP3    H246933   3.949   2.856   1.478  0.3279  0.5120 -1.5448
 7580TIP3   OH246934   0.879   4.026   2.443 -0.3878 -0.0029  0.1774
 7580TIP3    H146935   0.949   3.962   2.430 -1.0620 -0.1761 -3.3512
 7580TIP3    H246936   0.803   3.974   2.469 -0.3486 -0.3656 -0.4258
 7581TIP3   OH246937   2.636   1.143   0.887  0.0100  0.4113 -0.3746
 7581TIP3    H146938   2.685   1.063   0.868 -0.7052 -0.5324  1.5389
 7581TIP3    H246939   2.551   1.130   0.846 -0.6483 -0.5160  1.2306
 7582TIP3   OH246940   5.336   3.204   2.660 -0.2515  0.0108 -0.1769
 7582TIP3    H146941   5.311   3.218   2.569  0.6029  1.0316 -0.2816
 7582TIP3    H246942   5.372   3.288   2.688  0.2920 -0.5356  0.8415
 7583TIP3   OH246943   1.746   3.934   1.078 -0.4791 -0.3929  0.0080
 7583TIP3    H146944   1.762   3.882   0.999  1.0001 -1.3161  0.8807
 7583TIP3    H246945   1.795   4.015   1.063 -0.8417 -0.2368 -0.3480
 7584TIP3   OH246946   1.902   3.193   0.696  0.1364 -0.0651 -0.3568
 7584TIP3    H146947   1.972   3.168   0.636 -0.2701 -0.6768 -0.5786
 7584TIP3    H246948   1.937   3.172   0.783 -0.1810 -1.3765 -0.5350
 7585TIP3   OH246949   1.325   5.206   1.057  0.0766  0.1587  0.0453
 7585TIP3    H146950   1.288   5.118   1.063  0.5380  0.0625  2.2507
 7585TIP3    H246951   1.351   5.215   0.965 -1.3960 -1.4001 -0.5671
 7586TIP3   OH246952   0.127   4.425   2.111  0.6845  0.3603  0.0702
 7586TIP3    H146953   0.079   4.416   2.029  0.6255  1.0324  0.0228
 7586TIP3    H246954   0.210   4.380   2.095  0.4323 -0.0272 -0.1512
 7587TIP3   OH246955   3.768   4.145   1.494  0.3290  0.2509 -0.3057
 7587TIP3    H146956   3.672   4.138   1.490  0.3666 -1.3107  0.5658
 7587TIP3    H246957   3.788   4.226   1.447 -1.5228  1.4089  0.7740
 7588TIP3   OH246958   2.470   6.662   2.130  0.6621 -0.5989  0.6366
 7588TIP3    H146959   2.539   6.725   2.108  2.1493 -2.8703 -1.7371
 7588TIP3    H246960   2.404   6.673   2.062 -0.0824 -0.2798  1.3824
 7589TIP3   OH246961   1.305   1.215   1.121 -0.0215  0.2742  0.1868
 7589TIP3    H146962   1.306   1.273   1.045 -3.3220 -0.9312 -0.9546
 7589TIP3    H246963   1.332   1.130   1.087 -0.7736 -0.0997  0.4958
 7590TIP3   OH246964   6.156   3.454   1.167  0.6696  0.1981  0.1329
 7590TIP3    H146965   6.236   3.403   1.160  0.4210  0.0758 -2.8452
 7590TIP3    H246966   6.090   3.393   1.200  1.0367 -0.6110 -0.6229
 7591TIP3   OH246967   1.840   6.299   2.442 -0.3533  0.0755  0.3878
 7591TIP3    H146968   1.873   6.233   2.503 -0.4759  0.7176  1.1741
 7591TIP3    H246969   1.780   6.252   2.385  0.9719 -0.8676 -0.2884
 7592TIP3   OH246970   3.270   3.632   1.163  0.2055 -0.2317  0.2251
 7592TIP3    H146971   3.341   3.673   1.212  0.4640 -0.8695  0.3991
 7592TIP3    H246972   3.286   3.655   1.072  0.3231  0.0846  0.3258
 7593TIP3   OH246973   4.379   5.393   3.009  0.2750 -0.0273  0.5169
 7593TIP3    H146974   4.426   5.445   3.074 -1.3813  0.1397  1.6492
 7593TIP3    H246975   4.426   5.310   3.007  0.7578  0.2030  1.4671
 7594TIP3   OH246976   4.124   3.151   1.716  0.1162  0.3590  0.7944
 7594TIP3    H146977   4.063   3.088   1.755  0.0102 -1.0417 -1.4366
 7594TIP3    H246978   4.071   3.229   1.701 -0.2758  0.3007  1.8045
 7595TIP3   OH246979   2.525   0.168   4.039 -0.4943  0.3503 -0.4519
 7595TIP3    H146980   2.576   0.246   4.059 -3.7804  2.3115  1.3022
 7595TIP3    H246981   2.447   0.202   3.995 -3.1123 -1.5073  2.3560
 7596TIP3   OH246982   6.444   2.603   2.420  0.1883 -0.1094  0.2123
 7596TIP3    H146983   6.538   2.604   2.441  0.0388 -0.3360  0.9358
 7596TIP3    H246984   6.407   2.538   2.479 -0.7180  1.2609  1.2363
 7597TIP3   OH246985   3.123   3.867   0.672 -0.0871  0.2671  0.5535
 7597TIP3    H146986   3.062   3.840   0.602  1.4574 -0.6227 -0.5144
 7597TIP3    H246987   3.075   3.934   0.721 -2.0831 -0.6916  0.0297
 7598TIP3   OH246988   6.610   2.918   2.997 -0.4341  1.2963  0.0561
 7598TIP3    H146989   6.581   2.974   2.925 -0.6333 -0.1645 -1.0467
 7598TIP3    H246990   6.585   2.830   2.970 -2.3930  0.8668  2.8188
 7599TIP3   OH246991   2.500   5.740   1.201  0.0674 -0.0068  0.4554
 7599TIP3    H146992   2.585   5.724   1.159 -0.1533  1.3784 -0.5990
 7599TIP3    H246993   2.492   5.835   1.201 -1.6298 -0.1321  0.2587
 7600TIP3   OH246994   4.593   1.658   3.225 -0.4853  0.1645  0.1931
 7600TIP3    H146995   4.541   1.687   3.299 -0.2031 -0.4073  0.6212
 7600TIP3    H246996   4.675   1.629   3.263  0.5318  1.8664 -0.5407
 7601TIP3   OH246997   3.414   0.027   0.635  0.8491  0.3893  0.3746
 7601TIP3    H146998   3.485   0.064   0.584  0.3772 -0.3867 -0.9108
 7601TIP3    H246999   3.443  -0.062   0.656  0.1094 -0.0951 -0.5513
 7602TIP3   OH247000   6.060   4.358   2.469  0.2942  0.2217  0.6029
 7602TIP3    H147001   6.067   4.319   2.382 -4.2985 -2.2115  0.9749
 7602TIP3    H247002   6.061   4.452   2.453  0.8627 -0.1218 -1.8907
 7603TIP3   OH247003   4.993   2.706   2.462  0.3587  0.7096  0.1140
 7603TIP3    H147004   4.954   2.674   2.544  1.8002  0.5476  0.7619
 7603TIP3    H247005   5.003   2.628   2.408  0.5947  0.6203  0.2879
 7604TIP3   OH247006   0.419   2.382   3.525 -0.5794 -0.0653 -0.3474
 7604TIP3    H147007   0.382   2.450   3.580  2.0368  0.1519  1.3194
 7604TIP3    H247008   0.354   2.312   3.526 -1.5518  0.8067  1.2416
 7605TIP3   OH247009   0.346   3.849   1.247  0.2982  0.1456  0.3840
 7605TIP3    H147010   0.346   3.852   1.151  2.0594 -2.0404  0.2526
 7605TIP3    H247011   0.356   3.941   1.273  0.0585  0.7634 -1.5236
 7606TIP3   OH247012   4.467   1.152   1.952  0.1081  1.0044 -0.3243
 7606TIP3    H147013   4.467   1.219   1.884  1.9025  2.1570  0.7445
 7606TIP3    H247014   4.423   1.193   2.026 -1.1835  0.0096 -0.5050
 7607TIP3   OH247015   1.138   0.412   2.396 -0.4467  0.0930 -0.3897
 7607TIP3    H147016   1.192   0.333   2.395  1.4822  1.3232 -1.6791
 7607TIP3    H247017   1.154   0.451   2.482 -1.1448 -0.7294  0.1231
 7608TIP3   OH247018   5.643   0.371   1.171  0.0259 -0.2666 -0.1857
 7608TIP3    H147019   5.579   0.331   1.229  0.8851 -0.6748  0.5042
 7608TIP3    H247020   5.645   0.315   1.093 -1.4894  0.5592 -0.8461
 7609TIP3   OH247021   3.606   5.248   3.729 -0.5489 -0.3250 -0.4835
 7609TIP3    H147022   3.631   5.157   3.717 -0.1480 -0.1315 -1.1572
 7609TIP3    H247023   3.598   5.283   3.641 -1.0485  0.2022 -0.2373
 7610TIP3   OH247024   6.548   6.387   2.689  0.2207 -0.4867 -0.1170
 7610TIP3    H147025   6.623   6.328   2.695  0.1302 -1.0547 -2.9601
 7610TIP3    H247026   6.587   6.475   2.687  0.5692 -0.5916  1.1705
 7611TIP3   OH247027   1.116   5.062   3.266 -0.5809  0.8117  0.0660
 7611TIP3    H147028   1.160   5.141   3.299 -1.6612  1.7410 -0.6532
 7611TIP3    H247029   1.034   5.058   3.315 -0.7606  0.4189 -0.2649
 7612TIP3   OH247030   2.345   1.644   1.745  0.0191  0.3748  0.2239
 7612TIP3    H147031   2.262   1.598   1.736 -0.1328  0.5786  0.5590
 7612TIP3    H247032   2.362   1.680   1.659  0.9253 -1.6253 -0.5070
 7613TIP3   OH247033   0.246   6.053   3.863  0.1985 -0.1906  0.3398
 7613TIP3    H147034   0.173   6.114   3.857  0.0960  0.0189  2.9015
 7613TIP3    H247035   0.205   5.966   3.863  0.1631 -0.1866 -0.7027
 7614TIP3   OH247036   3.981   3.294   2.891 -0.3176  0.2039  0.0119
 7614TIP3    H147037   4.019   3.334   2.813 -0.4363 -0.6996 -0.5221
 7614TIP3    H247038   3.887   3.314   2.885 -0.5044 -0.8346 -0.6849
 7615TIP3   OH247039   0.666   5.844   3.732  0.2187 -0.5037 -0.6550
 7615TIP3    H147040   0.582   5.843   3.778  0.5351  1.4543  0.0673
 7615TIP3    H247041   0.643   5.840   3.640 -0.5490 -2.0164 -0.4237
 7616TIP3   OH247042   5.503   4.422   1.756 -0.1446 -0.0667 -0.3655
 7616TIP3    H147043   5.462   4.336   1.766  0.6357 -0.3022  1.1007
 7616TIP3    H247044   5.586   4.404   1.713  0.2314 -0.1270  0.3671
 7617TIP3   OH247045   5.893   4.512   3.035  0.4380 -0.2983 -0.2441
 7617TIP3    H147046   5.912   4.550   2.950 -0.0150 -1.8575 -1.0861
 7617TIP3    H247047   5.924   4.422   3.029 -2.3470 -1.4059  0.0971
 7618TIP3   OH247048   5.839   2.137   3.455 -0.0366  0.1466  0.1292
 7618TIP3    H147049   5.923   2.174   3.483  0.0531 -0.0067  0.0687
 7618TIP3    H247050   5.778   2.162   3.524  0.4315 -1.2433  1.1190
 7619TIP3   OH247051   4.950   1.848   3.039 -0.0127  0.5412  0.3002
 7619TIP3    H147052   4.928   1.763   3.000  0.7545  0.4434  0.0775
 7619TIP3    H247053   4.907   1.912   2.983 -0.0029  0.3353  0.0562
 7620TIP3   OH247054   2.687   5.330   0.624  0.0584  0.0290  0.3315
 7620TIP3    H147055   2.660   5.280   0.547  2.2218  0.0951 -0.5188
 7620TIP3    H247056   2.723   5.265   0.684  1.3429  0.3362 -0.0830
 7621TIP3   OH247057   6.380   1.361   2.000 -0.5656 -0.0863  0.1216
 7621TIP3    H147058   6.313   1.360   1.931  0.6649  2.6522 -1.2660
 7621TIP3    H247059   6.452   1.309   1.964 -0.4908  0.1252 -0.0368
 7622TIP3   OH247060   3.215   6.661   3.792 -0.6506  0.2511  0.7405
 7622TIP3    H147061   3.179   6.607   3.862  1.5759 -1.3983  0.7310
 7622TIP3    H247062   3.291   6.704   3.832  0.9418 -1.0803 -0.7013
 7623TIP3   OH247063   2.151   2.899   3.303  0.0063 -0.7419  0.3990
 7623TIP3    H147064   2.062   2.890   3.339  0.2286  1.6328  1.7195
 7623TIP3    H247065   2.137   2.924   3.212 -0.7530  0.6484  0.8627
 7624TIP3   OH247066   1.881   6.632   3.863 -0.0186 -0.7218  0.3635
 7624TIP3    H147067   1.790   6.617   3.838  0.3125  1.1757 -2.3751
 7624TIP3    H247068   1.929   6.558   3.825 -0.2970 -1.3978  1.2872
 7625TIP3   OH247069   0.728   1.202   1.067 -0.1075  0.2735 -0.0366
 7625TIP3    H147070   0.814   1.244   1.062  0.3426 -0.6114  0.1844
 7625TIP3    H247071   0.741   1.128   1.126 -0.6067 -0.8649 -1.3068
 7626TIP3   OH247072   6.069   5.196   3.121  0.4398  0.2166 -0.4019
 7626TIP3    H147073   6.071   5.164   3.031 -0.8519 -2.6485  0.4745
 7626TIP3    H247074   5.991   5.251   3.126  0.3013  0.0669 -0.9207
 7627TIP3   OH247075   3.594   5.981   0.637 -0.2785  0.7524 -0.1172
 7627TIP3    H147076   3.646   5.938   0.705  0.5300 -1.2762 -1.9228
 7627TIP3    H247077   3.515   5.928   0.629 -0.0185  0.5083 -1.2525
 7628TIP3   OH247078   4.196   4.680   2.759 -0.1717  0.3428 -0.0775
 7628TIP3    H147079   4.197   4.623   2.836 -1.2977  0.7262  0.2325
 7628TIP3    H247080   4.289   4.688   2.735  0.1575 -0.1886  0.9271
 7629TIP3   OH247081   2.900   4.433   3.090 -0.3077 -0.5220  0.0297
 7629TIP3    H147082   2.948   4.375   3.031 -1.5875 -1.1495 -0.4393
 7629TIP3    H247083   2.863   4.500   3.033 -0.5097 -0.4115  0.2887
 7630TIP3   OH247084   1.073   2.964   0.622 -0.3650 -0.5792 -0.3122
 7630TIP3    H147085   1.116   3.018   0.687 -0.3948  0.2177 -0.9413
 7630TIP3    H247086   0.982   2.993   0.621  0.0474  0.8395 -2.1039
 7631TIP3   OH247087   2.793   1.440   1.267 -0.0353  0.2133 -0.6660
 7631TIP3    H147088   2.790   1.529   1.232  1.2744 -0.4482 -2.6458
 7631TIP3    H247089   2.835   1.388   1.198  0.6202 -1.6567  1.0206
 7632TIP3   OH247090   5.328   0.703   1.228  0.5046  0.0388 -0.0896
 7632TIP3    H147091   5.241   0.735   1.254 -0.3770 -1.5523 -0.9438
 7632TIP3    H247092   5.369   0.677   1.311  0.4419  1.3533  0.3872
 7633TIP3   OH247093   3.246   1.594   2.293 -0.7329  0.3598 -0.4318
 7633TIP3    H147094   3.248   1.628   2.203 -1.3857 -0.2220 -0.6748
 7633TIP3    H247095   3.320   1.533   2.297 -0.6905  0.4012 -0.5631
 7634TIP3   OH247096   3.337   5.460   1.194  0.1206 -0.1314 -0.0679
 7634TIP3    H147097   3.379   5.532   1.242  0.7014 -0.7081  0.2980
 7634TIP3    H247098   3.243   5.472   1.211  0.3741 -1.3403  2.7128
 7635TIP3   OH247099   3.065   2.342   3.311  0.1088 -0.6290 -0.1267
 7635TIP3    H147100   3.024   2.269   3.265 -1.6343 -0.0570  0.4369
 7635TIP3    H247101   3.097   2.304   3.393  0.5525 -1.0490 -0.4902
 7636TIP3   OH247102   1.433   3.748   1.410 -0.1426  0.2624 -0.0498
 7636TIP3    H147103   1.490   3.676   1.436 -0.2555  0.4097  0.6340
 7636TIP3    H247104   1.468   3.777   1.326  1.2146  0.7717  0.6568
 7637TIP3   OH247105   5.997   0.716   1.849 -0.2570 -0.5873  0.5852
 7637TIP3    H147106   5.974   0.648   1.786 -0.2345  1.0712 -1.3035
 7637TIP3    H247107   5.935   0.787   1.832  1.1345  0.7627  0.8909
 7638TIP3   OH247108   3.921   6.419   3.925 -0.0361  0.0331 -0.8981
 7638TIP3    H147109   3.986   6.485   3.951 -0.9539  1.0232 -1.0569
 7638TIP3    H247110   3.966   6.335   3.938  0.9011  0.6503  0.0345
 7639TIP3   OH247111   0.643   5.823   3.161 -0.0759 -0.2274 -0.1375
 7639TIP3    H147112   0.573   5.761   3.140 -0.3108 -0.0307  0.0636
 7639TIP3    H247113   0.602   5.909   3.151  0.0246 -0.1212  0.3879
 7640TIP3   OH247114   6.497   1.282   0.757 -0.0226  0.2868 -0.1111
 7640TIP3    H147115   6.572   1.264   0.815 -2.7953 -2.2061  3.1524
 7640TIP3    H247116   6.484   1.200   0.709 -0.7412  0.6471 -0.5347
 7641TIP3   OH247117   6.466   2.930   3.408  0.6635  0.6438  0.9317
 7641TIP3    H147118   6.438   2.843   3.437 -1.5516  0.0367 -2.4825
 7641TIP3    H247119   6.390   2.986   3.427  1.0729  1.2601  0.7606
 7642TIP3   OH247120   2.199   4.910   0.304 -0.2179 -0.2271  0.0892
 7642TIP3    H147121   2.244   4.920   0.220 -0.0832  1.0315  0.2895
 7642TIP3    H247122   2.269   4.918   0.369 -0.7934  2.9704  0.4553
 7643TIP3   OH247123   3.829   1.084   1.202  0.2126 -0.1465 -0.0597
 7643TIP3    H147124   3.739   1.115   1.214  0.0586 -0.8126  0.5933
 7643TIP3    H247125   3.836   1.008   1.260  1.3868  0.2576  0.3591
 7644TIP3   OH247126   2.131   5.735   2.639 -0.2885 -0.6255 -0.3885
 7644TIP3    H147127   2.102   5.812   2.687  0.8810  0.0866 -0.7831
 7644TIP3    H247128   2.188   5.770   2.570 -0.3391 -1.7799 -1.0413
 7645TIP3   OH247129   1.233   0.829   3.723  0.1258 -0.7181 -0.3119
 7645TIP3    H147130   1.233   0.861   3.814  1.6270  2.4276 -1.2499
 7645TIP3    H247131   1.150   0.861   3.687  0.1545 -0.7346 -0.3916
 7646TIP3   OH247132   6.675   5.787   1.571  0.1900 -0.2816 -0.0490
 7646TIP3    H147133   6.723   5.771   1.652 -1.3530  1.5114  1.2893
 7646TIP3    H247134   6.677   5.882   1.559 -2.3731 -0.1713 -0.2762
 7647TIP3   OH247135   1.654   2.385   3.459  0.0853  0.3582  0.5764
 7647TIP3    H147136   1.692   2.341   3.535  0.5432  2.3174  1.5465
 7647TIP3    H247137   1.559   2.382   3.474  0.0577 -0.9746  0.2112
 7648TIP3   OH247138   6.127   1.778   3.198 -0.1783  0.1297  0.4688
 7648TIP3    H147139   6.172   1.722   3.261  0.6920 -0.2071 -0.4338
 7648TIP3    H247140   6.067   1.830   3.251 -1.1067 -1.7244  1.3182
 7649TIP3   OH247141   4.858   1.497   1.764  0.0503 -0.0432  0.4088
 7649TIP3    H147142   4.868   1.438   1.839 -0.9092  0.6869  1.1410
 7649TIP3    H247143   4.933   1.557   1.770 -0.6414  0.7493  1.4987
 7650TIP3   OH247144   5.779   6.163   2.736 -0.2681  0.2996 -0.3515
 7650TIP3    H147145   5.707   6.100   2.725 -1.1268  1.5360 -2.3071
 7650TIP3    H247146   5.736   6.249   2.734  1.2613  1.0723 -1.7436
 7651TIP3   OH247147   0.983   4.379   1.419  0.2599 -0.5393 -0.6775
 7651TIP3    H147148   1.072   4.410   1.433  0.7852 -1.2241 -2.2546
 7651TIP3    H247149   0.940   4.450   1.371 -0.0094 -0.2594 -0.0246
 7652TIP3   OH247150   1.263   0.595   0.920  0.4346  0.2143 -0.3333
 7652TIP3    H147151   1.318   0.548   0.983 -0.9747  0.0799  0.8627
 7652TIP3    H247152   1.215   0.525   0.875  1.3721  0.3150 -1.5407
 7653TIP3   OH247153   2.761   2.488   3.730 -0.0089  0.3338  0.0889
 7653TIP3    H147154   2.814   2.484   3.810  1.7780  0.0639 -1.0503
 7653TIP3    H247155   2.719   2.402   3.725  0.0633  0.2651  0.6065
 7654TIP3   OH247156   0.132   6.308   2.753 -0.5322  0.0772  0.1945
 7654TIP3    H147157   0.135   6.402   2.770  1.2542 -0.1664  1.6517
 7654TIP3    H247158   0.175   6.297   2.668  0.4467  0.5166  0.6101
 7655TIP3   OH247159   0.436   5.410   3.049  0.1023  0.1644 -0.1899
 7655TIP3    H147160   0.395   5.380   3.130 -1.5626  2.1105 -0.2231
 7655TIP3    H247161   0.392   5.360   2.980  0.6524 -0.6020 -0.0043
 7656TIP3   OH247162   2.636   3.370   1.780  0.3036 -0.0527 -0.4458
 7656TIP3    H147163   2.574   3.411   1.840  0.5691  0.3325 -0.4308
 7656TIP3    H247164   2.674   3.298   1.830 -1.0910 -1.1294 -0.8903
 7657TIP3   OH247165   2.323   0.883   0.831  0.6580 -0.2550 -0.4270
 7657TIP3    H147166   2.356   0.821   0.766  1.2920 -0.1325 -0.2296
 7657TIP3    H247167   2.238   0.847   0.857  0.3535 -0.2552 -1.3812
 7658TIP3   OH247168   3.822   3.193   0.811  0.0367  0.2213 -0.6438
 7658TIP3    H147169   3.728   3.208   0.823  0.1856 -0.4027  1.9055
 7658TIP3    H247170   3.826   3.124   0.744 -1.3746 -0.3307 -0.2065
 7659TIP3   OH247171   0.407   4.387   1.392  0.0607 -0.0449 -0.2371
 7659TIP3    H147172   0.371   4.338   1.465 -1.1535 -0.0047 -0.7882
 7659TIP3    H247173   0.425   4.321   1.325  0.1334  0.0437 -0.3050
 7660TIP3   OH247174   3.231   1.427   0.967  0.4460 -0.7747  0.0925
 7660TIP3    H147175   3.271   1.488   0.905  0.4185  0.0682  0.8805
 7660TIP3    H247176   3.271   1.343   0.946  1.1896 -0.3175 -0.4067
 7661TIP3   OH247177   1.893   0.208   3.775  0.2065  0.1073  0.0574
 7661TIP3    H147178   1.835   0.233   3.847 -3.9232 -0.4650 -2.7449
 7661TIP3    H247179   1.927   0.123   3.801  0.1283  0.6017  1.9741
 7662TIP3   OH247180   6.067   0.523   3.518  0.0346  1.0027  0.9505
 7662TIP3    H147181   5.991   0.573   3.489 -0.9540 -1.0172 -0.1061
 7662TIP3    H247182   6.032   0.458   3.578  0.9602  0.2033  0.6441
 7663TIP3   OH247183   2.570   3.205   0.745  0.5347  0.3985  0.0233
 7663TIP3    H147184   2.573   3.243   0.833 -0.5976 -0.3481  0.4036
 7663TIP3    H247185   2.587   3.279   0.687  1.0648  0.9521  0.8505
 7664TIP3   OH247186   4.617   2.040   1.805  0.8016 -0.1148 -0.3182
 7664TIP3    H147187   4.613   2.134   1.790  0.0154 -0.2463 -0.9790
 7664TIP3    H247188   4.706   2.025   1.839  1.2068  0.7555 -0.9624
 7665TIP3   OH247189   3.229   6.570   1.543  0.4252  0.2254  0.1623
 7665TIP3    H147190   3.255   6.623   1.619  0.9160  0.8810 -0.4407
 7665TIP3    H247191   3.172   6.628   1.493  0.0048 -0.2499  0.0887
 7666TIP3   OH247192   4.670   3.759   2.148  0.0717 -0.0862  0.1080
 7666TIP3    H147193   4.752   3.750   2.099 -0.6150 -0.0513 -1.0853
 7666TIP3    H247194   4.659   3.854   2.159  0.4042 -0.1066  0.6623
 7667TIP3   OH247195   3.002   1.104   3.401  0.0035  0.3960 -0.0330
 7667TIP3    H147196   2.957   1.185   3.375 -1.4703 -0.6999 -1.0737
 7667TIP3    H247197   3.056   1.082   3.326  2.3241  1.6400  1.1683
 7668TIP3   OH247198   3.035   2.108   1.653  0.1394 -0.2866  0.2122
 7668TIP3    H147199   2.992   2.099   1.738  0.3861 -0.1916  0.3478
 7668TIP3    H247200   3.115   2.057   1.661  1.1487  1.2881  0.7115
 7669TIP3   OH247201   2.622   1.607   2.519 -0.5753  0.0869  0.5494
 7669TIP3    H147202   2.543   1.648   2.482 -0.1008  0.3258 -0.2207
 7669TIP3    H247203   2.688   1.615   2.450 -0.0927 -0.8048  0.8942
 7670TIP3   OH247204   1.615   6.037   1.438  0.0954  0.6043  0.1278
 7670TIP3    H147205   1.596   6.130   1.451 -0.0160  0.8406 -1.5056
 7670TIP3    H247206   1.685   6.018   1.501 -0.2107  1.6584  0.8188
 7671TIP3   OH247207   2.704   4.565   3.564  0.3341  0.5815 -0.0682
 7671TIP3    H147208   2.790   4.562   3.522  0.2214 -0.8700 -0.2494
 7671TIP3    H247209   2.721   4.596   3.653  1.5114 -2.2205  0.8194
 7672TIP3   OH247210   2.921   3.124   3.255 -0.3653  0.2069 -0.4402
 7672TIP3    H147211   2.882   3.150   3.339 -2.0183  1.2024 -1.4536
 7672TIP3    H247212   2.940   3.031   3.265  0.7663  0.5923  1.4953
 7673TIP3   OH247213   1.331   4.451   3.502 -0.2585 -0.2842 -0.1516
 7673TIP3    H147214   1.397   4.382   3.493  0.3394  0.3692 -0.8587
 7673TIP3    H247215   1.253   4.415   3.460  0.0460 -0.5361 -0.5072
 7674TIP3   OH247216   6.476   5.391   3.127  0.5655 -0.0070  0.2838
 7674TIP3    H147217   6.525   5.310   3.110 -1.2478 -1.2770  0.7186
 7674TIP3    H247218   6.434   5.412   3.044  0.6857  0.2429  0.2858
 7675TIP3   OH247219   5.626   3.086   3.205  0.2193  0.4895 -0.3035
 7675TIP3    H147220   5.535   3.063   3.223  0.5416  0.4464  1.4809
 7675TIP3    H247221   5.675   3.052   3.280  1.7056  0.5801 -1.1889
 7676TIP3   OH247222   2.554   4.867   3.712  0.4323 -0.6591 -0.0288
 7676TIP3    H147223   2.640   4.884   3.675  0.0639 -2.5602 -1.9408
 7676TIP3    H247224   2.563   4.889   3.805  2.5461  0.5134 -0.4456
 7677TIP3   OH247225   5.187   0.394   3.178 -0.0645 -0.0703  0.2024
 7677TIP3    H147226   5.256   0.406   3.244 -0.2468 -1.6525  0.7109
 7677TIP3    H247227   5.225   0.430   3.097  1.1806 -0.4891  0.5819
 7678TIP3   OH247228   3.600   6.681   2.411  0.0232 -0.2562 -0.9089
 7678TIP3    H147229   3.638   6.647   2.492  0.3014  0.6579 -0.6535
 7678TIP3    H247230   3.524   6.732   2.440 -0.8690 -1.2707 -1.3505
 7679TIP3   OH247231   4.582   5.614   1.762 -0.0057 -0.1433 -0.6823
 7679TIP3    H147232   4.641   5.670   1.813 -0.6627 -0.4987  0.5204
 7679TIP3    H247233   4.545   5.554   1.827 -0.0068 -1.3769 -1.7925
 7680TIP3   OH247234   4.341   2.208   0.665 -0.1052 -0.0915  0.5282
 7680TIP3    H147235   4.310   2.282   0.613 -0.6752 -0.2850  0.5850
 7680TIP3    H247236   4.413   2.243   0.717 -0.8988  0.6386  1.1599
 7681TIP3   OH247237   4.038   0.649   2.137 -0.2118 -0.8029 -0.1537
 7681TIP3    H147238   4.043   0.584   2.067 -0.0467  0.5036 -1.4105
 7681TIP3    H247239   3.956   0.695   2.121  0.1397 -0.0670  0.1012
 7682TIP3   OH247240   4.986   2.344   0.662  0.2368 -0.0786 -0.1066
 7682TIP3    H147241   5.006   2.310   0.575  0.0898 -1.4557  0.3829
 7682TIP3    H247242   4.908   2.399   0.649  0.0344 -0.5189 -0.7876
 7683TIP3   OH247243   2.564   2.128   2.729 -0.4155 -0.7058  0.2218
 7683TIP3    H147244   2.550   2.221   2.709 -2.4151 -1.0516 -0.1361
 7683TIP3    H247245   2.548   2.083   2.646 -1.7597 -1.5554  0.9282
 7684TIP3   OH247246   2.215   5.508   0.527  0.1210 -0.2641  0.0625
 7684TIP3    H147247   2.179   5.420   0.518  0.9203 -0.5124 -0.8852
 7684TIP3    H247248   2.223   5.521   0.622  0.8150 -1.5606  0.2028
 7685TIP3   OH247249   0.230   2.100   0.956  0.6014 -0.3592  0.3622
 7685TIP3    H147250   0.227   2.189   0.992  0.3418 -0.5585  0.8424
 7685TIP3    H247251   0.202   2.044   1.029 -2.0292 -0.6227 -0.7416
 7686TIP3   OH247252   2.692   5.337   2.658 -0.2801 -0.4672 -0.2977
 7686TIP3    H147253   2.669   5.429   2.673  0.6034 -0.4377  1.0490
 7686TIP3    H247254   2.739   5.338   2.575  1.6246  0.6821  0.7210
 7687TIP3   OH247255   2.434   0.616   1.970 -0.3496 -0.6645  0.5109
 7687TIP3    H147256   2.356   0.648   2.014 -0.2539 -0.1723  0.3246
 7687TIP3    H247257   2.503   0.622   2.036 -0.4536 -1.0619  0.6628
 7688TIP3   OH247258   1.576   1.873   3.569  0.3048  0.5398  0.4550
 7688TIP3    H147259   1.584   1.965   3.594 -0.1189  0.6145  0.3302
 7688TIP3    H247260   1.559   1.828   3.652  1.8226  0.3925  0.7003
 7689TIP3   OH247261   4.125   5.024   2.917 -0.2089 -0.2177  0.1482
 7689TIP3    H147262   4.148   5.116   2.926 -0.5109 -0.2602  1.6452
 7689TIP3    H247263   4.208   4.977   2.931 -0.2150 -0.2044  0.2268
 7690TIP3   OH247264   3.519   3.483   1.427 -0.0286  0.0439  0.4757
 7690TIP3    H147265   3.601   3.447   1.391 -0.6337 -0.3138 -0.5859
 7690TIP3    H247266   3.456   3.474   1.356 -0.7283  1.3260  0.9119
 7691TIP3   OH247267   2.300   4.979   3.939 -0.3630 -0.6752  0.2562
 7691TIP3    H147268   2.238   4.929   3.993 -1.6785  0.4584 -0.1274
 7691TIP3    H247269   2.359   5.020   4.003 -1.2398 -0.2017  0.7818
 7692TIP3   OH247270   0.251   3.648   0.614 -0.0310 -0.6806 -0.5786
 7692TIP3    H147271   0.345   3.633   0.623  0.3015  1.2935 -0.2003
 7692TIP3    H247272   0.244   3.737   0.579 -1.7636 -0.7047 -0.4003
 7693TIP3   OH247273   2.878   4.943   9.732  0.0309  0.2346 -0.1463
 7693TIP3    H147274   2.793   4.944   9.689 -0.2470 -2.3761  0.1934
 7693TIP3    H247275   2.863   4.979   9.819 -0.4117  0.9655 -0.5114
 7694TIP3   OH247276   5.194   2.382   1.556 -0.0217  0.2032  0.2276
 7694TIP3    H147277   5.195   2.457   1.615  0.5051 -1.0445  1.9095
 7694TIP3    H247278   5.105   2.346   1.564 -0.1286  0.3638 -0.2040
 7695TIP3   OH247279   3.209   3.417   1.869  0.8525  0.1899 -0.2922
 7695TIP3    H147280   3.298   3.438   1.898  0.7214  0.1994  0.1049
 7695TIP3    H247281   3.221   3.373   1.785  1.3558 -1.6210  0.6807
 7696TIP3   OH247282   2.167   2.244   2.444 -0.0897 -0.1073  0.0001
 7696TIP3    H147283   2.211   2.325   2.417  0.7700 -0.5224  0.0907
 7696TIP3    H247284   2.239   2.184   2.464 -0.6042  0.0881  3.0367
 7697TIP3   OH247285   2.259   6.063   3.979 -0.7068  0.0821 -0.3200
 7697TIP3    H147286   2.323   6.095   4.043  0.2170 -1.4852 -0.4370
 7697TIP3    H247287   2.250   6.135   3.917  0.1366  0.7345  0.2849
 7698TIP3   OH247288   4.000   2.670   3.003 -0.6058  0.4815  0.4329
 7698TIP3    H147289   3.920   2.625   2.976 -0.3481  0.9019 -1.1732
 7698TIP3    H247290   4.059   2.659   2.929  0.9221  0.0047  1.6723
 7699TIP3   OH247291   0.993   0.729   0.669  0.2647 -0.0611  0.1887
 7699TIP3    H147292   0.928   0.748   0.737  1.1528 -0.3257  1.1422
 7699TIP3    H247293   1.010   0.813   0.627 -0.2029  0.1315  0.3826
 7700TIP3   OH247294   2.991   5.188   1.494 -0.7774 -0.0243 -0.1648
 7700TIP3    H147295   3.051   5.143   1.435 -1.7900  1.3287 -2.3572
 7700TIP3    H247296   3.046   5.253   1.539 -0.1006 -0.6958  0.0107
 7701TIP3   OH247297   0.636   6.257  11.812 -0.0999 -0.2094 -0.4850
 7701TIP3    H147298   0.691   6.313  11.757 -0.3449 -2.3271 -3.0821
 7701TIP3    H247299   0.618   6.310  11.889  2.2445  2.0619 -1.3529
 7702TIP3   OH247300   4.748   3.459   2.962  0.0495 -0.0035  0.4395
 7702TIP3    H147301   4.671   3.485   3.012 -0.1779  0.5682 -0.1972
 7702TIP3    H247302   4.713   3.406   2.890 -0.0355  2.2990 -1.2978
 7703TIP3   OH247303   0.087   6.597   0.477  0.4674 -0.1624  0.4761
 7703TIP3    H147304   0.154   6.638   0.531  1.1916 -1.5442  0.6850
 7703TIP3    H247305   0.128   6.517   0.444 -1.1885 -1.2546  0.9075
 7704TIP3   OH247306   2.465   0.545   1.293 -0.2688 -0.0583 -0.0614
 7704TIP3    H147307   2.428   0.593   1.219  1.0656 -0.4117 -0.9953
 7704TIP3    H247308   2.445   0.599   1.369 -3.4357 -0.6391 -0.3377
 7705TIP3   OH247309   0.571   6.549   3.337 -0.1196  0.2352 -0.0595
 7705TIP3    H147310   0.648   6.543   3.393 -0.1486 -1.4254 -0.1674
 7705TIP3    H247311   0.549   6.459   3.316 -0.9545  0.7702 -1.6140
 7706TIP3   OH247312   2.582   2.777   0.678 -0.7548 -0.1826 -0.1682
 7706TIP3    H147313   2.658   2.798   0.732 -0.5615  0.0421 -0.5250
 7706TIP3    H247314   2.555   2.690   0.706  0.7988 -1.0861 -1.3442
 7707TIP3   OH247315   1.575   2.989   3.708  0.0812  0.3059 -0.1251
 7707TIP3    H147316   1.556   3.079   3.685  1.8547  1.4473  2.3938
 7707TIP3    H247317   1.496   2.958   3.754 -0.1129  0.9747 -0.0053
 7708TIP3   OH247318   1.786   5.619   1.879  0.3252 -0.4769  0.3697
 7708TIP3    H147319   1.713   5.570   1.842 -0.3359  1.3457 -0.8618
 7708TIP3    H247320   1.746   5.698   1.916  1.6653  0.7542 -0.6782
 7709TIP3   OH247321   2.329   3.192   0.876 -0.1304  0.3305 -0.5528
 7709TIP3    H147322   2.380   3.184   0.795  2.2987 -0.0974  0.8944
 7709TIP3    H247323   2.310   3.285   0.884  2.1888  0.8296 -0.2137
 7710TIP3   OH247324   2.007   2.247   2.652 -0.1516  0.3302  0.2868
 7710TIP3    H147325   2.064   2.232   2.576  1.6363  0.3155  1.5826
 7710TIP3    H247326   2.044   2.324   2.695 -1.0823  0.2790  1.2228
 7711TIP3   OH247327   1.749   3.719   2.777 -0.1226  0.0014  0.6948
 7711TIP3    H147328   1.807   3.736   2.852 -0.0453  1.1955  0.3969
 7711TIP3    H247329   1.728   3.807   2.744 -1.1263 -0.4691  0.0565
 7712TIP3   OH247330   3.802   3.192   2.498 -0.0029 -0.0864 -0.7164
 7712TIP3    H147331   3.803   3.133   2.423  0.0185 -2.5950  1.1412
 7712TIP3    H247332   3.709   3.201   2.521  0.0362  0.1375 -0.6407
 7713TIP3   OH247333   5.965   1.427   1.598 -0.1583 -0.2391 -0.1107
 7713TIP3    H147334   6.002   1.505   1.639  0.7440 -0.0361 -1.2629
 7713TIP3    H247335   5.884   1.411   1.646 -0.8980  2.0028 -0.4772
 7714TIP3   OH247336   1.584   3.799   2.224 -0.1776 -0.4782 -0.3655
 7714TIP3    H147337   1.627   3.726   2.268 -0.7108  1.0754  3.0455
 7714TIP3    H247338   1.655   3.857   2.198  0.0892 -0.6638 -0.0551
 7715TIP3   OH247339   2.547   2.001   2.496  0.2014  0.1150  0.2753
 7715TIP3    H147340   2.600   2.047   2.431  0.3372  1.2795  1.1773
 7715TIP3    H247341   2.520   1.920   2.453  0.5797  0.7011 -1.0986
 7716TIP3   OH247342   5.576   3.216   1.158  0.0348 -0.2536 -0.1437
 7716TIP3    H147343   5.649   3.196   1.216  0.7304 -0.5076 -1.0923
 7716TIP3    H247344   5.605   3.291   1.107 -0.8799  0.4702  0.3462
 7717TIP3   OH247345   5.624   3.011   1.662  0.1924 -0.1835 -0.6227
 7717TIP3    H147346   5.596   3.101   1.643 -2.5949 -1.0309 -1.0952
 7717TIP3    H247347   5.558   2.979   1.724  1.5761 -1.6918  0.1492
 7718TIP3   OH247348   0.988   1.324   1.645 -0.4869  0.0911  0.5572
 7718TIP3    H147349   1.015   1.413   1.622 -2.2124  0.5809  0.2688
 7718TIP3    H247350   1.068   1.272   1.638  0.2560  1.3417 -0.7423
 7719TIP3   OH247351   5.963   1.396   2.609  0.2331 -0.2898 -0.1404
 7719TIP3    H147352   6.030   1.380   2.543  0.1058  0.5706 -0.4934
 7719TIP3    H247353   6.001   1.365   2.691  1.3926  0.9295 -0.1998
 7720TIP3   OH247354   0.945   0.970   3.897  0.0227 -0.0292 -0.3542
 7720TIP3    H147355   0.977   0.897   3.949  2.4845  0.2634 -1.3291
 7720TIP3    H247356   0.961   1.047   3.952 -2.6800 -0.1407  0.7239
 7721TIP3   OH247357   2.780   4.606   4.046  0.5568  0.0077 -0.2720
 7721TIP3    H147358   2.781   4.511   4.032  0.2457 -0.1689  0.8009
 7721TIP3    H247359   2.778   4.643   3.958 -0.4993 -1.0002 -0.6933
 7722TIP3   OH247360   5.864   1.861   0.743 -0.0393 -0.3668 -0.1300
 7722TIP3    H147361   5.888   1.779   0.787  0.7490 -1.2517 -2.0733
 7722TIP3    H247362   5.780   1.885   0.782  0.6998 -0.9466  1.9657
 7723TIP3   OH247363   1.315   6.618   2.417  0.2054  0.1325  0.0237
 7723TIP3    H147364   1.293   6.707   2.388  0.8795  0.3558  0.2022
 7723TIP3    H247365   1.292   6.563   2.342 -1.3483  0.3037  0.3383
 7724TIP3   OH247366   0.556   1.280   2.175 -0.7104 -0.4192  0.3907
 7724TIP3    H147367   0.587   1.212   2.234 -1.5169 -1.5339 -0.4396
 7724TIP3    H247368   0.479   1.317   2.218 -0.6604 -0.4870  0.5365
 7725TIP3   OH247369   3.594   0.450   0.760  0.0661 -0.3264  0.5273
 7725TIP3    H147370   3.627   0.380   0.704  0.3587  0.3183 -0.1344
 7725TIP3    H247371   3.672   0.485   0.803 -0.0717 -0.3765  0.8193
 7726TIP3   OH247372   2.094   3.566   0.833  1.0438  0.2603 -0.5646
 7726TIP3    H147373   2.172   3.511   0.839  0.9615  0.1877 -0.1339
 7726TIP3    H247374   2.086   3.606   0.919 -0.3737 -1.0776 -0.0353
 7727TIP3   OH247375   3.045   1.947   2.098  0.4245  0.3055  0.2399
 7727TIP3    H147376   3.105   2.007   2.143  1.1110  0.1296 -0.4249
 7727TIP3    H247377   3.073   1.860   2.125 -1.2177  0.2845  2.0093
 7728TIP3   OH247378   0.904   4.211   0.825  0.1121 -0.2378 -0.1181
 7728TIP3    H147379   0.900   4.159   0.905 -1.2026 -0.4251 -0.2826
 7728TIP3    H247380   0.911   4.146   0.754 -1.2894 -0.2154 -0.3066
 7729TIP3   OH247381   4.252   1.612   3.556 -0.1315  0.1652  0.2317
 7729TIP3    H147382   4.235   1.675   3.485  2.5164  0.7060 -0.0144
 7729TIP3    H247383   4.256   1.527   3.512  2.7922  0.6358 -0.6007
 7730TIP3   OH247384   1.988   4.881   0.489 -0.7423  0.1167 -0.2744
 7730TIP3    H147385   2.024   4.890   0.577 -1.5594 -0.3786  0.1147
 7730TIP3    H247386   2.064   4.891   0.432  0.1803 -1.7479  0.5555
 7731TIP3   OH247387   5.795   2.896   1.349 -0.1760 -1.0248  0.1281
 7731TIP3    H147388   5.815   2.840   1.274  2.4781  0.7139 -0.6112
 7731TIP3    H247389   5.802   2.985   1.314 -2.1769 -0.1570  1.7369
 7732TIP3   OH247390   4.806   3.580   2.636 -0.0808 -0.8376  0.0382
 7732TIP3    H147391   4.847   3.666   2.640  2.3220 -1.8991 -0.1397
 7732TIP3    H247392   4.723   3.595   2.591  1.3824  1.0328 -2.2919
 7733TIP3   OH247393   0.875   3.031   1.989  0.2903  0.0042  0.1778
 7733TIP3    H147394   0.874   3.125   1.970 -1.8004  0.3402  1.6145
 7733TIP3    H247395   0.944   3.021   2.055  1.9597  0.1187 -1.4498
 7734TIP3   OH247396   5.643   0.772   1.862 -0.2613  0.8534 -0.2403
 7734TIP3    H147397   5.557   0.798   1.829  0.3048  2.4121 -0.5812
 7734TIP3    H247398   5.701   0.843   1.836  0.8112  0.6642  1.4582
 7735TIP3   OH247399   4.942   4.578   2.552  0.0685  0.1361 -0.1217
 7735TIP3    H147400   5.038   4.583   2.555 -0.0109  2.1328  2.8398
 7735TIP3    H247401   4.914   4.667   2.535 -1.3237 -0.5117 -1.4063
 7736TIP3   OH247402   0.168   5.951   2.582 -0.2766 -0.2252  0.6034
 7736TIP3    H147403   0.241   5.914   2.632 -1.5712 -1.2222  1.8098
 7736TIP3    H247404   0.114   5.995   2.648 -1.2848 -0.3491 -0.1264
 7737TIP3   OH247405   0.665   6.275   0.959 -0.3000  0.4244 -0.1314
 7737TIP3    H147406   0.639   6.291   1.050 -1.5549 -0.4530 -0.3012
 7737TIP3    H247407   0.583   6.252   0.915  0.7069 -2.3493 -0.7658
 7738TIP3   OH247408   4.948   6.322   0.626  0.0367 -0.1624 -0.0506
 7738TIP3    H147409   4.978   6.244   0.673  0.0945  0.3243  0.7448
 7738TIP3    H247410   4.858   6.335   0.656 -0.2497 -0.3875 -0.7987
 7739TIP3   OH247411   2.043   3.867   4.509  0.6678 -0.2513  0.9328
 7739TIP3    H147412   1.999   3.912   4.436  0.9759 -0.8373  0.3757
 7739TIP3    H247413   2.124   3.833   4.471  0.4062 -1.3429  1.3201
 7740TIP3   OH247414   4.291   2.413   0.482  0.3524 -0.1182  0.0313
 7740TIP3    H147415   4.219   2.377   0.430  0.5664  1.3643 -1.3913
 7740TIP3    H247416   4.269   2.505   0.493  0.5031 -0.2981  2.3398
 7741TIP3   OH247417   0.626   3.970   1.403  0.0216  0.0755 -0.2409
 7741TIP3    H147418   0.602   4.007   1.488  0.5126  1.7267 -0.7900
 7741TIP3    H247419   0.613   4.041   1.340  0.3577 -0.8909 -1.4554
 7742TIP3   OH247420   3.113   0.808   1.002  0.2234 -0.2469  0.1723
 7742TIP3    H147421   3.027   0.838   1.033 -0.7999 -0.0468 -2.5649
 7742TIP3    H247422   3.148   0.756   1.075 -2.3976 -0.6732  1.2547
 7743TIP3   OH247423   2.527   1.972   1.330  0.3321  0.2238 -0.3125
 7743TIP3    H147424   2.546   2.025   1.253  2.0622  1.7696  1.0964
 7743TIP3    H247425   2.479   2.030   1.389  0.8497 -0.2702  0.6184
 7744TIP3   OH247426   1.300   3.465   3.256  0.1190  0.1916 -0.2152
 7744TIP3    H147427   1.279   3.372   3.258 -1.1928  0.4583 -0.4765
 7744TIP3    H247428   1.217   3.508   3.232  0.9717  1.3374 -1.2644
 7745TIP3   OH247429   6.085   3.879   2.528 -0.1674  0.1059  0.1062
 7745TIP3    H147430   6.147   3.812   2.556 -0.3163 -1.3007 -2.5824
 7745TIP3    H247431   6.139   3.956   2.511  0.5625 -0.4864 -0.3139
 7746TIP3   OH247432   0.700   5.342   1.781 -0.6923  0.0847 -0.7061
 7746TIP3    H147433   0.714   5.286   1.705 -1.5950  1.1901 -1.7088
 7746TIP3    H247434   0.667   5.282   1.848  0.2657 -0.9308 -1.1017
 7747TIP3   OH247435   2.607   0.116   3.034  0.0898 -0.4570 -0.6107
 7747TIP3    H147436   2.522   0.077   3.055 -1.1106  1.9429 -0.7463
 7747TIP3    H247437   2.601   0.139   2.942  0.1179  1.4915 -0.1604
 7748TIP3   OH247438   5.269   5.147   2.340  0.7481 -0.2717  0.3513
 7748TIP3    H147439   5.337   5.201   2.300  0.8824 -1.6218 -1.3328
 7748TIP3    H247440   5.217   5.116   2.266 -0.8090 -0.4793  1.4923
 7749TIP3   OH247441   2.831   0.290   4.018 -0.0958 -0.5825 -0.0204
 7749TIP3    H147442   2.855   0.302   4.110  2.1706 -0.1345 -0.5975
 7749TIP3    H247443   2.751   0.341   4.006  0.1521  0.1875  1.4673
 7750TIP3   OH247444   1.113   3.541   2.820  0.4780  0.0190 -0.7488
 7750TIP3    H147445   1.192   3.522   2.871  0.4327  0.0352 -0.6724
 7750TIP3    H247446   1.050   3.571   2.885  0.4214  0.0436 -0.8157
 7751TIP3   OH247447   4.304   0.319   2.414  0.0966 -0.1049 -0.0701
 7751TIP3    H147448   4.343   0.256   2.353  1.7899  0.7831  0.0224
 7751TIP3    H247449   4.211   0.316   2.395  0.4495 -0.6574 -1.9474
 7752TIP3   OH247450   5.913   1.588   0.746  0.3363  0.0675 -0.0444
 7752TIP3    H147451   5.889   1.546   0.663 -0.5546  1.2739 -0.4306
 7752TIP3    H247452   5.995   1.546   0.772  1.2726  0.4912 -2.1441
 7753TIP3   OH247453   4.084   0.591   0.665  0.4114  0.1217 -0.6971
 7753TIP3    H147454   4.023   0.664   0.669  0.5857  0.2564  2.4598
 7753TIP3    H247455   4.130   0.601   0.582 -1.7945  1.6799 -1.8229
 7754TIP3   OH247456   2.658   0.402   4.427  0.3764  0.1831  0.3371
 7754TIP3    H147457   2.592   0.346   4.385  0.6685 -0.5150  0.7878
 7754TIP3    H247458   2.740   0.379   4.384  0.7184 -0.7080  1.4112
 7755TIP3   OH247459   5.776   3.819   2.056  1.0669 -0.4451  0.1191
 7755TIP3    H147460   5.863   3.835   2.019  0.9395  1.6763  0.6167
 7755TIP3    H247461   5.715   3.849   1.988  0.8093  1.3622  1.0957
 7756TIP3   OH247462   5.058   1.753   0.847  0.4293  0.2017 -0.1336
 7756TIP3    H147463   5.113   1.776   0.772 -2.1790  0.5172 -2.1072
 7756TIP3    H247464   5.032   1.662   0.831  0.6599 -0.0634  0.9450
 7757TIP3   OH247465   1.293   6.601   0.755 -0.0126  0.1448 -0.5045
 7757TIP3    H147466   1.200   6.589   0.771 -0.0563  1.4825  0.4118
 7757TIP3    H247467   1.332   6.515   0.772 -0.9752 -0.2159 -0.0772
 7758TIP3   OH247468   6.274   3.112   1.488  0.2692  0.3365  0.2586
 7758TIP3    H147469   6.268   3.208   1.487 -1.4517  0.2518  0.4074
 7758TIP3    H247470   6.297   3.088   1.398  1.8434  0.9206  0.4702
 7759TIP3   OH247471   6.061   1.587   1.348 -0.2253  0.0080 -0.0544
 7759TIP3    H147472   5.999   1.660   1.342  0.1274  0.3724  0.6212
 7759TIP3    H247473   6.042   1.546   1.432  0.9346  0.5931  0.5250
 7760TIP3   OH247474   4.333   0.964   3.335  0.0261  0.5476 -0.4353
 7760TIP3    H147475   4.379   0.979   3.417 -0.6798 -1.1498  0.3405
 7760TIP3    H247476   4.401   0.937   3.273  0.2777 -0.7732  0.3649
 7761TIP3   OH247477   6.069   6.376   2.888 -0.3889 -0.3478 -0.0349
 7761TIP3    H147478   6.073   6.289   2.848 -0.9180 -0.7205  0.6939
 7761TIP3    H247479   6.109   6.434   2.823 -0.5685 -1.0415 -0.7925
 7762TIP3   OH247480   0.252   6.374   0.411  0.1803 -0.3215 -0.2637
 7762TIP3    H147481   0.342   6.359   0.441 -0.1194 -0.1396  0.7767
 7762TIP3    H247482   0.209   6.289   0.421  0.3823 -0.5569 -1.3239
 7763TIP3   OH247483   1.514   0.712   1.091  0.6492 -0.5347 -0.4054
 7763TIP3    H147484   1.443   0.776   1.093  2.2429  1.3207 -0.6971
 7763TIP3    H247485   1.483   0.641   1.148 -1.5014  0.0932 -0.6910
 7764TIP3   OH247486   3.763   1.220   2.449 -0.3767 -0.0208 -0.3758
 7764TIP3    H147487   3.735   1.237   2.539 -1.0327 -0.3071 -0.5240
 7764TIP3    H247488   3.858   1.233   2.451 -0.4810  0.7561  0.1810
 7765TIP3   OH247489   3.729   3.254   3.413 -0.0460  0.3233  0.2024
 7765TIP3    H147490   3.714   3.214   3.499 -1.9679 -0.4447 -0.4341
 7765TIP3    H247491   3.703   3.346   3.426 -1.9785 -0.1564  0.0849
 7766TIP3   OH247492   3.461   0.434   2.976  0.2884 -0.2737 -0.4138
 7766TIP3    H147493   3.405   0.468   3.046  0.5409 -0.3713 -0.1605
 7766TIP3    H247494   3.435   0.342   2.968 -2.0898  0.4682 -2.7367
 7767TIP3   OH247495   5.246   1.874   2.965 -0.1474  0.5411 -0.5525
 7767TIP3    H147496   5.209   1.916   2.888 -2.6069  0.9460  0.7704
 7767TIP3    H247497   5.339   1.898   2.963  0.1624 -0.3795 -3.9103
 7768TIP3   OH247498   3.395   1.401   1.455  0.6553  0.0227  0.6426
 7768TIP3    H147499   3.452   1.391   1.379 -2.5712 -2.8114 -1.7250
 7768TIP3    H247500   3.413   1.324   1.510 -1.4063 -1.5254 -0.6897
 7769TIP3   OH247501   4.995   3.412   2.729  0.8969  0.1861  0.2581
 7769TIP3    H147502   4.915   3.457   2.699  1.2876  0.7114 -0.0100
 7769TIP3    H247503   4.995   3.424   2.824  0.7084  0.2688  0.2488
 7770TIP3   OH247504   6.023   5.630   2.711 -0.0182  0.0552  0.3237
 7770TIP3    H147505   6.105   5.597   2.674 -0.8581 -0.0827 -1.5154
 7770TIP3    H247506   6.042   5.644   2.804  2.0419 -0.0786 -0.0447
 7771TIP3   OH247507   2.820   4.701   0.707  0.1028  0.3582 -0.2680
 7771TIP3    H147508   2.767   4.727   0.782  0.9695  0.4371  0.3299
 7771TIP3    H247509   2.756   4.672   0.641 -0.6205 -0.7131  0.8688
 7772TIP3   OH247510   1.659   4.425   1.780 -0.6437 -0.0209  0.2329
 7772TIP3    H147511   1.571   4.453   1.807 -0.3745  0.2404  0.8358
 7772TIP3    H247512   1.707   4.506   1.766 -1.1020 -0.0936 -2.1772
 7773TIP3   OH247513   4.911   1.115   2.818 -0.1940  0.0719 -0.0823
 7773TIP3    H147514   4.920   1.158   2.903 -0.0120  0.0356 -0.0828
 7773TIP3    H247515   4.934   1.024   2.836 -0.5017 -0.0096 -0.0971
 7774TIP3   OH247516   1.925   5.134   1.336 -0.1343  0.1647  0.3281
 7774TIP3    H147517   1.866   5.206   1.315  0.0039 -0.2001 -1.4158
 7774TIP3    H247518   1.997   5.175   1.384 -0.5474  1.0150  0.2339
 7775TIP3   OH247519   1.557   2.740   1.181 -0.4222 -0.4412 -0.1623
 7775TIP3    H147520   1.588   2.704   1.097  1.2443 -0.5603  0.4656
 7775TIP3    H247521   1.534   2.831   1.161  1.0276 -0.1323 -0.5476
 7776TIP3   OH247522   1.430   1.008   0.902  0.0109  0.4990 -0.6240
 7776TIP3    H147523   1.477   0.971   0.828 -0.1512 -1.9606  0.3833
 7776TIP3    H247524   1.346   0.963   0.902 -0.3235  1.0705  0.5484
 7777TIP3   OH247525   4.253   4.069   2.675  0.0685  0.1603 -0.3374
 7777TIP3    H147526   4.265   4.074   2.770 -3.5999 -0.6070  0.3236
 7777TIP3    H247527   4.194   4.141   2.655 -0.9158 -0.9648 -1.6546
 7778TIP3   OH247528   0.078   3.048   2.406  0.1896 -0.2231  0.1292
 7778TIP3    H147529   0.165   3.075   2.375 -0.1450  0.8555  0.0914
 7778TIP3    H247530   0.026   3.128   2.403 -0.5470 -0.6501  1.0688
 7779TIP3   OH247531   4.389   4.414   3.150  0.5808 -0.0116 -0.2200
 7779TIP3    H147532   4.316   4.361   3.181 -0.6627  0.6902 -1.7831
 7779TIP3    H247533   4.461   4.352   3.136 -0.5650 -1.1761 -1.1907
 7780TIP3   OH247534   4.326   3.023   0.840  0.1629  0.0110 -0.0358
 7780TIP3    H147535   4.375   2.942   0.851 -0.2440 -0.3353 -0.7242
 7780TIP3    H247536   4.394   3.091   0.835  0.6123 -0.5016 -1.3718
 7781TIP3   OH247537   5.241   0.097   3.402  0.1675 -0.8058 -0.2855
 7781TIP3    H147538   5.261   0.184   3.438  1.2446 -1.3406  0.4677
 7781TIP3    H247539   5.278   0.099   3.314 -1.6868  0.2008 -1.1070
 7782TIP3   OH247540   0.800   4.493   1.994 -0.2682 -0.2138 -0.1871
 7782TIP3    H147541   0.812   4.452   2.079 -0.0142  0.8334  0.2977
 7782TIP3    H247542   0.889   4.503   1.960 -0.3836 -0.8673 -0.7026
 7783TIP3   OH247543   5.067   0.921   1.090 -0.1021  0.0136 -0.1226
 7783TIP3    H147544   5.001   0.860   1.124 -2.5363  3.0299  1.1086
 7783TIP3    H247545   5.052   0.922   0.996  1.1729 -2.4592 -0.4145
 7784TIP3   OH247546   6.281   0.583   1.456  0.1662  0.4989  0.1699
 7784TIP3    H147547   6.303   0.585   1.549  0.4800  0.5034  0.0963
 7784TIP3    H247548   6.185   0.577   1.454  0.1977 -0.3179  0.5039
 7785TIP3   OH247549   1.569   2.554   1.408  0.1759  0.5373 -0.0244
 7785TIP3    H147550   1.554   2.620   1.340 -1.4814  0.5718  0.3312
 7785TIP3    H247551   1.603   2.604   1.482 -1.2586  1.0893  0.3122
 7786TIP3   OH247552   1.576   0.791   2.204  0.3614 -0.5312 -0.1609
 7786TIP3    H147553   1.633   0.741   2.263  2.5694  0.6410 -1.1686
 7786TIP3    H247554   1.590   0.752   2.118  1.1666  0.9742 -0.7477
 7787TIP3   OH247555   1.811   4.735   1.036  0.3713  0.2469  0.6988
 7787TIP3    H147556   1.821   4.827   1.061  1.7759 -0.0970  1.4705
 7787TIP3    H247557   1.734   4.735   0.978 -0.0301  1.8010  1.1708
 7788TIP3   OH247558   0.112   3.708   3.078  0.1749 -0.4745  0.3027
 7788TIP3    H147559   0.177   3.675   3.140 -0.1368 -0.6420  0.5443
 7788TIP3    H247560   0.150   3.691   2.992  0.1330 -1.2180  0.4299
 7789TIP3   OH247561   2.229   2.593   0.661  0.4355 -0.3041 -0.0999
 7789TIP3    H147562   2.233   2.573   0.755 -0.6306 -2.0969 -0.3963
 7789TIP3    H247563   2.313   2.634   0.642  0.3431  0.9207  1.7959
 7790TIP3   OH247564   5.945   6.588   2.409  0.3100 -1.0000  0.2603
 7790TIP3    H147565   5.914   6.541   2.486 -1.2076 -1.7758 -0.7738
 7790TIP3    H247566   6.011   6.649   2.443 -0.2967 -1.3312  2.1486
 7791TIP3   OH247567   4.888   0.646   3.055  0.0872  0.2293  0.4985
 7791TIP3    H147568   4.948   0.579   3.087 -1.2919 -0.7187  1.2330
 7791TIP3    H247569   4.807   0.631   3.104 -0.0621  2.9190  1.2391
 7792TIP3   OH247570   2.496   4.679   1.385 -0.1390 -0.9252  0.3193
 7792TIP3    H147571   2.410   4.712   1.409 -1.3554 -3.8185  0.2721
 7792TIP3    H247572   2.557   4.729   1.439 -1.9947 -0.1798  1.8000
 7793TIP3   OH247573   4.358   1.311   2.175 -0.5318 -0.7091  0.3731
 7793TIP3    H147574   4.287   1.373   2.191  0.0204 -0.4134  1.8732
 7793TIP3    H247575   4.434   1.366   2.154 -0.1872 -0.8824  1.1170
 7794TIP3   OH247576   3.057   6.092   3.587 -0.2925  0.0155 -0.2405
 7794TIP3    H147577   2.969   6.084   3.550 -0.0137 -1.5431 -0.6398
 7794TIP3    H247578   3.114   6.057   3.519  0.3333 -2.0707  1.2723
 7795TIP3   OH247579   5.621   4.444   1.009 -0.7493 -0.0176  0.6242
 7795TIP3    H147580   5.560   4.482   0.946 -1.1452 -0.4003  0.7731
 7795TIP3    H247581   5.689   4.510   1.019 -2.2187  1.3755  2.0500
 7796TIP3   OH247582   1.235   5.486   3.517 -0.1911 -0.1470  0.1721
 7796TIP3    H147583   1.221   5.579   3.501  0.7805 -0.0465 -0.1480
 7796TIP3    H247584   1.147   5.448   3.518 -0.5052  0.4447 -1.7308
 7797TIP3   OH247585   4.051   6.351   1.319 -0.1444 -0.0334  0.1031
 7797TIP3    H147586   4.014   6.285   1.377 -0.8105  0.4147  0.2029
 7797TIP3    H247587   3.995   6.428   1.330  0.6884  0.6001  0.0884
 7798TIP3   OH247588   1.402   1.860   2.715 -0.4216  0.2214  0.2083
 7798TIP3    H147589   1.419   1.950   2.685 -1.6870  0.7113  0.8697
 7798TIP3    H247590   1.457   1.850   2.792  1.3656 -0.3618 -1.0864
 7799TIP3   OH247591   2.234   2.867   3.834 -0.3069  0.0162  0.5153
 7799TIP3    H147592   2.284   2.918   3.898  2.0547 -0.3077 -0.9766
 7799TIP3    H247593   2.277   2.884   3.750 -3.0646  0.1150 -1.0038
 7800TIP3   OH247594   6.423   3.414   1.995 -0.1875 -1.0169 -0.7873
 7800TIP3    H147595   6.344   3.371   2.028 -0.4066 -0.0375  0.0190
 7800TIP3    H247596   6.432   3.383   1.905 -2.2501 -0.1392 -1.3426
 7801TIP3   OH247597   0.265   3.750   2.358  0.2765  0.2681 -0.1606
 7801TIP3    H147598   0.280   3.689   2.286 -2.1790  0.3163 -0.7851
 7801TIP3    H247599   0.209   3.818   2.322  0.0564  1.0080  1.4603
 7802TIP3   OH247600   1.327   2.920   3.774 -0.5727 -0.2417 -0.0924
 7802TIP3    H147601   1.258   2.976   3.739 -1.1934  0.3802  2.0329
 7802TIP3    H247602   1.319   2.839   3.724 -2.9645 -0.2541  0.2080
 7803TIP3   OH247603   3.946   1.972   2.101  0.1376  0.5922 -0.2172
 7803TIP3    H147604   3.882   1.923   2.151  0.9911  0.3423  0.6712
 7803TIP3    H247605   3.927   1.951   2.009 -0.9426  0.4271  0.0351
 7804TIP3   OH247606   1.113   4.952   1.549 -0.0196 -0.1249  0.2407
 7804TIP3    H147607   1.065   4.884   1.596 -0.0942 -1.0707 -1.1499
 7804TIP3    H247608   1.205   4.932   1.565 -0.0534 -0.0540  0.5222
 7805TIP3   OH247609   5.589   0.196   0.921 -0.0458  0.0371  0.0615
 7805TIP3    H147610   5.575   0.283   0.884  0.5033 -0.2069 -0.7436
 7805TIP3    H247611   5.503   0.169   0.954 -0.5425  0.2877 -0.9938
 7806TIP3   OH247612   0.594   6.378   2.065  0.1756  0.4059 -0.2778
 7806TIP3    H147613   0.576   6.471   2.056 -0.8345  0.1329 -1.2482
 7806TIP3    H247614   0.568   6.357   2.155 -1.8427  0.6034 -0.7649
 7807TIP3   OH247615   2.797   0.725   3.204  0.3268  0.6095  0.5558
 7807TIP3    H147616   2.809   0.657   3.271 -1.6284 -1.6380 -1.2101
 7807TIP3    H247617   2.885   0.742   3.171  0.9642 -0.4590  1.6438
 7808TIP3   OH247618   6.698   2.610   2.474  0.1458  0.7147 -0.0401
 7808TIP3    H147619   6.768   2.545   2.480  1.2181  1.5455 -2.4072
 7808TIP3    H247620   6.729   2.684   2.526  0.5546  0.6802 -0.2356
 7809TIP3   OH247621   4.014   3.163   3.296 -0.0342  0.0572 -1.0429
 7809TIP3    H147622   4.065   3.238   3.268  0.5541 -0.6209 -1.8362
 7809TIP3    H247623   4.053   3.138   3.380 -1.4114  1.7176  0.1607
 7810TIP3   OH247624   5.275   3.387   3.012  0.4591  0.6947  0.1341
 7810TIP3    H147625   5.277   3.374   3.107 -2.0425 -2.5991 -0.1005
 7810TIP3    H247626   5.185   3.367   2.987  1.0482  1.4313 -2.9766
 7811TIP3   OH247627   4.592   5.981   4.304 -0.0843 -0.3455 -0.0154
 7811TIP3    H147628   4.518   6.040   4.318  0.6373  0.4652  0.4908
 7811TIP3    H247629   4.572   5.904   4.359 -1.2944 -0.8425 -1.1063
 7812TIP3   OH247630   5.705   5.307   3.860 -0.2969 -0.9240 -0.5212
 7812TIP3    H147631   5.718   5.220   3.822  0.0173 -1.4063  0.6518
 7812TIP3    H247632   5.785   5.355   3.839  0.0692 -1.3350 -0.0715
 7813TIP3   OH247633   1.622   2.635   0.965 -0.3678 -0.1139  0.7461
 7813TIP3    H147634   1.560   2.617   0.895 -1.4901 -1.2940  1.9876
 7813TIP3    H247635   1.700   2.585   0.942 -0.3452  0.3126 -0.1444
 7814TIP3   OH247636   4.175   2.709   1.709 -0.4292  0.3594  0.3447
 7814TIP3    H147637   4.233   2.649   1.662 -1.2500 -0.2513  0.1122
 7814TIP3    H247638   4.111   2.737   1.644 -0.0548  1.5141  0.4427
 7815TIP3   OH247639   3.860   4.812   1.533 -0.5232  0.1423 -0.6498
 7815TIP3    H147640   3.794   4.743   1.537 -0.6016 -0.0033 -3.1002
 7815TIP3    H247641   3.933   4.774   1.484  0.1246  1.2747 -0.6103
 7816TIP3   OH247642   5.892   1.887   0.332 -0.0306 -0.2012  0.5175
 7816TIP3    H147643   5.874   1.815   0.392 -0.2026 -2.6748 -2.2670
 7816TIP3    H247644   5.987   1.896   0.332  0.0615 -1.1056  0.1813
 7817TIP3   OH247645   0.303   5.998   0.939  0.8542 -0.2425  0.5631
 7817TIP3    H147646   0.308   6.079   0.989  1.6050  0.3620 -0.4632
 7817TIP3    H247647   0.254   6.020   0.860 -1.2682 -1.4490  1.4492
 7818TIP3   OH247648   3.818   0.284   0.881 -0.1543  0.1195  0.1711
 7818TIP3    H147649   3.906   0.247   0.874  0.5165  1.6012  0.3728
 7818TIP3    H247650   3.832   0.378   0.882 -1.8223  0.4154 -0.7473
 7819TIP3   OH247651   2.948   3.080   0.380 -0.4391  0.0018 -0.1219
 7819TIP3    H147652   2.911   3.122   0.458 -0.5346  1.0768 -0.7288
 7819TIP3    H247653   2.917   3.134   0.307 -0.2475 -0.9140 -0.8998
 7820TIP3   OH247654   5.087   0.369   1.657 -0.2577 -0.2143 -0.3558
 7820TIP3    H147655   5.077   0.342   1.748  0.3690  0.6015 -0.0248
 7820TIP3    H247656   5.024   0.316   1.609 -0.7595 -0.4974  0.5847
 7821TIP3   OH247657   0.342   4.316   3.506  0.5630 -0.2941 -0.4125
 7821TIP3    H147658   0.336   4.250   3.437 -0.9544 -0.8983  0.2354
 7821TIP3    H247659   0.408   4.283   3.566 -0.0520 -1.1574 -0.1915
 7822TIP3   OH247660   1.132   5.386   0.741 -0.2845 -0.7774  0.1178
 7822TIP3    H147661   1.042   5.415   0.726 -1.1222 -2.1895  1.9803
 7822TIP3    H247662   1.170   5.454   0.797  1.0903  1.6749 -3.4368
 7823TIP3   OH247663   4.319   5.787   1.386 -0.0370  0.3723  0.2283
 7823TIP3    H147664   4.261   5.712   1.393 -0.2562  0.6534  2.2437
 7823TIP3    H247665   4.403   5.755   1.419  0.1639  0.7120  0.0496
 7824TIP3   OH247666   5.319   2.827   1.441 -0.3926 -0.1118 -0.2476
 7824TIP3    H147667   5.349   2.914   1.412 -1.6619  0.8215  1.0786
 7824TIP3    H247668   5.261   2.797   1.372  0.0694  0.0830 -0.7251
 7825TIP3   OH247669   3.855   1.462   3.615 -0.2731 -0.2339 -0.2122
 7825TIP3    H147670   3.860   1.534   3.678 -2.2632  0.0868 -0.3693
 7825TIP3    H247671   3.938   1.415   3.626  0.4032  1.1645  0.9869
 7826TIP3   OH247672   4.036   2.416   1.587  0.1260 -0.0836 -0.2135
 7826TIP3    H147673   4.117   2.366   1.597  0.0551 -1.0170 -3.2471
 7826TIP3    H247674   4.057   2.483   1.523 -1.1178  0.6427  0.0998
 7827TIP3   OH247675   6.138   4.140   1.574 -0.2633 -0.1367  0.0845
 7827TIP3    H147676   6.080   4.161   1.647 -0.2965 -0.4304  0.1438
 7827TIP3    H247677   6.187   4.064   1.604 -0.1526 -0.1506 -0.1322
 7828TIP3   OH247678   3.688   0.408   1.963 -0.5406  0.0186 -0.5047
 7828TIP3    H147679   3.762   0.358   1.997 -0.3104 -0.6969 -1.9773
 7828TIP3    H247680   3.725   0.461   1.893 -1.3069  0.1379 -0.8319
 7829TIP3   OH247681   3.013   2.106   3.163 -0.3441 -0.1466  0.4833
 7829TIP3    H147682   2.975   2.021   3.183 -0.4817  0.1871  1.7546
 7829TIP3    H247683   3.048   2.097   3.074 -1.9057 -0.9633 -0.0861
 7830TIP3   OH247684   2.685   0.114   2.060 -0.4164  0.1216  0.5201
 7830TIP3    H147685   2.754   0.142   2.120  0.6906  0.3092 -0.7997
 7830TIP3    H247686   2.647   0.196   2.028 -1.3901  0.0180  1.3662
 7831TIP3   OH247687   5.736   5.732   2.164  0.4196 -0.1441  0.1789
 7831TIP3    H147688   5.670   5.720   2.096 -0.9205  0.9564  1.2098
 7831TIP3    H247689   5.748   5.827   2.169  1.3422 -0.2802  0.6982
 7832TIP3   OH247690   1.173   2.832   1.360 -0.4954  0.1494 -0.4823
 7832TIP3    H147691   1.079   2.836   1.374 -0.6540  1.3983 -1.7276
 7832TIP3    H247692   1.210   2.881   1.434 -0.7220 -1.1307  0.5299
 7833TIP3   OH247693   4.036   2.717   1.941 -0.1008  0.0674 -0.2600
 7833TIP3    H147694   4.096   2.718   1.866 -1.2000 -1.5416 -1.2347
 7833TIP3    H247695   4.058   2.636   1.988  0.5172  1.0172  1.1519
 7834TIP3   OH247696   2.402   5.913   3.798  0.9534  0.5056  0.3974
 7834TIP3    H147697   2.417   5.961   3.717  0.1264 -2.4204 -1.6357
 7834TIP3    H247698   2.332   5.962   3.842 -0.5066  0.7093 -1.9998
 7835TIP3   OH247699   6.694   1.113   1.479  0.7562  0.1427  0.0248
 7835TIP3    H147700   6.667   1.023   1.466  1.1796 -0.0661  0.5460
 7835TIP3    H247701   6.649   1.162   1.410 -1.1417 -0.1400  0.9968
 7836TIP3   OH247702   1.335   5.857   3.540 -0.4487  0.2710  0.4293
 7836TIP3    H147703   1.367   5.900   3.461  0.8503  1.7994  1.6892
 7836TIP3    H247704   1.299   5.929   3.593 -3.5973 -1.0281  0.2531
 7837TIP3   OH247705   3.338   0.428   2.076 -0.1681 -0.6434 -0.1294
 7837TIP3    H147706   3.423   0.408   2.036 -0.1837 -0.9935  0.0139
 7837TIP3    H247707   3.332   0.369   2.150 -0.2666 -0.1881  0.2309
 7838TIP3   OH247708   2.564   3.737   1.932 -0.1238 -0.1034 -0.5904
 7838TIP3    H147709   2.559   3.788   2.013  3.7639 -1.2351  0.5740
 7838TIP3    H247710   2.495   3.672   1.941 -0.5767  0.5595  1.2249
 7839TIP3   OH247711   0.178   2.109   2.937  0.0151 -0.4851  0.2151
 7839TIP3    H147712   0.237   2.176   2.902 -0.2401 -1.1307 -1.5081
 7839TIP3    H247713   0.208   2.027   2.899 -0.6179 -1.1579  1.1060
 7840TIP3   OH247714   3.554   5.200   1.432  0.2369 -0.2122  0.0273
 7840TIP3    H147715   3.568   5.239   1.346  0.2780  0.4708  0.3350
 7840TIP3    H247716   3.638   5.161   1.455  0.1784 -0.5398 -0.3113
 7841TIP3   OH247717   5.263   3.662   3.629 -0.2092 -0.0248  0.0111
 7841TIP3    H147718   5.287   3.747   3.593 -1.6384  0.6462  0.5651
 7841TIP3    H247719   5.316   3.653   3.708 -1.4017  1.2454  1.0006
 7842TIP3   OH247720   2.162   1.641   2.840  0.6634 -0.0814 -0.1748
 7842TIP3    H147721   2.120   1.724   2.817 -1.9817 -1.4213 -0.6219
 7842TIP3    H247722   2.240   1.638   2.785  0.9377  2.1554 -0.0002
 7843TIP3   OH247723   5.930   2.073   1.439  0.1318 -0.2216  0.3004
 7843TIP3    H147724   6.016   2.098   1.404 -0.2108  1.2029  0.4473
 7843TIP3    H247725   5.877   2.152   1.432 -1.5804 -1.4260 -0.9557
 7844TIP3   OH247726   5.763   6.687   2.215 -0.7725 -0.5572  0.1479
 7844TIP3    H147727   5.820   6.629   2.267 -1.9856 -0.2387  1.9253
 7844TIP3    H247728   5.784   6.775   2.246 -1.6397 -0.3731  0.2323
 7845TIP3   OH247729   2.008   2.880   2.331 -0.4446 -0.1303  0.2962
 7845TIP3    H147730   2.030   2.965   2.294  0.0069 -0.2999  0.1644
 7845TIP3    H247731   2.004   2.895   2.426 -0.7793  0.1244  0.2409
 7846TIP3   OH247732   3.692   4.035   2.707 -0.4518  0.0252 -0.0262
 7846TIP3    H147733   3.640   3.972   2.657 -0.7321  0.7033 -0.6151
 7846TIP3    H247734   3.747   3.981   2.764 -0.6384 -0.7469 -0.5572
 7847TIP3   OH247735   2.426   1.002   1.748 -0.1857 -0.1626 -0.5061
 7847TIP3    H147736   2.518   0.993   1.721 -0.1562  0.2632 -0.5514
 7847TIP3    H247737   2.431   1.048   1.832 -0.2630 -1.6267  0.3430
 7848TIP3   OH247738   3.617   2.405   3.637 -0.1454  1.1304 -0.3111
 7848TIP3    H147739   3.630   2.471   3.705 -1.0675 -0.7148  1.7695
 7848TIP3    H247740   3.697   2.352   3.640 -0.0202  1.2708 -0.9720
 7849TIP3   OH247741   3.696   4.260   2.109  0.6484 -0.3220  0.7077
 7849TIP3    H147742   3.711   4.354   2.123 -0.1728 -0.2767  1.3066
 7849TIP3    H247743   3.631   4.257   2.039  0.8569 -0.4600  0.5166
 7850TIP3   OH247744   1.466   3.042   0.869 -0.0354  0.2374  0.3246
 7850TIP3    H147745   1.470   3.018   0.962  2.1850  2.4026  0.8758
 7850TIP3    H247746   1.539   2.995   0.829 -0.5661 -0.1431 -0.2079
 7851TIP3   OH247747   3.208   3.331   1.605  0.0385 -0.6022  0.1496
 7851TIP3    H147748   3.171   3.406   1.559 -0.9288 -0.2634  1.4256
 7851TIP3    H247749   3.141   3.263   1.600  0.6300 -1.1638 -0.4077
 7852TIP3   OH247750   1.453   0.243   4.914  0.4852  0.3707 -0.3952
 7852TIP3    H147751   1.400   0.247   4.835 -1.0051 -0.3142  0.5311
 7852TIP3    H247752   1.509   0.320   4.910 -0.7021  1.2156 -1.3348
 7853TIP3   OH247753   2.608   4.938   0.662  0.1736  0.1521 -0.2674
 7853TIP3    H147754   2.682   4.997   0.677 -0.3448  0.2829  2.1995
 7853TIP3    H247755   2.614   4.873   0.732 -1.3289 -0.5600 -0.7592
 7854TIP3   OH247756   4.174   0.843   3.972  0.5482  0.1067 -0.4827
 7854TIP3    H147757   4.122   0.896   4.032 -0.3141 -2.3536  1.1352
 7854TIP3    H247758   4.140   0.863   3.885 -1.5958  0.2477  0.3315
 7855TIP3   OH247759   3.707   1.553   4.088  0.3712  0.1603 -0.4170
 7855TIP3    H147760   3.615   1.543   4.113  0.3677  3.3627  1.3966
 7855TIP3    H247761   3.755   1.496   4.149 -0.2858  0.6657  0.6045
 7856TIP3   OH247762   0.823   1.258   3.754 -0.1580  0.0736 -0.2481
 7856TIP3    H147763   0.800   1.226   3.841  0.6584  1.7765  0.6173
 7856TIP3    H247764   0.918   1.250   3.749  0.3186  3.6732  0.6241
 7857TIP3   OH247765   2.956   0.270   1.149  0.3238  0.0961 -0.2212
 7857TIP3    H147766   3.015   0.214   1.199 -0.5787 -0.8629 -0.1946
 7857TIP3    H247767   2.876   0.276   1.202 -0.0238  0.4561 -0.7651
 7858TIP3   OH247768   6.070   0.931   2.148  0.2151 -0.2121  0.3319
 7858TIP3    H147769   6.102   0.961   2.063 -0.0978  0.2475  0.3737
 7858TIP3    H247770   5.976   0.922   2.137  0.3658 -1.6940  0.1712
 7859TIP3   OH247771   3.649   5.023   2.367  0.2568  1.1007 -0.4239
 7859TIP3    H147772   3.642   5.098   2.425 -2.3896  0.6947 -0.1189
 7859TIP3    H247773   3.703   4.961   2.415  1.2944  2.2239 -0.0801
 7860TIP3   OH247774   4.532   3.270   1.632 -0.8698  0.7037  0.1982
 7860TIP3    H147775   4.577   3.189   1.654 -1.6210  0.3703  0.5160
 7860TIP3    H247776   4.449   3.243   1.594 -1.1365  1.3216  0.3195
 7861TIP3   OH247777   3.769   4.935   1.233 -0.0416  0.1501 -0.0658
 7861TIP3    H147778   3.698   4.913   1.293 -0.3797 -0.1641 -0.5659
 7861TIP3    H247779   3.725   4.968   1.155  0.3521 -0.1519 -0.4225
 7862TIP3   OH247780   0.894   1.137   2.960  0.0646  0.6091  0.4463
 7862TIP3    H147781   0.952   1.208   2.933  1.5304 -1.0055 -0.9524
 7862TIP3    H247782   0.933   1.103   3.040 -0.8958  1.6246  1.3717
 7863TIP3   OH247783   5.516   2.561   2.292 -0.4855  0.2879 -0.0006
 7863TIP3    H147784   5.538   2.483   2.241  1.2479 -0.2031  1.4085
 7863TIP3    H247785   5.556   2.633   2.243 -0.7991  0.1143 -0.5186
 7864TIP3   OH247786   5.541   5.420   1.917  0.1228  0.0243 -0.0523
 7864TIP3    H147787   5.509   5.330   1.911  2.3534 -0.8251  0.0361
 7864TIP3    H247788   5.484   5.470   1.858 -1.1394 -1.4286 -0.1124
 7865TIP3   OH247789   2.185   0.125   3.789  0.3219  0.5677 -0.1292
 7865TIP3    H147790   2.189   0.139   3.694 -0.6748  0.6849 -0.1638
 7865TIP3    H247791   2.255   0.180   3.824  0.5937  0.6513 -0.7816
 7866TIP3   OH247792   5.101   3.490   0.486  0.3415 -0.5443  0.1142
 7866TIP3    H147793   5.176   3.457   0.534 -0.6071 -0.4945  1.6859
 7866TIP3    H247794   5.119   3.584   0.475 -0.1253 -0.2283  1.7844
 7867TIP3   OH247795   1.401   2.521   0.764  0.2438 -0.1976  0.9077
 7867TIP3    H147796   1.331   2.476   0.812 -0.8660  0.5343  0.0045
 7867TIP3    H247797   1.370   2.610   0.753  0.9792 -0.0598 -0.2106
 7868TIP3   OH247798   4.086   0.935   2.617 -0.1885 -0.0445 -0.3817
 7868TIP3    H147799   3.994   0.959   2.629 -0.8234 -0.8114 -3.0424
 7868TIP3    H247800   4.084   0.842   2.596  1.2439 -0.1417 -0.1982
 7869TIP3   OH247801   3.352   4.604   4.254  0.1989  0.0008  0.3069
 7869TIP3    H147802   3.394   4.681   4.292 -0.3346  0.4067  0.1040
 7869TIP3    H247803   3.421   4.538   4.250  1.4557  1.3135 -2.0615
 7870TIP3   OH247804   4.077   0.957   0.567 -0.2474  0.2718 -0.3603
 7870TIP3    H147805   4.054   1.050   0.566  0.6329  0.5063 -1.7903
 7870TIP3    H247806   4.159   0.953   0.616 -1.3489 -0.0603  1.5180
 7871TIP3   OH247807   0.192   5.596   2.093  0.2321 -0.4219  0.4117
 7871TIP3    H147808   0.187   5.592   2.189 -0.2275 -2.2194  0.3476
 7871TIP3    H247809   0.111   5.639   2.067  0.2359 -0.1612  0.8143
 7872TIP3   OH247810   6.697   2.308   0.923 -0.4892 -0.1216  0.2695
 7872TIP3    H147811   6.756   2.318   0.998 -0.8566 -1.9002  0.8544
 7872TIP3    H247812   6.750   2.333   0.847 -0.3293  2.4437  1.1247
 7873TIP3   OH247813   3.618   5.844   1.274 -0.1590  0.2354  0.2555
 7873TIP3    H147814   3.575   5.930   1.275  2.0572  1.4233  0.2145
 7873TIP3    H247815   3.617   5.817   1.183  0.2218  0.8255  0.0708
 7874TIP3   OH247816   4.408   1.754   2.390  0.2183 -0.7614 -0.1369
 7874TIP3    H147817   4.379   1.774   2.479 -1.6131 -3.5615  0.0299
 7874TIP3    H247818   4.474   1.686   2.401  0.9003 -0.2308 -0.8780
 7875TIP3   OH247819   2.526   4.829   2.588  0.1988 -0.5154 -0.8384
 7875TIP3    H147820   2.464   4.893   2.623  0.4969  0.4461 -2.0041
 7875TIP3    H247821   2.503   4.747   2.632  1.1500  0.7506  2.2718
 7876TIP3   OH247822   0.078   4.839   3.028 -0.3552  0.2194  0.2684
 7876TIP3    H147823   0.110   4.880   2.948 -1.1287  2.2460  0.9343
 7876TIP3    H247824  -0.016   4.832   3.015 -0.3279 -0.7102  0.4805
 7877TIP3   OH247825   1.663   1.458   1.159 -0.4386 -0.6816  0.0462
 7877TIP3    H147826   1.686   1.382   1.213 -1.1766 -1.0334 -0.1385
 7877TIP3    H247827   1.579   1.487   1.193  0.9773  1.6918  1.9091
 7878TIP3   OH247828   6.330   3.685   2.548 -0.8194 -0.8315 -0.1390
 7878TIP3    H147829   6.346   3.737   2.626  0.3600 -2.0219  0.4691
 7878TIP3    H247830   6.325   3.595   2.580  1.1273 -1.5212 -1.5443
 7879TIP3   OH247831   4.861   1.775   1.028  0.2894  0.0689 -0.4569
 7879TIP3    H147832   4.930   1.776   0.962  1.3289  2.2851  0.5332
 7879TIP3    H247833   4.780   1.788   0.979  0.8205 -0.2733 -1.4503
 7880TIP3   OH247834   6.320   4.707   3.774 -0.1142  0.1342  0.6475
 7880TIP3    H147835   6.408   4.677   3.797  0.4748  0.7060 -0.7850
 7880TIP3    H247836   6.333   4.796   3.740 -1.3157  0.4197  0.9008
 7881TIP3   OH247837   2.530   5.425   2.977  0.0043  0.2288 -0.3066
 7881TIP3    H147838   2.494   5.357   2.921 -2.6078  1.0385  0.2573
 7881TIP3    H247839   2.484   5.505   2.951 -0.3302  0.8831  2.0316
 7882TIP3   OH247840   3.258   0.516   3.548 -0.2922  0.3027 -0.3005
 7882TIP3    H147841   3.221   0.563   3.473  1.5781  2.4588  0.0244
 7882TIP3    H247842   3.350   0.539   3.548  0.2266 -1.5245  1.3480
 7883TIP3   OH247843   2.166   4.386   3.372 -0.3525  0.0907  0.4242
 7883TIP3    H147844   2.243   4.376   3.428  0.4798  0.2369 -0.6507
 7883TIP3    H247845   2.108   4.315   3.398  0.0481  0.1099  1.4086
 7884TIP3   OH247846   1.897   5.754   0.676 -0.1294  0.2701 -0.0478
 7884TIP3    H147847   1.874   5.820   0.742  0.0935 -0.3768  0.6976
 7884TIP3    H247848   1.960   5.798   0.619 -1.1281  1.1882 -0.4950
 7885TIP3   OH247849   3.108   2.670   2.387 -0.3929  0.7657 -0.4466
 7885TIP3    H147850   3.136   2.643   2.300 -0.6605 -0.5751 -0.1458
 7885TIP3    H247851   3.101   2.588   2.436  1.9849  1.6411  1.5449
 7886TIP3   OH247852   4.929   2.460   1.814 -0.4204 -0.1659  0.6609
 7886TIP3    H147853   4.877   2.521   1.866  0.7608  0.1208  1.5455
 7886TIP3    H247854   4.963   2.513   1.742 -1.5051 -0.4037 -0.0398
 7887TIP3   OH247855   5.677   6.286   3.794 -0.3202  0.3831 -0.0443
 7887TIP3    H147856   5.728   6.262   3.716  0.8670  1.4735  0.3757
 7887TIP3    H247857   5.628   6.363   3.767 -1.9121 -0.7204 -0.4813
 7888TIP3   OH247858   1.754   2.016   2.753  0.6823 -0.2766 -0.5221
 7888TIP3    H147859   1.724   2.092   2.703  0.4398 -0.8669 -1.2984
 7888TIP3    H247860   1.740   2.040   2.844  0.3725  0.5124 -0.7713
 7889TIP3   OH247861   6.235   1.524   0.863  0.3048 -0.5060 -0.1341
 7889TIP3    H147862   6.223   1.527   0.958  0.3553  0.6765 -0.1500
 7889TIP3    H247863   6.293   1.598   0.844  1.8518 -1.8368 -0.8723
 7890TIP3   OH247864   3.679   3.578   2.227  0.0021 -0.0727 -0.1180
 7890TIP3    H147865   3.768   3.567   2.260  0.7828 -0.8851 -2.2825
 7890TIP3    H247866   3.677   3.666   2.189  0.4371 -0.6052 -1.4594
 7891TIP3   OH247867   0.255   5.411   0.532 -0.0046  0.0078  0.3069
 7891TIP3    H147868   0.178   5.411   0.476 -1.0267 -1.1049  1.6358
 7891TIP3    H247869   0.325   5.375   0.477 -0.2571  1.4801 -1.0659
 7892TIP3   OH247870   6.217   3.101   1.751  0.0526 -0.2332  0.1562
 7892TIP3    H147871   6.252   3.025   1.798 -1.6628 -1.4394 -0.4273
 7892TIP3    H247872   6.267   3.104   1.670  1.4581  0.4848  0.9976
 7893TIP3   OH247873   4.922   0.258   1.231  0.2875 -0.3342 -0.1963
 7893TIP3    H147874   4.971   0.185   1.269 -0.4267 -0.4109  0.6018
 7893TIP3    H247875   4.832   0.244   1.260  0.5867  2.6185  2.8931
 7894TIP3   OH247876   3.851   0.551   3.802  0.0256  0.5529 -0.7005
 7894TIP3    H147877   3.926   0.534   3.859  0.1205 -1.8188 -1.4241
 7894TIP3    H247878   3.887   0.597   3.727  0.5736  0.3177 -0.5845
 7895TIP3   OH247879   1.302   2.094   0.813 -0.3557 -0.0242  0.1568
 7895TIP3    H147880   1.293   2.050   0.898  1.2193 -0.0478  0.3438
 7895TIP3    H247881   1.245   2.170   0.818 -1.0015 -0.5502  0.8778
 7896TIP3   OH247882   1.273   4.323   1.535 -0.0319  0.4949  0.5979
 7896TIP3    H147883   1.361   4.360   1.530 -0.0170  0.3664 -0.0777
 7896TIP3    H247884   1.286   4.229   1.523 -0.3773  0.5987 -0.6674
 7897TIP3   OH247885   6.110   6.335   2.127  0.1811  0.4404 -0.0576
 7897TIP3    H147886   6.173   6.288   2.071 -0.8258  0.3743 -1.1830
 7897TIP3    H247887   6.151   6.420   2.143  0.4348  0.5111 -1.0230
 7898TIP3   OH247888   3.510   0.692   2.704  0.0680 -0.3196 -0.1239
 7898TIP3    H147889   3.489   0.614   2.653  0.7409 -1.2670  0.9892
 7898TIP3    H247890   3.603   0.707   2.688  0.1320 -0.2423  0.2956
 7899TIP3   OH247891   2.177   2.481   2.732  0.0594  0.2471 -0.2825
 7899TIP3    H147892   2.238   2.554   2.735  0.5699 -0.1789 -0.1800
 7899TIP3    H247893   2.205   2.422   2.802 -1.0419  0.4813  0.3846
 7900TIP3   OH247894   1.837   2.581   0.578 -0.3858  0.1837  0.4938
 7900TIP3    H147895   1.862   2.492   0.553 -1.6410  0.2868 -1.2616
 7900TIP3    H247896   1.741   2.583   0.572 -0.3243  2.0318 -0.9493
 7901TIP3   OH247897   0.827   5.407   1.333  0.5358 -0.2144 -0.4344
 7901TIP3    H147898   0.875   5.489   1.323 -1.2169  0.7737 -1.0463
 7901TIP3    H247899   0.838   5.362   1.249  0.8575 -0.2684 -0.3660
 7902TIP3   OH247900   5.779   3.458   1.252 -0.3191 -0.1973 -0.3001
 7902TIP3    H147901   5.773   3.495   1.164 -2.2966 -1.7538 -0.8790
 7902TIP3    H247902   5.848   3.392   1.245  0.3734  0.5096 -0.3262
 7903TIP3   OH247903   3.846   1.909   3.938  0.0645  0.1933  0.7216
 7903TIP3    H147904   3.790   1.883   4.011 -0.4796  0.4956  0.4213
 7903TIP3    H247905   3.848   1.833   3.880 -0.4182  0.3419  0.5066
 7904TIP3   OH247906   0.762   2.381   3.085  0.0404 -0.3659 -0.4264
 7904TIP3    H147907   0.723   2.309   3.036 -0.0558 -0.7034  0.1336
 7904TIP3    H247908   0.690   2.443   3.099  0.2929  0.1916 -1.5391
 7905TIP3   OH247909   4.781   4.560   3.091  0.4828  0.2796  0.2157
 7905TIP3    H147910   4.795   4.474   3.129 -0.0179 -0.4210 -1.1402
 7905TIP3    H247911   4.855   4.571   3.030  0.2156  0.5553 -0.0599
 7906TIP3   OH247912   5.448   1.340   0.794  0.0262 -0.3059  0.6278
 7906TIP3    H147913   5.357   1.341   0.767  0.2542  2.0338 -0.3451
 7906TIP3    H247914   5.446   1.314   0.886 -1.5960 -0.4157  0.5804
 7907TIP3   OH247915   2.836   1.280   9.578  0.2128  0.2832  0.0132
 7907TIP3    H147916   2.925   1.278   9.545  0.4433 -1.2562  0.6268
 7907TIP3    H247917   2.843   1.320   9.665  0.3139  0.1116  0.0841
 7908TIP3   OH247918   6.510   5.653   3.911 -0.6259  0.0407 -0.2644
 7908TIP3    H147919   6.461   5.649   3.994  0.0036  0.2815  0.1253
 7908TIP3    H247920   6.601   5.643   3.937 -0.5613 -2.1532 -1.1457
 7909TIP3   OH247921   2.517   6.249   3.112 -0.0957  0.2943  0.0490
 7909TIP3    H147922   2.543   6.334   3.076 -0.4552  0.5761  0.4498
 7909TIP3    H247923   2.595   6.219   3.159  0.6495 -0.4329 -1.5686
 7910TIP3   OH247924   2.746   5.637   1.095  0.2305 -0.1659  0.2920
 7910TIP3    H147925   2.810   5.671   1.033  0.6207 -0.2194  0.6586
 7910TIP3    H247926   2.777   5.667   1.180  0.0946 -0.7013  0.5321
 7911TIP3   OH247927   4.605   0.618   2.695  0.3335 -0.3833  0.0625
 7911TIP3    H147928   4.682   0.675   2.701  0.0870 -0.1466  1.2488
 7911TIP3    H247929   4.576   0.607   2.785 -0.0664 -1.8071 -0.2206
 7912TIP3   OH247930   5.929   1.646   2.087  0.2111  0.5839  0.2257
 7912TIP3    H147931   5.954   1.573   2.144 -1.0222  0.0301  0.0860
 7912TIP3    H247932   5.946   1.724   2.140  1.5579  0.2088  0.3699
 7913TIP3   OH247933   3.024   6.235   3.234  0.1526 -0.1625 -0.0760
 7913TIP3    H147934   3.023   6.317   3.283  1.3369 -1.1129  1.6259
 7913TIP3    H247935   3.104   6.238   3.182  0.0819 -0.1527 -0.1859
 7914TIP3   OH247936   1.169   5.236   1.541  0.1075 -0.7504  0.1820
 7914TIP3    H147937   1.074   5.228   1.546  0.2211 -1.4371  2.2459
 7914TIP3    H247938   1.201   5.146   1.533  0.6087 -0.6759  1.1324
 7915TIP3   OH247939   1.214   2.602   0.939  0.6329 -0.6299  0.1438
 7915TIP3    H147940   1.236   2.694   0.922  0.0509 -0.1788  1.6491
 7915TIP3    H247941   1.245   2.586   1.029 -0.7914 -1.3776  0.5367
 7916TIP3   OH247942   4.932   1.681   3.411 -0.1037  0.0366 -0.2529
 7916TIP3    H147943   4.913   1.692   3.504  0.6489  1.6971 -0.2493
 7916TIP3    H247944   4.880   1.605   3.384 -1.2618  0.2507  1.2433
 7917TIP3   OH247945   2.604   5.933   3.280 -0.0355  0.3846  0.7049
 7917TIP3    H147946   2.597   5.840   3.259  0.0450  0.6077 -0.3822
 7917TIP3    H247947   2.566   5.978   3.204 -0.6937  1.2240  1.5140
 7918TIP3   OH247948   3.059   5.254   4.955 -0.5495  0.2901  0.0769
 7918TIP3    H147949   3.132   5.315   4.961 -0.8958  0.7761 -0.5649
 7918TIP3    H247950   3.100   5.168   4.943 -0.0944  0.7169 -1.5486
 7919TIP3   OH247951   2.672   4.778   1.950 -0.1609 -0.6483 -0.5450
 7919TIP3    H147952   2.716   4.694   1.934 -1.0705 -0.9385 -1.5971
 7919TIP3    H247953   2.715   4.839   1.890  1.2418 -0.0585  0.9624
 7920TIP3   OH247954   0.282   1.277   1.865 -0.2811 -0.1386 -0.6397
 7920TIP3    H147955   0.212   1.284   1.930 -0.6689 -0.4862 -1.0125
 7920TIP3    H247956   0.242   1.230   1.792  0.0555  0.5315 -1.2630
 7921TIP3   OH247957   1.375   5.272   0.792 -0.7464 -0.1021 -0.4966
 7921TIP3    H147958   1.390   5.231   0.707  0.8486  1.2891 -0.9300
 7921TIP3    H247959   1.284   5.300   0.790 -0.9416 -0.7761 -1.4283
 7922TIP3   OH247960   5.330   2.931   1.719 -0.1971 -0.3043 -1.0643
 7922TIP3    H147961   5.274   3.008   1.716 -1.2044 -0.9853 -0.3281
 7922TIP3    H247962   5.355   2.916   1.628  1.7626  2.1022 -1.0282
 7923TIP3   OH247963   3.413   1.103   0.563  0.2175 -0.0505  0.1080
 7923TIP3    H147964   3.339   1.083   0.506 -0.6360 -2.5966  1.9324
 7923TIP3    H247965   3.399   1.049   0.641  1.5827  2.8359  2.5707
 7924TIP3   OH247966   3.917   0.985   2.214  0.1613  0.4824 -0.1140
 7924TIP3    H147967   3.874   0.924   2.155  0.6274 -0.9535  0.9927
 7924TIP3    H247968   3.859   1.061   2.217 -0.4236  0.1075 -1.5086
 7925TIP3   OH247969   6.044   6.081   1.263 -0.3877  0.5580  0.0814
 7925TIP3    H147970   6.044   5.985   1.253 -2.5323  0.5141  0.0236
 7925TIP3    H247971   6.072   6.096   1.353  1.7432  0.0107 -0.4359
 7926TIP3   OH247972   0.418   2.669   1.340  0.1586  0.4668  0.3934
 7926TIP3    H147973   0.505   2.660   1.380  0.8966  0.8408 -1.0778
 7926TIP3    H247974   0.402   2.584   1.300  0.4254  0.7987 -0.4354
 7927TIP3   OH247975   1.096   5.579   2.650 -0.4923  0.2987 -0.1188
 7927TIP3    H147976   1.109   5.636   2.725 -0.0998 -0.2982  0.2686
 7927TIP3    H247977   1.157   5.507   2.663  1.3571  1.3471 -2.2138
 7928TIP3   OH247978   0.236   3.535   3.700 -0.7405 -0.2233 -0.1612
 7928TIP3    H147979   0.245   3.439   3.702 -1.1828 -0.2532  1.0465
 7928TIP3    H247980   0.185   3.556   3.779 -1.3167  0.9432 -0.8251
 7929TIP3   OH247981   6.438   0.455   1.956 -0.1366 -0.0221  0.6547
 7929TIP3    H147982   6.383   0.377   1.944 -2.1198  1.3560  0.1659
 7929TIP3    H247983   6.508   0.444   1.892 -0.0848 -1.6353  0.9458
 7930TIP3   OH247984   2.965   4.467   0.751  0.0775  0.5420 -0.2723
 7930TIP3    H147985   2.904   4.540   0.738 -1.2219 -0.4324  0.1875
 7930TIP3    H247986   2.916   4.390   0.724  0.9363 -0.3240  0.5717
 7931TIP3   OH247987   0.198   6.195   0.770  0.0151  0.5806  0.0454
 7931TIP3    H147988   0.159   6.281   0.787  0.8286  1.2661 -1.3831
 7931TIP3    H247989   0.141   6.155   0.704  0.0085  0.2908  0.2247
 7932TIP3   OH247990   0.264   3.091   2.890 -0.2208  0.1841 -0.4958
 7932TIP3    H147991   0.249   3.130   2.803 -3.5975  0.4722  0.0770
 7932TIP3    H247992   0.244   3.161   2.951  3.0737  0.2830  0.6473
 7933TIP3   OH247993   4.343   1.000   0.992  0.1429  0.1185  0.4006
 7933TIP3    H147994   4.365   1.075   1.048 -1.0883 -0.2483  1.4367
 7933TIP3    H247995   4.247   0.993   0.999  0.1999 -1.3088  0.0162
 7934TIP3   OH247996   1.443   2.353   0.371  0.1237  0.1922  0.2169
 7934TIP3    H147997   1.487   2.404   0.439  0.0343  0.5933 -0.0217
 7934TIP3    H247998   1.382   2.415   0.330 -0.9401 -0.4379  0.7897
 7935TIP3   OH247999   0.692   3.441   0.841 -0.0994  0.4139 -0.1397
 7935TIP3    H148000   0.682   3.464   0.933 -2.4307 -1.2139  0.1138
 7935TIP3    H248001   0.725   3.350   0.843  1.5861  0.9625 -0.9834
 7936TIP3   OH248002   6.254   6.226   4.044  0.2557 -0.4203  0.2118
 7936TIP3    H148003   6.333   6.265   4.007 -0.3881  0.8774  0.1592
 7936TIP3    H248004   6.192   6.223   3.971 -0.2241 -0.0684  0.5939
 7937TIP3   OH248005   5.706   2.740   3.187  0.1544  0.3880  0.1835
 7937TIP3    H148006   5.749   2.731   3.103  1.3047  2.2989  0.4883
 7937TIP3    H248007   5.635   2.802   3.171  0.4837  0.8928  0.6268
 7938TIP3   OH248008   1.736   5.968   3.212  0.9978  0.4496  0.1039
 7938TIP3    H148009   1.647   5.948   3.185  0.3681 -0.4478  2.5472
 7938TIP3    H248010   1.782   5.884   3.211  1.0617  0.4496  1.2923
 7939TIP3   OH248011   3.396   0.827   3.457  1.3916 -0.2586  0.2821
 7939TIP3    H148012   3.430   0.737   3.453  1.5168 -0.3147  1.9400
 7939TIP3    H248013   3.358   0.834   3.545 -2.8262 -0.1650 -1.3342
 7940TIP3   OH248014   0.925   0.426   1.773  0.3851  0.3556  0.5426
 7940TIP3    H148015   0.847   0.455   1.820 -2.3217 -1.5041 -2.4258
 7940TIP3    H248016   0.953   0.346   1.818 -1.2983 -0.6036 -0.0216
 7941TIP3   OH248017   5.072   4.023   2.041 -0.6311 -0.0529  0.5867
 7941TIP3    H148018   5.067   4.087   2.112  1.8337  0.6955  0.2034
 7941TIP3    H248019   5.032   4.067   1.966  0.4250  0.8462  0.5104
 7942TIP3   OH248020   1.890   1.731   1.733 -0.5739  0.0236 -0.2336
 7942TIP3    H148021   1.831   1.708   1.661  1.3618 -2.2505 -1.2256
 7942TIP3    H248022   1.934   1.810   1.702 -1.3823  0.3892 -0.5032
 7943TIP3   OH248023   1.101   4.374   0.983  0.2128 -0.1634 -1.0754
 7943TIP3    H148024   1.118   4.327   1.065 -0.2890  2.3900  0.6170
 7943TIP3    H248025   1.027   4.328   0.944 -0.7412 -0.3778  0.8608
 7944TIP3   OH248026   2.371   2.663   2.770 -0.5289 -0.1879 -0.2591
 7944TIP3    H148027   2.457   2.681   2.808 -0.2730 -2.2293  0.2047
 7944TIP3    H248028   2.329   2.749   2.767  1.1695  0.7244  0.3508
 7945TIP3   OH248029   4.075   2.236   0.443 -0.1023 -0.1017  0.6491
 7945TIP3    H148030   3.993   2.192   0.420 -0.6216  1.0105  0.2545
 7945TIP3    H248031   4.104   2.193   0.523  0.0957 -1.9881 -0.3804
 7946TIP3   OH248032   6.302   0.087   3.455  0.2626  0.1638 -0.0373
 7946TIP3    H148033   6.288   0.181   3.455  0.4968  0.2000 -0.2133
 7946TIP3    H248034   6.229   0.051   3.506 -1.1838  0.2225 -1.9792
 7947TIP3   OH248035   4.675   2.071   3.414  0.4636 -0.3392  0.2802
 7947TIP3    H148036   4.679   1.988   3.462 -1.4843  0.0086  1.1093
 7947TIP3    H248037   4.588   2.073   3.375  1.0539  0.6166 -1.0779
 7948TIP3   OH248038   1.804   2.823   0.441 -0.4832 -0.4398  0.5418
 7948TIP3    H148039   1.828   2.742   0.486 -1.3287 -1.2118 -0.3471
 7948TIP3    H248040   1.714   2.840   0.470 -1.7175 -1.8978 -2.0352
 7949TIP3   OH248041   3.360   0.461   1.186  0.8633 -0.0950 -0.4964
 7949TIP3    H148042   3.421   0.448   1.114 -0.5360  0.3881 -1.8250
 7949TIP3    H248043   3.372   0.384   1.242  0.4409 -1.6447 -2.4186
 7950TIP3   OH248044   6.676   3.459   1.385  0.0657  0.3452  0.5237
 7950TIP3    H148045   6.598   3.514   1.381  1.3463  2.2757  1.2168
 7950TIP3    H248046   6.658   3.397   1.456 -1.3768 -0.1734 -0.2517
 7951TIP3   OH248047   4.913   3.563   0.790 -0.4163 -0.7200 -0.2686
 7951TIP3    H148048   4.877   3.543   0.704  0.7330  0.4628 -1.0708
 7951TIP3    H248049   4.974   3.635   0.774  1.0320 -1.5396  1.2780
 7952TIP3   OH248050   2.441   6.638   3.782  0.5365 -0.5276  0.1019
 7952TIP3    H148051   2.488   6.680   3.854  1.9914 -0.9808 -0.5528
 7952TIP3    H248052   2.491   6.559   3.763 -0.8118 -1.3358 -0.2697
 7953TIP3   OH248053   6.319   0.172   2.040 -0.3791  0.1279 -0.2418
 7953TIP3    H148054   6.253   0.105   2.024 -0.3496  0.5338 -2.3990
 7953TIP3    H248055   6.402   0.124   2.046 -0.7127 -0.2877  1.5182
 7954TIP3   OH248056   2.320   5.843   0.917  0.0683  0.0273 -0.6174
 7954TIP3    H148057   2.303   5.768   0.974 -0.0833 -0.2709 -1.0473
 7954TIP3    H248058   2.330   5.917   0.977  2.1379 -0.6552 -0.0361
 7955TIP3   OH248059   2.762   4.083   0.438 -0.3558  0.3278  0.1207
 7955TIP3    H148060   2.754   3.995   0.404 -0.2489  0.3614  0.0073
 7955TIP3    H248061   2.841   4.118   0.396  1.0873 -0.4044  2.0707
 7956TIP3   OH248062   2.095   0.341   3.341  0.4410  0.1599 -0.9053
 7956TIP3    H148063   2.164   0.405   3.355 -0.1642  0.6516 -0.0540
 7956TIP3    H248064   2.126   0.261   3.384 -0.1773  0.8435  0.8999
 7957TIP3   OH248065   6.047   3.649   1.619  0.1148 -0.1351  0.1330
 7957TIP3    H148066   6.003   3.648   1.533 -2.7833  2.5631  1.3875
 7957TIP3    H248067   6.064   3.741   1.636  1.1492 -0.6676  2.2588
 7958TIP3   OH248068   2.975   5.164   1.038  0.2974  0.1154 -0.1339
 7958TIP3    H148069   2.918   5.239   1.022 -0.4326 -0.1571  1.1349
 7958TIP3    H248070   3.063   5.202   1.040 -0.0438  0.9230  0.3187
 7959TIP3   OH248071   4.906   4.089   3.036 -0.5342  0.0152  0.0200
 7959TIP3    H148072   4.868   4.016   2.987 -1.1136  0.4617 -0.2037
 7959TIP3    H248073   4.882   4.072   3.127  2.1325 -1.8353  0.5055
 7960TIP3   OH248074   0.570   1.086   2.383  0.3754 -0.2524  0.1213
 7960TIP3    H148075   0.532   0.999   2.392  0.4488 -0.3001 -0.0288
 7960TIP3    H248076   0.608   1.104   2.469  0.1234 -0.2550  0.2348
 7961TIP3   OH248077   4.471   4.539   1.110  0.1757  1.0802  0.1219
 7961TIP3    H148078   4.532   4.541   1.183  0.6128 -1.1400 -0.1126
 7961TIP3    H248079   4.501   4.467   1.055 -1.6151  1.0615 -0.9252
 7962TIP3   OH248080   0.907   4.813   1.665  0.7487 -0.3366  0.4238
 7962TIP3    H148081   0.845   4.879   1.696 -0.9598 -0.9082 -1.5627
 7962TIP3    H248082   0.954   4.785   1.743 -1.1075  0.5523  1.9232
 7963TIP3   OH248083   4.718   0.862   3.374 -0.3570  0.6366 -0.3770
 7963TIP3    H148084   4.705   0.776   3.414 -2.6897  0.1810 -1.8889
 7963TIP3    H248085   4.673   0.922   3.433  0.1201  0.6211  0.0016
 7964TIP3   OH248086   6.097   2.589   2.016  0.4003 -0.4087  0.0008
 7964TIP3    H148087   6.165   2.552   2.072  1.0905 -0.5767 -0.9281
 7964TIP3    H248088   6.134   2.672   1.984 -0.3796  0.1714  0.5599
 7965TIP3   OH248089   6.445   0.657   1.704  0.1298  0.3106 -0.1117
 7965TIP3    H148090   6.389   0.704   1.765 -1.1947  0.1383 -1.1671
 7965TIP3    H248091   6.498   0.600   1.760  0.8235  2.0378  1.0772
 7966TIP3   OH248092   3.197   5.046   0.653  0.0033  0.0555  0.0184
 7966TIP3    H148093   3.170   4.960   0.684  4.0417 -0.8379  1.6779
 7966TIP3    H248094   3.252   5.027   0.577  1.1235  1.0795  0.5384
 7967TIP3   OH248095   3.311   1.314   1.938 -0.2732  0.3259 -0.5577
 7967TIP3    H148096   3.220   1.301   1.962 -0.3728  0.5040 -0.8269
 7967TIP3    H248097   3.307   1.361   1.854  0.0663  0.7085 -0.3636
 7968TIP3   OH248098   4.951   5.299   2.114 -0.2355 -0.2416 -0.1848
 7968TIP3    H148099   4.917   5.218   2.151  1.4775 -0.9286 -0.0468
 7968TIP3    H248100   4.905   5.309   2.031  0.6418 -2.1952 -0.9427
 7969TIP3   OH248101   1.450   2.650   0.450 -0.0014  0.1115  0.6869
 7969TIP3    H148102   1.354   2.661   0.449 -0.0918 -0.6740  0.3220
 7969TIP3    H248103   1.483   2.740   0.454 -0.7548  0.3641  1.5313
 7970TIP3   OH248104   1.546   6.132   3.390 -0.5696  0.2435  0.4172
 7970TIP3    H148105   1.592   6.182   3.323 -0.6006  1.1682  1.0552
 7970TIP3    H248106   1.483   6.078   3.342  0.8053 -0.6750 -0.4343
 7971TIP3   OH248107   5.239   1.177   3.719 -0.1603 -0.4256  0.0137
 7971TIP3    H148108   5.230   1.200   3.811  0.3495 -0.0763 -0.0201
 7971TIP3    H248109   5.333   1.184   3.701 -0.3100  0.0578 -0.6626
 7972TIP3   OH248110   5.254   4.535   2.512  0.1809  0.4367 -0.2863
 7972TIP3    H148111   5.346   4.511   2.526 -0.2302 -0.7965  0.4645
 7972TIP3    H248112   5.208   4.452   2.507 -0.9441  1.0466 -0.4098
 7973TIP3   OH248113   5.028   0.083   3.676 -1.0041  0.1589 -0.4163
 7973TIP3    H148114   4.964   0.126   3.732 -0.6200 -0.0607  0.2019
 7973TIP3    H248115   5.089   0.152   3.651 -0.5658  0.0394  0.3178
 7974TIP3   OH248116   4.272   6.284   1.179  0.0397  0.9004  0.5081
 7974TIP3    H148117   4.282   6.200   1.223  1.0350 -0.3600 -1.9527
 7974TIP3    H248118   4.184   6.314   1.204 -0.6044 -1.1822  0.9234
 7975TIP3   OH248119   5.932   2.988   2.758  0.1050 -0.3496  0.1858
 7975TIP3    H148120   5.877   3.031   2.693 -1.8013 -0.5022  1.5929
 7975TIP3    H248121   5.987   3.058   2.793  0.0638  0.0373 -0.5005
 7976TIP3   OH248122   1.113   0.085   3.426  0.1960 -0.3908  0.0315
 7976TIP3    H148123   1.084   0.172   3.399  0.8164 -0.8675 -2.3964
 7976TIP3    H248124   1.043   0.053   3.484 -0.6411  1.2033 -0.0403
 7977TIP3   OH248125   4.789   5.049   0.835  0.0985 -0.4713  0.2232
 7977TIP3    H148126   4.716   5.022   0.891 -0.7130  2.4557  0.7318
 7977TIP3    H248127   4.846   4.972   0.832 -2.6992 -2.7195  0.2241
 7978TIP3   OH248128   5.672   5.885   2.731  0.5580 -0.2097  0.1999
 7978TIP3    H148129   5.611   5.911   2.800 -0.0396  0.7867 -0.6678
 7978TIP3    H248130   5.617   5.872   2.654  1.3936  0.5440 -0.5561
 7979TIP3   OH248131   0.940   2.900   2.949 -0.1332 -0.1140 -0.0609
 7979TIP3    H148132   0.899   2.814   2.943  1.5886 -1.1409  1.6562
 7979TIP3    H248133   0.875   2.961   2.913 -1.2276 -2.1468 -1.7375
 7980TIP3   OH248134   3.382   2.288   1.384 -0.0127  0.4781 -0.2624
 7980TIP3    H148135   3.335   2.293   1.467  0.3403  1.8047 -0.1156
 7980TIP3    H248136   3.312   2.278   1.318 -0.3564  0.4166  0.1057
 7981TIP3   OH248137   5.259   6.038   0.952  0.5565 -0.2729  0.2173
 7981TIP3    H148138   5.196   6.066   0.886  0.5028 -1.7752 -0.4030
 7981TIP3    H248139   5.344   6.040   0.906  0.9776  1.5436  0.9876
 7982TIP3   OH248140   3.661   5.283   2.795  0.1214  0.6861  0.1742
 7982TIP3    H148141   3.718   5.207   2.805  0.0121  0.6956  0.9112
 7982TIP3    H248142   3.572   5.248   2.805 -0.0836  0.5109 -1.9048
 7983TIP3   OH248143   6.101   4.667   3.953  0.6911  0.0600 -0.0154
 7983TIP3    H148144   6.177   4.666   3.895  3.1842 -0.9623  3.0035
 7983TIP3    H248145   6.102   4.754   3.993  1.4410 -0.5247  1.3218
 7984TIP3   OH248146   1.220   0.761   2.144 -0.1660  0.5113 -0.2484
 7984TIP3    H148147   1.147   0.746   2.084 -0.2335  0.5510 -0.1775
 7984TIP3    H248148   1.208   0.695   2.212  0.0610  0.2943 -0.4161
 7985TIP3   OH248149   4.025   5.290   2.936 -0.6992 -0.4317 -0.9305
 7985TIP3    H148150   4.057   5.310   3.024  0.4428 -1.4189 -1.1043
 7985TIP3    H248151   3.952   5.351   2.923 -1.1954 -0.6004  0.8775
 7986TIP3   OH248152   3.049   5.246   2.523  0.3366  0.4926  0.2127
 7986TIP3    H148153   3.140   5.256   2.497  1.5699 -0.5181  3.4999
 7986TIP3    H248154   3.015   5.177   2.466  2.4504 -0.8971  0.5297
 7987TIP3   OH248155   2.149   1.046   1.158  0.5807  0.3436 -0.0309
 7987TIP3    H148156   2.120   1.052   1.067 -0.6340 -0.4269  0.2770
 7987TIP3    H248157   2.186   1.132   1.177  0.4645  0.6526 -1.1242
 7988TIP3   OH248158   4.550   2.301   0.785  0.0132 -0.1490  0.1741
 7988TIP3    H148159   4.524   2.337   0.869 -1.9166 -1.0124  0.0222
 7988TIP3    H248160   4.601   2.223   0.806 -0.2992 -0.2516  0.5550
 7989TIP3   OH248161   3.859   1.317   2.032 -0.1062 -0.5995  0.1415
 7989TIP3    H148162   3.785   1.350   1.981 -0.8041 -1.4504  0.5790
 7989TIP3    H248163   3.870   1.226   2.003 -0.8462 -1.2697  1.8346
 7990TIP3   OH248164   2.529   2.387   1.031 -0.3956  0.3306  0.0296
 7990TIP3    H148165   2.579   2.454   1.076  0.8082 -0.0908 -0.6142
 7990TIP3    H248166   2.497   2.329   1.100 -0.9458  1.2304  0.5347
 7991TIP3   OH248167   2.122   5.063   2.145 -0.5002  0.0694 -0.2788
 7991TIP3    H148168   2.081   5.114   2.075  0.5513  1.7785  0.2901
 7991TIP3    H248169   2.123   4.973   2.112 -3.9080  0.0426 -0.6481
 7992TIP3   OH248170   6.063   1.079   1.051 -0.2436  0.1205  0.1246
 7992TIP3    H148171   6.120   1.142   1.009 -1.8407  1.7286  0.2357
 7992TIP3    H248172   6.015   1.038   0.979 -1.3116  1.1992  0.1924
 7993TIP3   OH248173   0.934   6.192   1.534 -0.3019  0.0559  0.4707
 7993TIP3    H148174   1.024   6.219   1.518 -1.3007  2.6593 -1.3231
 7993TIP3    H248175   0.909   6.237   1.615 -0.4380  0.5059  0.1787
 7994TIP3   OH248176   5.541   6.597   3.017  0.3216  0.2960  0.2885
 7994TIP3    H148177   5.446   6.592   3.003  0.1418  0.8324  1.2196
 7994TIP3    H248178   5.553   6.568   3.107  0.9952  0.6633  0.3194
 7995TIP3   OH248179   2.779   3.087   4.350  0.0981 -0.0945  0.5871
 7995TIP3    H148180   2.828   3.099   4.269 -1.1041  0.4479 -0.0717
 7995TIP3    H248181   2.710   3.025   4.329 -0.2929  0.1337  1.1588
 7996TIP3   OH248182   5.186   0.538   0.878 -0.0786 -0.4053  0.1583
 7996TIP3    H148183   5.152   0.527   0.967  0.2508 -0.6666  0.2527
 7996TIP3    H248184   5.226   0.626   0.879 -0.1196 -0.3875  0.2559
 7997TIP3   OH248185   0.834   0.345   2.333 -0.1552 -0.2929 -0.6286
 7997TIP3    H148186   0.929   0.333   2.338 -0.3436 -3.1808 -1.5885
 7997TIP3    H248187   0.818   0.371   2.242 -0.3443 -1.1285 -0.8433
 7998TIP3   OH248188   0.540   4.656   3.991 -0.0351  0.1416 -1.3151
 7998TIP3    H148189   0.475   4.718   4.022  0.5073  0.2131 -0.2913
 7998TIP3    H248190   0.493   4.599   3.930 -1.0101  0.2922 -0.7148
 7999TIP3   OH248191   3.947   1.861   1.087  0.0474 -0.3940  0.0066
 7999TIP3    H148192   4.006   1.933   1.067 -1.1672  1.7982  3.3424
 7999TIP3    H248193   3.884   1.859   1.015  0.4171  1.5672 -0.4048
 8000TIP3   OH248194   6.643   5.026   2.186  0.3764  0.7685  0.3126
 8000TIP3    H148195   6.724   4.992   2.226 -0.2738  0.6207  1.5678
 8000TIP3    H248196   6.629   5.110   2.229 -0.2493  0.6903  0.2618
 8001TIP3   OH248197   5.063   4.962   0.817  0.3218  0.0272  0.1979
 8001TIP3    H148198   5.087   5.053   0.831 -1.6086  0.6196 -0.0930
 8001TIP3    H248199   5.098   4.940   0.731  1.4927  0.2262  0.6132
 8002TIP3   OH248200   5.063   1.505   2.491 -0.1546  0.5115 -0.0665
 8002TIP3    H148201   5.138   1.507   2.550 -0.3240  0.4331  0.1550
 8002TIP3    H248202   5.029   1.415   2.499  1.1696 -0.2155 -1.9978
 8003TIP3   OH248203   4.436   2.058   2.384  0.4442 -0.5214  0.2242
 8003TIP3    H148204   4.454   1.973   2.425  3.7172  0.3760  0.9367
 8003TIP3    H248205   4.410   2.036   2.294  0.4475 -2.2971  0.6156
 8004TIP3   OH248206   4.478   5.996   3.840 -0.0673 -0.2026 -0.2919
 8004TIP3    H148207   4.551   5.979   3.899 -0.2029 -1.1696 -0.3872
 8004TIP3    H248208   4.418   6.051   3.891  0.2449 -0.2689  0.1487
 8005TIP3   OH248209   4.002   3.858   2.154  0.4019 -0.1009  0.0320
 8005TIP3    H148210   3.931   3.796   2.139 -0.0262  0.3589  0.1029
 8005TIP3    H248211   3.978   3.935   2.101 -0.3703  0.9848  1.8550
 8006TIP3   OH248212   0.006   1.220   0.922  0.0027  0.0503 -0.0635
 8006TIP3    H148213   0.096   1.249   0.939  0.7808 -0.5075 -2.7793
 8006TIP3    H248214   0.016   1.133   0.884 -1.6894  0.0247 -0.5132
 8007TIP3   OH248215   4.379   3.945   1.754  0.0842 -0.0210 -0.0446
 8007TIP3    H148216   4.421   3.926   1.670 -1.3693 -0.3018 -0.7449
 8007TIP3    H248217   4.435   4.012   1.794  1.2685 -0.5019 -0.8367
 8008TIP3   OH248218   4.125   0.573   0.999  0.3276  0.9216  0.6760
 8008TIP3    H148219   4.163   0.609   0.919  0.0136 -0.9124 -0.3322
 8008TIP3    H248220   4.060   0.638   1.025 -0.3134  1.0625 -1.1618
 8009TIP3   OH248221   1.271   4.646   2.404 -0.6134 -0.1074 -0.3542
 8009TIP3    H148222   1.303   4.567   2.361 -0.6203 -0.0444 -0.4758
 8009TIP3    H248223   1.264   4.622   2.496 -1.6648 -0.5826 -0.5440
 8010TIP3   OH248224   6.362   0.247   3.224 -0.0076 -0.0733 -0.3173
 8010TIP3    H148225   6.393   0.275   3.138  0.5570 -0.5148 -0.2653
 8010TIP3    H248226   6.290   0.188   3.206  0.2201 -0.2967 -0.4925
 8011TIP3   OH248227   4.146   3.581   1.102 -0.4163 -0.2896 -0.3532
 8011TIP3    H148228   4.060   3.546   1.081  0.1513 -2.1004  0.1740
 8011TIP3    H248229   4.176   3.530   1.177  0.4897  1.3445  0.4468
 8012TIP3   OH248230   1.456   2.190   2.112  0.2412  0.3016 -0.1859
 8012TIP3    H148231   1.396   2.115   2.111  0.5259  0.0693 -0.0709
 8012TIP3    H248232   1.507   2.178   2.192  0.3066  0.6060 -0.1832
 8013TIP3   OH248233   4.507   5.399   1.914  0.9701 -0.0960  0.1775
 8013TIP3    H148234   4.473   5.315   1.946  0.7872 -0.4410 -0.8745
 8013TIP3    H248235   4.582   5.418   1.971  1.7230 -1.5570 -0.2739
 8014TIP3   OH248236   4.388   6.641   2.191  0.3153 -0.1640 -0.2362
 8014TIP3    H148237   4.349   6.660   2.276  1.0378  1.2877 -0.1995
 8014TIP3    H248238   4.410   6.548   2.195  0.9860  0.0349  1.4485
 8015TIP3   OH248239   3.778   3.641   1.726  0.0038 -0.3230  0.3967
 8015TIP3    H148240   3.746   3.596   1.648  1.4477 -2.2394  0.8222
 8015TIP3    H248241   3.700   3.657   1.779 -0.7143 -1.1138 -0.4047
 8016TIP3   OH248242   0.685   6.669   1.908  0.1442 -0.2101  0.3833
 8016TIP3    H148243   0.701   6.665   2.002 -0.3626  0.0819  0.4827
 8016TIP3    H248244   0.633   6.749   1.895 -1.7925 -1.4496  0.1441
 8017TIP3   OH248245   1.412   2.817   1.740 -0.0629  0.2299  0.1239
 8017TIP3    H148246   1.381   2.899   1.776  0.5485 -0.1693  1.6485
 8017TIP3    H248247   1.333   2.765   1.725 -0.3674  0.6476  0.2940
 8018TIP3   OH248248   0.223   1.135   1.636  0.6357 -0.4992 -0.1285
 8018TIP3    H148249   0.145   1.102   1.590  0.9137 -0.9842 -0.2672
 8018TIP3    H248250   0.288   1.145   1.567  0.1600  1.6996 -0.3244
 8019TIP3   OH248251   5.528   2.447   1.421 -0.2175 -0.2849  0.0821
 8019TIP3    H148252   5.595   2.480   1.361 -0.1806 -0.5069  0.0012
 8019TIP3    H248253   5.447   2.489   1.392  0.0105  0.5700  0.6427
 8020TIP3   OH248254   4.172   1.298   0.706 -0.3195 -0.7235 -0.1157
 8020TIP3    H148255   4.170   1.394   0.702  0.8877 -0.6955 -0.1692
 8020TIP3    H248256   4.248   1.273   0.654  0.3637 -1.6186  1.2681
 8021TIP3   OH248257   4.153   3.850   2.869  0.0641 -0.6752  0.6422
 8021TIP3    H148258   4.206   3.792   2.924  0.8469  0.6107  1.2917
 8021TIP3    H248259   4.204   3.860   2.788  0.7399  0.3646  1.1701
 8022TIP3   OH248260   3.524   2.119   0.658  0.4435 -0.9014  0.2315
 8022TIP3    H148261   3.429   2.113   0.645  0.2519  1.2666  0.2833
 8022TIP3    H248262   3.543   2.057   0.727 -1.4074  0.5509  2.1818
 8023TIP3   OH248263   4.926   2.246   1.017 -0.4895 -0.0095  0.6405
 8023TIP3    H148264   4.969   2.310   0.960 -0.1478 -0.4512  0.3916
 8023TIP3    H248265   4.950   2.272   1.105  0.4042 -0.3200  0.4993
 8024TIP3   OH248266   2.169   3.160   3.633 -0.0563  0.4380  0.4069
 8024TIP3    H148267   2.125   3.075   3.633  0.2092  0.3002  0.6778
 8024TIP3    H248268   2.147   3.198   3.547  0.9809 -0.5020 -0.3005
 8025TIP3   OH248269   4.777   0.680   2.400  0.3569  0.4403  0.2273
 8025TIP3    H148270   4.741   0.620   2.465  1.8437 -0.7497 -0.0007
 8025TIP3    H248271   4.835   0.738   2.449  1.5226 -0.4931  0.0150
 8026TIP3   OH248272   4.473   2.422   2.546  0.1915 -0.6066  0.4556
 8026TIP3    H148273   4.483   2.492   2.611 -0.4029  1.6819 -1.7502
 8026TIP3    H248274   4.379   2.409   2.539  0.0566  0.8787 -1.4955
 8027TIP3   OH248275   3.632   6.271   1.793  0.1719 -0.2951  0.6186
 8027TIP3    H148276   3.715   6.250   1.836  0.0612 -1.6842  0.1731
 8027TIP3    H248277   3.634   6.223   1.711 -1.4910 -1.1676  1.0447
 8028TIP3   OH248278   3.743   2.354   1.965  0.3548 -0.7506 -0.2291
 8028TIP3    H148279   3.744   2.339   2.060  2.1531  0.5321  0.0002
 8028TIP3    H248280   3.767   2.446   1.955 -0.9759 -0.5348 -1.9193
 8029TIP3   OH248281   2.265   4.768   1.248  0.2475  0.6731  0.3774
 8029TIP3    H148282   2.194   4.706   1.262  0.0516  0.3855 -1.6203
 8029TIP3    H248283   2.220   4.852   1.232  0.2367  0.2825 -1.9615
 8030TIP3   OH248284   5.187   0.942   3.581  0.4992  0.6641  0.0356
 8030TIP3    H148285   5.098   0.908   3.583  1.0471 -0.8620 -0.5379
 8030TIP3    H248286   5.182   1.024   3.630 -1.4164  1.1253 -0.8278
 8031TIP3   OH248287   0.244   5.316   3.230 -0.3619  0.3316  0.1665
 8031TIP3    H148288   0.199   5.241   3.190  0.4916  0.4863 -1.1381
 8031TIP3    H248289   0.181   5.352   3.292 -0.9360 -1.2190  0.5173
 8032TIP3   OH248290   3.421   2.351   3.208  0.3098  0.2941 -0.0260
 8032TIP3    H148291   3.449   2.436   3.174 -3.3222  1.5651 -0.3233
 8032TIP3    H248292   3.438   2.289   3.136 -0.0667  1.4510 -1.1436
 8033TIP3   OH248293   1.203   2.408   2.033  0.5620  0.2256  0.5337
 8033TIP3    H148294   1.292   2.443   2.029  0.2900  0.7806 -1.7237
 8033TIP3    H248295   1.192   2.359   1.952 -1.1556  0.0822  0.8104
 8034TIP3   OH248296   1.111   0.247   0.664  0.3932  0.0786 -0.1949
 8034TIP3    H148297   1.060   0.166   0.667  1.1709 -0.5076 -1.5524
 8034TIP3    H248298   1.100   0.279   0.574 -1.6439  2.6984  0.8450
 8035TIP3   OH248299   1.841   3.934   1.765 -0.1145  0.1773  0.0583
 8035TIP3    H148300   1.792   3.867   1.811  1.3104 -0.1780  1.1420
 8035TIP3    H248301   1.775   3.986   1.719 -1.7933  1.2335  3.3505
 8036TIP3   OH248302   2.701   2.775   1.087 -0.3246 -0.2939 -0.5394
 8036TIP3    H148303   2.730   2.702   1.140 -2.1390  1.9814  4.2291
 8036TIP3    H248304   2.609   2.756   1.068 -1.4986  1.3868  2.6551
 8037TIP3   OH248305   1.412   0.570   2.492 -0.0483 -0.0528  0.2745
 8037TIP3    H148306   1.420   0.489   2.544 -0.3248  0.4266  1.0876
 8037TIP3    H248307   1.414   0.540   2.401 -2.2926 -1.2136  0.5407
 8038TIP3   OH248308   0.661   4.613   3.145  0.8806  0.2571  0.5204
 8038TIP3    H148309   0.636   4.706   3.141 -0.2064  0.0089  1.1972
 8038TIP3    H248310   0.650   4.581   3.055  0.6913  0.6386  0.4057
 8039TIP3   OH248311   3.524   3.302   1.911  0.6515  0.1697  0.3936
 8039TIP3    H148312   3.457   3.237   1.932 -0.7738  1.2498 -0.5404
 8039TIP3    H248313   3.573   3.314   1.993 -1.4528  0.6128  1.6649
 8040TIP3   OH248314   1.715   4.001   2.719 -0.2110 -0.0362 -0.3466
 8040TIP3    H148315   1.681   4.057   2.789  0.4393 -1.8904  1.5701
 8040TIP3    H248316   1.691   4.046   2.638 -2.4284  1.4183  1.0140
 8041TIP3   OH248317   4.591   4.150   1.511 -0.0647  0.0647 -0.0625
 8041TIP3    H148318   4.501   4.182   1.509 -0.9633 -2.2994 -0.3087
 8041TIP3    H248319   4.588   4.071   1.565  1.9942  0.2531  0.4127
 8042TIP3   OH248320   2.465   0.619   2.976  0.1217  0.9677  0.3699
 8042TIP3    H148321   2.514   0.653   2.901 -0.0130  2.9213  1.1301
 8042TIP3    H248322   2.531   0.586   3.036  0.3166  0.7989  0.0641
 8043TIP3   OH248323   0.235   2.005   1.238 -0.6391  0.2313  0.1166
 8043TIP3    H148324   0.316   1.989   1.286 -1.0383  1.3314  1.1803
 8043TIP3    H248325   0.166   1.999   1.304 -1.2902  0.7407 -0.5018
 8044TIP3   OH248326   5.779   0.534   0.559  0.4469  0.8060 -0.4215
 8044TIP3    H148327   5.702   0.498   0.516 -1.3941 -0.3195  3.3809
 8044TIP3    H248328   5.767   0.629   0.555 -1.2390  0.6437  0.1380
 8045TIP3   OH248329   0.859   6.629   1.687 -0.2505 -0.2200  0.0939
 8045TIP3    H148330   0.827   6.562   1.627  0.9946 -0.3263 -0.4943
 8045TIP3    H248331   0.797   6.628   1.760 -1.8029 -0.0802 -1.1816
 8046TIP3   OH248332   0.760   3.603   3.654 -0.4551  0.0500  0.2280
 8046TIP3    H148333   0.787   3.655   3.730 -0.1818  1.1292 -0.5794
 8046TIP3    H248334   0.689   3.653   3.615  0.1005  0.0522 -0.8168
 8047TIP3   OH248335   4.334   2.804   1.120  0.0298  0.3840  0.6831
 8047TIP3    H148336   4.359   2.896   1.133  1.3249  0.2335 -0.5715
 8047TIP3    H248337   4.244   2.799   1.154 -0.3203  2.2866  0.1678
 8048TIP3   OH248338   4.668   6.428   1.302  0.0548 -0.0690  0.1426
 8048TIP3    H148339   4.758   6.400   1.286 -0.4056 -2.3898  1.2645
 8048TIP3    H248340   4.616   6.376   1.241 -0.6103  0.7059  0.0311
 8049TIP3   OH248341   0.807   5.031   1.239  0.0715  0.0745 -0.2147
 8049TIP3    H148342   0.743   5.068   1.178 -1.4487  0.0225  1.2656
 8049TIP3    H248343   0.758   5.019   1.320  1.5090 -1.6930  0.4566
 8050TIP3   OH248344   4.596   2.912   1.580 -0.2533  0.2778  0.2999
 8050TIP3    H148345   4.519   2.925   1.525 -0.0933  2.0854  0.4499
 8050TIP3    H248346   4.560   2.884   1.664 -0.7809  1.2399  0.4116
 8051TIP3   OH248347   5.576   6.501   2.377 -0.1057 -0.2906 -0.0276
 8051TIP3    H148348   5.569   6.471   2.287 -1.3432  1.0020 -0.3836
 8051TIP3    H248349   5.612   6.590   2.371  1.8420 -0.9439  0.9064
 8052TIP3   OH248350   2.570   5.375   1.980 -0.1863 -0.0291  0.1959
 8052TIP3    H148351   2.573   5.280   1.989  1.0462 -0.0612 -0.3678
 8052TIP3    H248352   2.476   5.396   1.977 -0.4697 -1.2320  0.1309
 8053TIP3   OH248353   6.230   5.366   2.490 -0.2969  0.3293  0.6958
 8053TIP3    H148354   6.250   5.400   2.403  3.0844 -1.3862  0.6556
 8053TIP3    H248355   6.153   5.311   2.476  0.4552 -0.3114 -1.3523
 8054TIP3   OH248356   1.503   0.941   1.417 -0.0821 -0.0522  0.1743
 8054TIP3    H148357   1.487   0.993   1.496 -0.5568 -0.2142  0.1840
 8054TIP3    H248358   1.425   0.887   1.406  0.7472 -1.4032  0.6412
 8055TIP3   OH248359   1.572   4.842   1.921  0.2012  0.3778  0.2636
 8055TIP3    H148360   1.529   4.768   1.963 -1.7512  0.2365 -1.7706
 8055TIP3    H248361   1.563   4.914   1.984 -0.4155 -0.4179  1.1070
 8056TIP3   OH248362   2.735   0.891   0.888 -0.4913 -0.7416  0.4340
 8056TIP3    H148363   2.792   0.910   0.963 -1.4030  1.4741  0.6361
 8056TIP3    H248364   2.686   0.812   0.914  1.1964 -1.6738  0.9504
 8057TIP3   OH248365   0.112   0.355   0.693 -0.5680 -0.5891  0.1735
 8057TIP3    H148366   0.071   0.283   0.646  1.1625 -1.0716 -0.6586
 8057TIP3    H248367   0.045   0.423   0.696 -1.6643 -1.6076 -0.4892
 8058TIP3   OH248368   5.051   1.430   1.343 -0.0224 -0.1538 -0.1578
 8058TIP3    H148369   5.036   1.387   1.427  0.0861  0.7315  0.3302
 8058TIP3    H248370   4.985   1.499   1.339  2.0174  2.0191  0.7716
 8059TIP3   OH248371   4.338   2.904   1.475  0.6024 -0.2839  0.2241
 8059TIP3    H148372   4.255   2.924   1.432  1.3922  0.3316 -1.0890
 8059TIP3    H248373   4.314   2.860   1.556 -1.0366  1.0000  0.4781
 8060TIP3   OH248374   5.721   1.314   2.437 -0.5770 -0.4129 -0.5227
 8060TIP3    H148375   5.785   1.347   2.500 -1.6830  0.0198  0.4128
 8060TIP3    H248376   5.727   1.375   2.363 -1.1307  0.6729  0.3095
 8061TIP3   OH248377   0.992   5.622   3.249  0.1754  0.1345  0.4771
 8061TIP3    H148378   0.943   5.671   3.183  2.7102  1.6452 -0.4290
 8061TIP3    H248379   0.998   5.681   3.323 -1.0218 -0.8191  1.3636
 8062TIP3   OH248380   4.827   5.066   2.108  0.1337 -0.3184 -0.2542
 8062TIP3    H148381   4.748   5.119   2.095  0.7339  0.4318 -1.0009
 8062TIP3    H248382   4.799   4.993   2.162 -1.1295 -0.1965 -0.7163
 8063TIP3   OH248383   0.453   3.692   2.017  0.5492  0.2386 -0.1804
 8063TIP3    H148384   0.362   3.667   2.036  0.8522 -0.8186 -0.0158
 8063TIP3    H248385   0.457   3.696   1.921  0.3379  0.2390 -0.1906
 8064TIP3   OH248386   1.283   1.351   0.883  0.6753  0.0953  0.3291
 8064TIP3    H148387   1.347   1.381   0.819  0.1215  2.8445  0.9232
 8064TIP3    H248388   1.210   1.413   0.875 -1.2398 -1.9430  0.7927
 8065TIP3   OH248389   2.960   1.362   2.330 -0.9824  0.0701 -0.7841
 8065TIP3    H148390   2.910   1.308   2.390 -1.8136 -0.5648 -1.9963
 8065TIP3    H248391   2.918   1.448   2.334  0.9267  1.0042  1.8586
 8066TIP3   OH248392   1.449   0.477   3.411  0.3242  0.6064 -0.2668
 8066TIP3    H148393   1.454   0.416   3.338  0.3341 -0.1781  0.3668
 8066TIP3    H248394   1.516   0.542   3.394  1.1554 -0.2562 -0.3422
 8067TIP3   OH248395   2.636   4.548   3.251 -0.4674 -0.6376  0.1412
 8067TIP3    H148396   2.640   4.584   3.163 -1.6098 -2.1361 -0.5752
 8067TIP3    H248397   2.718   4.575   3.293 -0.0220  0.2983 -1.2856
 8068TIP3   OH248398   4.150   4.890   1.661 -0.4041 -0.2206 -0.2932
 8068TIP3    H148399   4.067   4.848   1.638  1.3506 -3.6775 -0.9550
 8068TIP3    H248400   4.187   4.918   1.577  0.2700 -1.1873 -0.3360
 8069TIP3   OH248401   3.983   0.812   4.263 -0.5580  0.1500 -1.2553
 8069TIP3    H148402   3.998   0.900   4.228  0.9762 -0.0994 -1.3131
 8069TIP3    H248403   3.901   0.784   4.223 -1.3967  1.7753 -0.7738
 8070TIP3   OH248404   6.184   1.380   3.163  0.1757 -0.7052 -0.3768
 8070TIP3    H148405   6.213   1.419   3.081 -0.8501  0.9805  0.0177
 8070TIP3    H248406   6.191   1.285   3.149  2.3023 -0.4274 -1.5385
 8071TIP3   OH248407   2.802   2.301   1.995  0.1259 -0.6175 -0.0711
 8071TIP3    H148408   2.831   2.210   1.997  1.4462 -0.2034  0.7803
 8071TIP3    H248409   2.865   2.345   1.936  0.2482 -0.0296  0.4854
 8072TIP3   OH248410   3.585   5.395   3.247  0.4358  0.5497  0.6731
 8072TIP3    H148411   3.666   5.355   3.215 -0.3767  0.4298 -1.4370
 8072TIP3    H248412   3.579   5.479   3.200 -1.7160 -0.4274 -1.0081
 8073TIP3   OH248413   0.848   5.696   3.026  0.0495 -0.3226 -0.4734
 8073TIP3    H148414   0.790   5.744   3.086  0.0991 -1.2377  0.3383
 8073TIP3    H248415   0.800   5.616   3.005  0.5382 -0.5609 -0.7053
 8074TIP3   OH248416   6.108   5.635   2.973  0.3384  0.4061  0.5625
 8074TIP3    H148417   6.164   5.578   3.026 -0.3231  0.2872  1.1592
 8074TIP3    H248418   6.158   5.715   2.962  2.0542 -0.8858 -1.8002
 8075TIP3   OH248419   3.235   6.422   4.258  0.3542 -0.0805  0.2683
 8075TIP3    H148420   3.248   6.336   4.217  0.4916 -0.1682  0.4983
 8075TIP3    H248421   3.324   6.453   4.275  0.3902  0.8936 -1.4488
 8076TIP3   OH248422   1.704   1.200   1.289  0.4769 -0.5369 -0.1726
 8076TIP3    H148423   1.645   1.125   1.296  1.4457 -1.1409  2.6391
 8076TIP3    H248424   1.756   1.182   1.210  0.3784 -2.5998  0.1771
 8077TIP3   OH248425   0.365   6.507   2.250  0.1197 -0.6659 -0.4505
 8077TIP3    H148426   0.300   6.445   2.216  1.8578 -1.1262 -3.2632
 8077TIP3    H248427   0.376   6.481   2.342 -0.7941 -3.1201 -0.9435
 8078TIP3   OH248428   0.081   3.649   2.525 -0.6846 -0.2647 -0.1322
 8078TIP3    H148429   0.157   3.698   2.492 -1.4778  0.6450 -0.6666
 8078TIP3    H248430   0.040   3.612   2.447 -1.2556 -0.0545  0.0588
 8079TIP3   OH248431   6.269   1.761   1.420  0.0728  0.2274 -0.2149
 8079TIP3    H148432   6.225   1.677   1.403 -0.2031  0.3780 -0.2498
 8079TIP3    H248433   6.212   1.826   1.378 -0.8138  0.6523  1.5643
 8080TIP3   OH248434   3.298   2.075   2.829 -0.2546  0.7764 -0.3723
 8080TIP3    H148435   3.249   2.117   2.758  1.0092  1.0004 -1.1500
 8080TIP3    H248436   3.235   2.016   2.871 -0.1478 -2.4453 -4.1944
 8081TIP3   OH248437   1.697   0.591   0.831 -0.5012  0.3801 -0.5515
 8081TIP3    H148438   1.737   0.664   0.877  0.1055  0.0855 -0.5957
 8081TIP3    H248439   1.620   0.628   0.790 -0.3024  0.9531 -0.4221
 8082TIP3   OH248440   1.176   0.384   4.450  0.0444 -0.0287 -0.1035
 8082TIP3    H148441   1.185   0.385   4.355 -1.5316 -1.0674 -0.2996
 8082TIP3    H248442   1.149   0.474   4.472 -0.3894  0.0025 -0.7376
 8083TIP3   OH248443   2.876   4.176   3.727 -0.1834 -0.2710  0.3263
 8083TIP3    H148444   2.889   4.101   3.785 -2.5846  0.0686  1.4089
 8083TIP3    H248445   2.821   4.143   3.657  0.0393  0.1177 -0.0322
 8084TIP3   OH248446   1.014   6.671   0.713 -0.3818 -0.2722  0.6162
 8084TIP3    H148447   0.932   6.650   0.669 -0.8255  1.8029  0.3399
 8084TIP3    H248448   0.994   6.663   0.806 -1.0503  0.6534  0.5645
 8085TIP3   OH248449   0.659   6.679   3.621 -0.0431 -0.3786  0.5497
 8085TIP3    H148450   0.625   6.597   3.658 -0.9833  0.2864  1.2148
 8085TIP3    H248451   0.622   6.747   3.677  1.1818  0.4752  0.3465
 8086TIP3   OH248452   3.118   5.765   4.411  0.4490  0.5635  0.0145
 8086TIP3    H148453   3.195   5.820   4.400  1.7054 -1.3287 -1.1739
 8086TIP3    H248454   3.099   5.768   4.505  2.3631  0.5988  0.4362
 8087TIP3   OH248455   5.823   6.284   1.877 -0.7436 -0.3769  0.0378
 8087TIP3    H148456   5.829   6.189   1.871 -1.9023 -0.3639 -2.5301
 8087TIP3    H248457   5.740   6.306   1.834 -0.6195  1.7901  0.7657
 8088TIP3   OH248458   0.414   3.099   0.772 -0.3442  0.1072 -0.4250
 8088TIP3    H148459   0.474   3.082   0.845 -1.4883 -1.0853  0.2870
 8088TIP3    H248460   0.400   3.193   0.773 -0.8754  0.0420  1.3610
 8089TIP3   OH248461   3.758   1.640   3.442 -0.1647 -0.2770  0.1328
 8089TIP3    H148462   3.663   1.641   3.437 -0.1264  0.9634 -1.6280
 8089TIP3    H248463   3.780   1.563   3.494 -2.0419 -2.3626 -1.9690
 8090TIP3   OH248464   4.096   0.423   2.021 -0.2441 -0.2574 -0.1035
 8090TIP3    H148465   4.156   0.454   2.088 -1.3137  0.9656  0.3220
 8090TIP3    H248466   4.149   0.367   1.965  0.9236 -0.4210  1.1267
 8091TIP3   OH248467   4.805   1.794   1.817  0.1472  0.5822  0.1440
 8091TIP3    H148468   4.894   1.758   1.821  1.2217  2.9113 -0.7446
 8091TIP3    H248469   4.748   1.718   1.807  2.1249 -0.9148 -0.2014
 8092TIP3   OH248470   3.852   1.662   3.832 -0.0472 -0.4689 -1.0102
 8092TIP3    H148471   3.942   1.634   3.853  0.8227  2.5623 -0.1593
 8092TIP3    H248472   3.800   1.632   3.907  0.8801  0.3376  0.0029
 8093TIP3   OH248473   2.510   6.473   2.331  0.1894 -0.3983 -0.3543
 8093TIP3    H148474   2.513   6.550   2.274 -2.2179  0.2186  0.2585
 8093TIP3    H248475   2.425   6.433   2.313  0.2971 -1.4299  1.2504
 8094TIP3   OH248476   0.469   0.804   0.817 -0.2829  0.4106  0.4989
 8094TIP3    H148477   0.497   0.803   0.908  1.3967 -0.1961  0.0131
 8094TIP3    H248478   0.549   0.787   0.767 -1.3393 -0.2481 -1.0408
 8095TIP3   OH248479   1.231   2.400   3.160 -0.4820  0.5022  0.1390
 8095TIP3    H148480   1.145   2.360   3.175 -0.5947  1.0732  1.1152
 8095TIP3    H248481   1.220   2.453   3.082 -1.1167  0.8209  0.4337
 8096TIP3   OH248482   6.682   2.705   1.462 -0.0590  0.6669  0.5843
 8096TIP3    H148483   6.638   2.653   1.529 -1.3174  1.1668  0.1806
 8096TIP3    H248484   6.701   2.642   1.392 -0.1257  0.4354  0.7715
 8097TIP3   OH248485   0.912   4.529   2.470  0.1777  0.2698 -0.5096
 8097TIP3    H148486   0.909   4.452   2.527  0.4716 -0.3697 -1.3262
 8097TIP3    H248487   0.943   4.495   2.386  1.1411  1.4332 -0.6548
 8098TIP3   OH248488   4.708   6.387   2.608  0.1152 -0.2344  0.5536
 8098TIP3    H148489   4.793   6.345   2.593  0.0327 -0.4438  0.6623
 8098TIP3    H248490   4.680   6.417   2.522 -0.0040 -0.7476  0.4091
 8099TIP3   OH248491   4.954   5.988   2.825  0.6549  0.2447  0.5366
 8099TIP3    H148492   4.948   6.075   2.786 -1.5891  0.1084  0.4334
 8099TIP3    H248493   4.946   5.928   2.751 -1.2057 -0.0136  0.9069
 8100TIP3   OH248494   2.331   0.326   3.873 -0.3073 -0.0912  0.2736
 8100TIP3    H148495   2.290   0.349   3.957 -0.6481 -0.7735  0.2953
 8100TIP3    H248496   2.364   0.410   3.840 -0.2484  0.2006  1.0448
 8101TIP3   OH248497   0.828   4.503   0.897  0.3228 -0.1228 -0.1079
 8101TIP3    H148498   0.795   4.521   0.985  1.5844  1.4196  0.0910
 8101TIP3    H248499   0.808   4.411   0.882 -0.9192 -0.1297  1.3379
 8102TIP3   OH248500   3.210   4.019   4.513 -0.0056  0.0670 -0.1446
 8102TIP3    H148501   3.273   4.078   4.470 -1.4171  0.9482 -1.0754
 8102TIP3    H248502   3.151   4.077   4.560 -1.0174 -0.6494 -0.5060
 8103TIP3   OH248503   1.588   3.487   3.744 -0.1211  0.5233  0.1182
 8103TIP3    H148504   1.504   3.523   3.713 -0.3001  0.9298  1.0538
 8103TIP3    H248505   1.574   3.471   3.837  0.7807  0.3948  0.2367
 8104TIP3   OH248506   6.092   0.223   1.559  0.3776 -0.4103  0.0718
 8104TIP3    H148507   6.133   0.186   1.481  0.9095  0.8456 -0.2614
 8104TIP3    H248508   6.098   0.318   1.547  1.2360 -0.1686  2.0151
 8105TIP3   OH248509   5.809   2.002   1.066  0.1167  0.7397 -0.0797
 8105TIP3    H148510   5.866   1.926   1.053  0.9112  1.4057 -0.5328
 8105TIP3    H248511   5.735   1.986   1.007  0.3914  0.4315 -0.3479
 8106TIP3   OH248512   2.083   3.257   1.837  0.0738 -0.0871 -0.1228
 8106TIP3    H148513   2.156   3.197   1.851 -0.2843 -0.3554  0.6559
 8106TIP3    H248514   2.108   3.336   1.884 -0.3517 -0.3617  0.5841
 8107TIP3   OH248515   1.657   6.341   3.577  0.1065 -0.3531  0.2619
 8107TIP3    H148516   1.674   6.405   3.508  0.9142 -0.2036  0.5898
 8107TIP3    H248517   1.617   6.267   3.531 -2.0328  0.8506  0.0607
 8108TIP3   OH248518   3.592   6.225   4.043 -0.1666  0.4624 -0.0030
 8108TIP3    H148519   3.522   6.209   4.107  1.1155  0.2078  1.4089
 8108TIP3    H248520   3.620   6.315   4.060  1.4270 -0.1871  1.1554
 8109TIP3   OH248521   0.799   6.426   0.782 -0.1840  0.6861 -0.2505
 8109TIP3    H148522   0.814   6.510   0.824  0.7169  0.1637  0.5258
 8109TIP3    H248523   0.745   6.377   0.845  0.8045  0.0546  0.1199
 8110TIP3   OH248524   0.916   3.976   0.644  0.0912 -0.1300  0.3017
 8110TIP3    H148525   0.918   3.928   0.727  0.1911 -0.6064  0.0306
 8110TIP3    H248526   0.955   3.915   0.581 -1.6845 -0.5049 -0.4822
 8111TIP3   OH248527   4.021   3.528   3.683  0.0615  0.0634 -0.1479
 8111TIP3    H148528   3.947   3.576   3.644 -0.2425 -0.8309 -0.7037
 8111TIP3    H248529   4.002   3.527   3.777 -0.5304  0.0305 -0.2633
 8112TIP3   OH248530   3.798   4.167   4.515 -0.0503  0.7208  0.5187
 8112TIP3    H148531   3.852   4.146   4.592  0.8365 -0.3321 -0.3527
 8112TIP3    H248532   3.723   4.107   4.522 -0.1918  0.9280  0.7882
 8113TIP3   OH248533   0.236   5.253   1.672 -0.0339 -0.4773  0.1680
 8113TIP3    H148534   0.297   5.229   1.602 -1.2624 -0.1690 -1.0636
 8113TIP3    H248535   0.153   5.213   1.646 -0.9107  0.9443  0.6355
 8114TIP3   OH248536   3.504   5.852   0.972 -0.0844  0.2156  0.1470
 8114TIP3    H148537   3.577   5.909   0.948  0.7083 -0.2734  1.2549
 8114TIP3    H248538   3.444   5.856   0.898  1.2294  0.3689 -0.9500
 8115TIP3   OH248539   2.315   5.491   1.998  0.1471 -0.0695 -0.1975
 8115TIP3    H148540   2.281   5.580   1.988  0.2240  0.0064  0.1756
 8115TIP3    H248541   2.244   5.444   2.042 -0.8572 -0.8292 -2.4731
 8116TIP3   OH248542   2.516   5.736   3.998  0.1552  0.1450 -0.1766
 8116TIP3    H148543   2.472   5.811   3.959 -0.0238 -0.7514 -1.7909
 8116TIP3    H248544   2.593   5.773   4.041 -1.7420  1.6503  2.1096
 8117TIP3   OH248545   3.511   6.281   3.092 -0.1461  0.4290 -0.5271
 8117TIP3    H148546   3.569   6.207   3.076 -0.4366 -0.3477  1.6404
 8117TIP3    H248547   3.559   6.336   3.154 -1.9061 -0.6455  1.9821
 8118TIP3   OH248548   0.543   5.813   3.477  0.5730  0.2653  0.1997
 8118TIP3    H148549   0.512   5.903   3.467  0.6838  0.1339 -2.0384
 8118TIP3    H248550   0.613   5.805   3.411  0.4284 -1.5144  0.2175
 8119TIP3   OH248551   1.875   2.885   3.377  0.0943  0.3232  0.0200
 8119TIP3    H148552   1.819   2.933   3.316 -0.5068 -2.0420 -1.3873
 8119TIP3    H248553   1.824   2.808   3.401  1.2508  0.0525  1.7579
 8120TIP3   OH248554   2.627   3.348   3.710 -0.1962  0.3814 -0.5207
 8120TIP3    H148555   2.588   3.331   3.625  0.7704  1.9639 -1.3284
 8120TIP3    H248556   2.623   3.444   3.719  0.1867  0.2837  0.9799
 8121TIP3   OH248557   5.208   5.544   3.276 -0.2640 -0.1325 -0.1365
 8121TIP3    H148558   5.170   5.512   3.195 -0.3422  0.3620 -0.2971
 8121TIP3    H248559   5.187   5.638   3.278  0.7916  0.1268 -0.1548
 8122TIP3   OH248560   6.333   0.469   9.776 -0.2338  0.1796 -0.7969
 8122TIP3    H148561   6.279   0.532   9.824 -0.7536 -1.3152  0.7004
 8122TIP3    H248562   6.423   0.499   9.789 -0.2037 -1.0451  2.6262
 8123TIP3   OH248563   2.831   3.658   2.525 -0.3703  0.0853  0.3701
 8123TIP3    H148564   2.836   3.753   2.523 -2.1449  0.2056 -0.8951
 8123TIP3    H248565   2.739   3.639   2.546  0.2988 -1.3916  2.2780
 8124TIP3   OH248566   6.394   2.347   1.319  0.2580  0.1910  0.6352
 8124TIP3    H148567   6.436   2.424   1.281  0.9731 -0.7685 -0.5862
 8124TIP3    H248568   6.300   2.362   1.305  0.4396  0.4340 -0.4059
 8125TIP3   OH248569   5.444   5.385   1.557  0.2279 -0.1032 -0.0071
 8125TIP3    H148570   5.424   5.307   1.505  0.9988 -1.0413  1.0521
 8125TIP3    H248571   5.361   5.431   1.565 -0.1452 -0.5733 -1.0412
 8126TIP3   OH248572   1.987   1.961   3.454 -0.2788 -0.1356  0.1938
 8126TIP3    H148573   2.032   1.998   3.530  0.8994  2.3198 -1.5436
 8126TIP3    H248574   1.935   2.034   3.420 -0.6809 -1.1207 -1.4001
 8127TIP3   OH248575   1.795   0.618   3.045  0.5565  0.5585  0.4958
 8127TIP3    H148576   1.815   0.526   3.028  0.9890  1.1085 -2.8160
 8127TIP3    H248577   1.878   0.663   3.030  0.0431  1.6157  0.7434
 8128TIP3   OH248578   1.944   5.303   3.925  0.1076  0.4839 -0.4005
 8128TIP3    H148579   1.956   5.281   4.018  2.6911  0.7982 -0.5759
 8128TIP3    H248580   1.855   5.336   3.920 -1.2706 -2.4932  1.3368
 8129TIP3   OH248581   0.606   5.897   1.019  0.1055 -0.2270 -0.4857
 8129TIP3    H148582   0.551   5.927   0.947  1.4103 -0.5220 -1.6423
 8129TIP3    H248583   0.689   5.943   1.008 -0.0435  0.6112  1.5378
 8130TIP3   OH248584   1.282   0.776   1.410  0.1994  0.5881  0.1098
 8130TIP3    H148585   1.247   0.832   1.340 -1.0167  1.0934  1.0823
 8130TIP3    H248586   1.256   0.688   1.385 -0.9211  0.8485  0.2845
 8131TIP3   OH248587   1.869   0.963   0.692 -0.5895 -0.4101  0.8457
 8131TIP3    H148588   1.825   0.944   0.775 -1.7576 -1.9944 -0.0825
 8131TIP3    H248589   1.870   0.880   0.646  0.2467  0.3922 -0.6556
 8132TIP3   OH248590   2.962   1.837   3.282  0.1642  0.2767 -0.5448
 8132TIP3    H148591   3.041   1.832   3.336 -0.9209  2.2563  1.4060
 8132TIP3    H248592   2.925   1.749   3.285  0.3953  0.1976  1.6493
 8133TIP3   OH248593   4.740   4.396   2.401 -0.5825  0.2305  0.3855
 8133TIP3    H148594   4.720   4.313   2.444  1.6548 -0.0886  0.9812
 8133TIP3    H248595   4.791   4.444   2.467  0.1258  1.0977 -0.7648
 8134TIP3   OH248596   3.088   4.249  12.005  0.1802  0.2518  0.4413
 8134TIP3    H148597   3.028   4.246  11.931 -0.9957  1.8748  1.2669
 8134TIP3    H248598   3.119   4.340  12.007  2.0494 -0.3403  0.5485
 8135TIP3   OH248599   6.451   4.451   1.280  0.2494  0.4162  0.0552
 8135TIP3    H148600   6.535   4.468   1.324 -0.1263  3.6744 -0.2307
 8135TIP3    H248601   6.386   4.460   1.350 -0.0668  1.6200 -0.3646
 8136TIP3   OH248602   1.356   3.554   2.106 -0.8108  0.3218  0.3241
 8136TIP3    H148603   1.352   3.591   2.195  1.2864 -0.8707  0.9837
 8136TIP3    H248604   1.394   3.467   2.118  1.1353  0.7723 -1.8794
 8137TIP3   OH248605   0.577   4.220   3.634 -0.7339 -0.3003 -0.0835
 8137TIP3    H148606   0.596   4.126   3.631 -2.5591 -0.7073 -0.2070
 8137TIP3    H248607   0.553   4.237   3.725  1.6789  0.5530  0.4670
 8138TIP3   OH248608   5.391   5.450   2.876  0.2201  0.2582 -0.5377
 8138TIP3    H148609   5.451   5.519   2.849 -0.9219  0.7447 -1.9591
 8138TIP3    H248610   5.310   5.469   2.829  0.1751 -2.6478 -1.8451
 8139TIP3   OH248611   4.510   2.731   2.931 -0.3725 -0.4224 -0.3749
 8139TIP3    H148612   4.451   2.749   3.004  0.6862 -0.2399  0.4549
 8139TIP3    H248613   4.488   2.798   2.866  0.0328  0.7048  0.6124
 8140TIP3   OH248614   4.759   6.036   3.108  0.2001 -0.2726  0.7528
 8140TIP3    H148615   4.704   6.114   3.117  0.6331  0.1109  0.1248
 8140TIP3    H248616   4.806   6.049   3.026  1.0498 -0.7098  1.1640
 8141TIP3   OH248617   6.547   4.499   2.445 -0.4638 -0.1699 -0.0905
 8141TIP3    H148618   6.532   4.484   2.352 -0.6601  1.1054 -0.2772
 8141TIP3    H248619   6.524   4.416   2.487  2.7904 -1.9236 -1.4458
 8142TIP3   OH248620   1.273   6.399   1.765 -0.1853  0.1829  0.5019
 8142TIP3    H148621   1.345   6.348   1.728  0.4025  0.4409  1.2661
 8142TIP3    H248622   1.316   6.466   1.818 -0.9729  0.8502  0.3223
 8143TIP3   OH248623   2.601   0.094   3.349  0.0639  0.6129  0.5499
 8143TIP3    H148624   2.599   0.043   3.269  1.9938 -0.9608  1.4069
 8143TIP3    H248625   2.528   0.060   3.401 -1.4985  1.9782 -0.6661
 8144TIP3   OH248626   5.672   0.274   1.805  0.3078 -0.0217 -0.2104
 8144TIP3    H148627   5.763   0.247   1.812  0.2573  0.0225  0.8062
 8144TIP3    H248628   5.666   0.352   1.861 -1.1366 -2.1209  2.8449
 8145TIP3   OH248629   2.029   3.573   3.265  0.3599 -0.7397  0.2433
 8145TIP3    H148630   2.114   3.565   3.222  0.8806  1.8583  0.6377
 8145TIP3    H248631   2.035   3.654   3.315 -1.7899 -1.3689  1.6454
 8146TIP3   OH248632   5.519   1.589   0.918 -0.5057 -0.0273  0.1467
 8146TIP3    H148633   5.488   1.513   0.869 -2.2889  0.1796  0.8968
 8146TIP3    H248634   5.442   1.645   0.927  0.5020  1.3344  0.6192
 8147TIP3   OH248635   1.037   1.803   0.662  0.4530 -0.2935 -0.0659
 8147TIP3    H148636   1.094   1.871   0.626  2.2876 -2.0015 -0.6028
 8147TIP3    H248637   1.063   1.796   0.754  1.6305 -1.5029 -0.4610
 8148TIP3   OH248638   1.048   3.342   0.834  0.2166  0.1503 -0.1850
 8148TIP3    H148639   1.045   3.282   0.760 -1.4421 -1.4080  1.0586
 8148TIP3    H248640   1.135   3.329   0.873  1.0311  0.8594 -1.6805
 8149TIP3   OH248641   5.522   5.072   2.091 -0.0985  0.3290 -0.0894
 8149TIP3    H148642   5.493   5.142   2.150 -0.3154 -0.7230  1.0803
 8149TIP3    H248643   5.488   4.992   2.130 -1.1659 -0.3193 -2.2325
 8150TIP3   OH248644   5.056   5.933   2.031 -0.1943  0.2865 -0.0819
 8150TIP3    H148645   5.127   5.989   2.060  0.9820 -1.5738  0.8187
 8150TIP3    H248646   5.068   5.925   1.936  0.8419 -0.0483  0.0734
 8151TIP3   OH248647   4.188   2.945   0.585  0.0414 -0.8090 -0.2931
 8151TIP3    H148648   4.233   2.994   0.517  0.6578 -1.2925 -0.2461
 8151TIP3    H248649   4.230   2.973   0.667  0.1467 -1.1295 -0.2337
 8152TIP3   OH248650   4.992   3.041   0.911 -0.0211 -0.6182  0.9475
 8152TIP3    H148651   4.948   3.102   0.852 -0.7320 -2.7309 -0.8580
 8152TIP3    H248652   5.044   3.096   0.969  0.9695  1.6630 -1.8497
 8153TIP3   OH248653   1.769   3.788   0.418  0.5798 -0.4691 -0.0496
 8153TIP3    H148654   1.677   3.762   0.408  0.2975 -0.5631  2.2073
 8153TIP3    H248655   1.818   3.709   0.394 -0.0980 -1.5708  1.9299
 8154TIP3   OH248656   6.029   1.890   3.698 -0.2213 -0.3789  0.0763
 8154TIP3    H148657   6.015   1.887   3.792 -0.7182  0.1726  0.0262
 8154TIP3    H248658   6.004   1.803   3.667  1.7506 -1.2162  0.6748
 8155TIP3   OH248659   0.732   3.548   2.906 -0.2242 -0.8282  0.3468
 8155TIP3    H148660   0.765   3.458   2.903  0.0141 -0.7268 -2.6989
 8155TIP3    H248661   0.650   3.545   2.858 -0.5259  0.5019  0.7350
 8156TIP3   OH248662   4.903   6.597   2.950  0.3766  0.1696  0.0976
 8156TIP3    H148663   4.896   6.617   3.043  1.1347  1.3325 -0.0673
 8156TIP3    H248664   4.838   6.653   2.908 -0.0201 -0.4120 -0.0705
 8157TIP3   OH248665   1.966   0.535   1.389  0.4928 -0.1463 -0.1303
 8157TIP3    H148666   2.039   0.492   1.433 -0.5805 -0.9953  0.8816
 8157TIP3    H248667   1.954   0.486   1.308  1.1254  0.0837 -0.3659
 8158TIP3   OH248668   6.526   1.838   2.412  0.0704  0.1402 -0.3443
 8158TIP3    H148669   6.558   1.926   2.430 -0.9398  0.0646  2.2891
 8158TIP3    H248670   6.602   1.782   2.422  0.4616  0.5981 -0.7393
 8159TIP3   OH248671   4.099   2.092   0.728 -0.4144 -0.2610  0.6068
 8159TIP3    H148672   4.103   1.996   0.723 -0.1339 -0.2798  1.1358
 8159TIP3    H248673   4.191   2.119   0.737 -0.4286  0.1042 -0.2216
 8160TIP3   OH248674   6.521   2.299   2.321 -0.4138  0.2327  0.0245
 8160TIP3    H148675   6.453   2.234   2.302 -2.0934  2.0760 -0.6337
 8160TIP3    H248676   6.585   2.287   2.252 -0.3882 -1.0799  0.2459
 8161TIP3   OH248677   1.348   4.709   2.028 -0.2702 -0.6890  0.4215
 8161TIP3    H148678   1.375   4.650   1.958 -0.7632 -0.5833  0.1395
 8161TIP3    H248679   1.253   4.716   2.019 -0.2317  0.0546  0.5280
 8162TIP3   OH248680   3.131   0.603   1.737 -0.3710  0.1340  0.1462
 8162TIP3    H148681   3.166   0.515   1.749 -1.8284 -0.4411  0.3939
 8162TIP3    H248682   3.208   0.657   1.718  0.5263 -1.2149 -0.2095
 8163TIP3   OH248683   4.283   2.592   1.440  0.3305  0.2012  0.1110
 8163TIP3    H148684   4.363   2.621   1.395  0.7793 -1.5436 -0.3067
 8163TIP3    H248685   4.259   2.511   1.395 -1.4476  0.4594  0.5293
 8164TIP3   OH248686   2.083   3.116   0.942  0.0226  0.0685  0.6246
 8164TIP3    H148687   2.173   3.127   0.911  0.4461 -1.3085  1.2678
 8164TIP3    H248688   2.079   3.024   0.969 -1.6635  0.0319  0.3457
 8165TIP3   OH248689   6.451   3.620   1.731 -0.2756  0.0447  0.1909
 8165TIP3    H148690   6.390   3.673   1.783 -0.5787  0.3587 -0.4688
 8165TIP3    H248691   6.518   3.592   1.793 -1.9273 -1.6538  1.2989
 8166TIP3   OH248692   2.225   5.646   3.251 -0.0932 -0.7457 -0.1033
 8166TIP3    H148693   2.201   5.618   3.339  0.1625  0.3236  0.3122
 8166TIP3    H248694   2.295   5.710   3.264 -0.9658  0.4232 -1.0071
 8167TIP3   OH248695   3.611   2.991   1.066  0.6331 -0.2967 -0.4135
 8167TIP3    H148696   3.571   3.048   1.001  1.4158  0.4748 -0.2413
 8167TIP3    H248697   3.686   3.041   1.099  0.8497 -1.0884  0.3419
 8168TIP3   OH248698   0.076   3.609   3.911  0.1053  0.1569 -0.0114
 8168TIP3    H148699   0.017   3.647   3.845 -0.9214 -0.5608  0.4584
 8168TIP3    H248700   0.078   3.674   3.982 -0.4104  0.0371  0.1195
 8169TIP3   OH248701   2.664   6.051   2.880 -0.6756 -0.0924 -0.5397
 8169TIP3    H148702   2.629   6.136   2.851  1.3233  0.1220 -2.6032
 8169TIP3    H248703   2.730   6.074   2.945 -0.9017 -0.1637 -0.2818
 8170TIP3   OH248704   2.812   1.337   3.009  0.2521 -0.9326 -0.4017
 8170TIP3    H148705   2.768   1.255   3.031 -0.1057 -0.0848  2.4312
 8170TIP3    H248706   2.741   1.395   2.980 -0.1416 -0.4445  1.4347
 8171TIP3   OH248707   5.604   3.636   2.995  0.0927  0.3941  0.4022
 8171TIP3    H148708   5.626   3.711   3.051 -0.0987 -0.4894  1.6939
 8171TIP3    H248709   5.632   3.560   3.045 -1.2062 -0.4933 -0.1695
 8172TIP3   OH248710   0.997   5.765   1.530  0.1597  0.5518  0.1104
 8172TIP3    H148711   0.966   5.674   1.522 -0.8364  0.8865 -0.0132
 8172TIP3    H248712   0.997   5.798   1.440 -2.0829  1.4724  0.3740
 8173TIP3   OH248713   3.204   6.315   1.199  0.8521  0.6600  0.5982
 8173TIP3    H148714   3.117   6.352   1.211  0.0269 -0.6295 -1.0035
 8173TIP3    H248715   3.234   6.348   1.114 -0.1110 -2.4425 -1.1234
 8174TIP3   OH248716   0.580   2.139   1.151 -0.1598  0.4373 -0.3242
 8174TIP3    H148717   0.652   2.161   1.092 -0.0462 -0.3461 -0.4919
 8174TIP3    H248718   0.554   2.050   1.125  0.6974 -0.4303  1.5851
 8175TIP3   OH248719   5.296   3.848   1.697 -0.2311  0.2287  0.3577
 8175TIP3    H148720   5.283   3.848   1.792 -1.9763  0.1983  0.1594
 8175TIP3    H248721   5.307   3.755   1.674 -2.5286 -0.0912  0.2721
 8176TIP3   OH248722   1.547   0.272   3.241 -0.2384  0.0499  0.1410
 8176TIP3    H148723   1.606   0.202   3.268  0.8000  0.9086  0.1565
 8176TIP3    H248724   1.583   0.303   3.158 -0.0379  1.2779  0.6710
 8177TIP3   OH248725   1.353   2.886   2.604  0.1609  1.0222  0.3935
 8177TIP3    H148726   1.418   2.844   2.660  0.1443 -0.2577 -0.5279
 8177TIP3    H248727   1.401   2.956   2.559  1.2428 -0.6456 -1.1585
 8178TIP3   OH248728   2.427   5.633   1.741 -0.0858 -0.6134 -0.8163
 8178TIP3    H148729   2.410   5.551   1.787 -0.5095  0.0026  0.1887
 8178TIP3    H248730   2.515   5.659   1.768 -0.4757 -0.0639 -0.0107
 8179TIP3   OH248731   0.626   5.963   0.728 -0.0769  0.0265 -0.3307
 8179TIP3    H148732   0.564   6.029   0.757 -0.3485 -1.3748  2.6992
 8179TIP3    H248733   0.699   6.013   0.691 -2.4585  1.7374 -3.1100
 8180TIP3   OH248734   2.596   0.184   1.731  0.5258 -0.0694 -0.0156
 8180TIP3    H148735   2.611   0.102   1.777  2.4638  0.8793  1.1924
 8180TIP3    H248736   2.579   0.248   1.800  2.0749  1.1051 -0.6652
 8181TIP3   OH248737   5.533   4.706   2.089 -0.0219  0.7222  0.1054
 8181TIP3    H148738   5.608   4.765   2.092  1.9241 -1.6068  1.7891
 8181TIP3    H248739   5.570   4.622   2.062 -2.3328 -0.1951 -0.4607
 8182TIP3   OH248740   6.157   3.404   1.732  0.7878 -0.2839  0.0173
 8182TIP3    H148741   6.093   3.420   1.802  1.3693  0.6574  0.3395
 8182TIP3    H248742   6.134   3.467   1.664 -2.0108 -3.3704 -2.2913
 8183TIP3   OH248743   0.868   1.695   2.534 -0.2577  0.4132 -0.0017
 8183TIP3    H148744   0.917   1.680   2.453 -0.0961  0.3839  0.1011
 8183TIP3    H248745   0.885   1.617   2.587  3.7717  2.4268  2.1675
 8184TIP3   OH248746   1.782   2.806   2.176 -0.3271  0.5931 -0.2603
 8184TIP3    H148747   1.868   2.831   2.210  0.4532 -1.4446 -0.6046
 8184TIP3    H248748   1.732   2.887   2.176  1.7785  1.9660 -0.6217
 8185TIP3   OH248749   2.963   2.398   1.743  0.6826 -0.7592 -0.6544
 8185TIP3    H148750   2.878   2.429   1.713  0.0742 -0.8631  0.8729
 8185TIP3    H248751   2.978   2.317   1.694 -0.0307 -0.6610 -1.0406
 8186TIP3   OH248752   4.488   3.343   2.809  0.7258  0.4429  0.0313
 8186TIP3    H148753   4.425   3.288   2.761  0.2848 -0.7523  1.8921
 8186TIP3    H248754   4.433   3.402   2.861  1.1200 -0.5141  1.5705
 8187TIP3   OH248755   5.166   0.579   3.605 -0.1959 -0.2053 -0.8636
 8187TIP3    H148756   5.262   0.589   3.609 -0.2904  0.3767  0.3066
 8187TIP3    H248757   5.133   0.669   3.603 -0.7102 -0.4038 -1.9529
 8188TIP3   OH248758   2.280   0.711   4.090  0.0357 -0.1972  0.0243
 8188TIP3    H148759   2.187   0.718   4.066  0.0309 -0.6983 -0.1058
 8188TIP3    H248760   2.290   0.621   4.121  0.2326  0.1765  1.0935
 8189TIP3   OH248761   2.149   5.488   3.694  0.1727 -0.1163 -0.5379
 8189TIP3    H148762   2.166   5.548   3.767  1.5424 -0.1807 -0.7848
 8189TIP3    H248763   2.234   5.449   3.674 -0.0206  0.3763 -2.5788
 8190TIP3   OH248764   2.549   5.368   3.248 -0.2949 -0.3809  0.0976
 8190TIP3    H148765   2.527   5.376   3.155  1.0217 -0.5809 -0.2547
 8190TIP3    H248766   2.469   5.337   3.289 -1.0553  0.2289 -0.8826
 8191TIP3   OH248767   3.693   2.303   1.298  0.2852 -0.2409  0.9485
 8191TIP3    H148768   3.626   2.306   1.366 -0.5052  0.6328  0.1643
 8191TIP3    H248769   3.708   2.395   1.274  1.1982 -0.4744  0.5586
 8192TIP3   OH248770   3.647   1.226   0.589 -0.7387  0.0900  0.6510
 8192TIP3    H148771   3.704   1.150   0.605  1.0147  1.1643 -0.2719
 8192TIP3    H248772   3.561   1.187   0.570  0.3358 -1.7690 -0.8429
 8193TIP3   OH248773   6.619   4.002   2.643 -0.3938  0.4781 -0.1879
 8193TIP3    H148774   6.680   3.955   2.585 -0.0308  1.9422 -1.0360
 8193TIP3    H248775   6.561   3.933   2.678  0.6731 -0.7095 -0.6792
 8194TIP3   OH248776   6.668   6.419   2.403  0.1705  0.3530  0.1865
 8194TIP3    H148777   6.679   6.514   2.398 -1.0870  0.4530 -3.2581
 8194TIP3    H248778   6.584   6.408   2.448 -0.4183  0.9743 -0.7315
 8195TIP3   OH248779   1.108   3.966   2.091 -0.2612  0.3795  0.2216
 8195TIP3    H148780   1.095   3.919   2.008  0.5809  1.6561 -0.6730
 8195TIP3    H248781   1.071   4.053   2.075 -1.0905  0.3026  1.5781
 8196TIP3   OH248782   2.294   5.147   3.160  0.1079 -0.0114 -0.1127
 8196TIP3    H148783   2.358   5.085   3.125  1.1139  1.5095 -1.0804
 8196TIP3    H248784   2.245   5.175   3.083  0.5753  1.3873  0.0771
 8197TIP3   OH248785   6.511   4.715   1.209  0.6771 -0.3616  0.2932
 8197TIP3    H148786   6.444   4.653   1.238  0.9286 -0.9778 -0.4090
 8197TIP3    H248787   6.473   4.801   1.227  0.8463 -0.6991  2.4609
 8198TIP3   OH248788   1.308   0.549   0.506 -0.4036  0.7474  0.0324
 8198TIP3    H148789   1.212   0.545   0.502 -0.3785  0.5348 -0.4494
 8198TIP3    H248790   1.337   0.462   0.478 -0.0799  0.6289  0.7189
 8199TIP3   OH248791   3.854   0.801   2.392 -0.2951 -0.0251 -0.3847
 8199TIP3    H148792   3.918   0.730   2.395 -0.9526 -0.6290 -0.2612
 8199TIP3    H248793   3.899   0.873   2.347  0.2676 -0.6423 -0.8234
 8200TIP3   OH248794   0.601   6.021   1.276  0.4080 -0.3353 -0.4262
 8200TIP3    H148795   0.584   5.962   1.203  1.2383 -1.7876  0.5150
 8200TIP3    H248796   0.516   6.031   1.319  0.1774 -0.4801 -0.8385
 8201TIP3   OH248797   3.887   5.437   2.203 -0.1247 -0.0430 -0.3175
 8201TIP3    H148798   3.959   5.475   2.253 -1.0502 -0.4543  1.3910
 8201TIP3    H248799   3.822   5.507   2.196  0.3872  0.3180 -1.8296
 8202TIP3   OH248800   5.575   1.161   3.213  0.5649 -0.1730  0.6257
 8202TIP3    H148801   5.614   1.158   3.300  2.1344  1.9722  0.0932
 8202TIP3    H248802   5.611   1.085   3.168  0.5829 -0.7078  1.5067
 8203TIP3   OH248803   3.739   0.842   1.561 -0.1322  0.0018 -0.0688
 8203TIP3    H148804   3.700   0.884   1.637  0.4555 -1.1005  0.8778
 8203TIP3    H248805   3.815   0.796   1.596 -2.3539 -4.3943 -0.4136
 8204TIP3   OH248806   5.777   5.087   3.709 -0.4721  0.0617  0.2377
 8204TIP3    H148807   5.867   5.096   3.740 -0.6191 -2.2117  1.5839
 8204TIP3    H248808   5.780   5.013   3.648 -1.3654  0.2765 -0.0936
 8205TIP3   OH248809   5.814   6.629   1.700 -0.2781 -0.0623  0.4318
 8205TIP3    H148810   5.854   6.557   1.749 -3.1065 -1.7884  0.4694
 8205TIP3    H248811   5.749   6.666   1.761  0.0293  1.5162 -0.1388
 8206TIP3   OH248812   6.625   5.431   0.994 -0.8373 -0.5779  0.3096
 8206TIP3    H148813   6.693   5.378   1.037  0.9149  0.1123 -1.4141
 8206TIP3    H248814   6.654   5.437   0.903 -1.6349  2.2297  0.1313
 8207TIP3   OH248815   5.370   0.285   1.268 -0.3928  0.1733 -0.2864
 8207TIP3    H148816   5.363   0.378   1.292  0.5854  0.2805 -0.3800
 8207TIP3    H248817   5.370   0.285   1.173 -0.5356  0.0657 -0.2859
 8208TIP3   OH248818   2.834   4.092   2.564  0.1058  0.1566  0.0100
 8208TIP3    H148819   2.739   4.091   2.571  0.0895  0.4876 -0.1411
 8208TIP3    H248820   2.853   4.043   2.484 -0.0133  1.2219 -0.6905
 8209TIP3   OH248821   2.335   2.023   2.856 -0.7414  0.4972 -0.0640
 8209TIP3    H148822   2.418   2.052   2.818  0.3177 -1.0296  0.9780
 8209TIP3    H248823   2.296   2.102   2.892  0.6545  1.1238  0.1278
 8210TIP3   OH248824   0.629   5.191   1.131 -0.4267 -0.6298 -0.5083
 8210TIP3    H148825   0.624   5.190   1.035 -1.0125  0.6805 -0.5071
 8210TIP3    H248826   0.601   5.279   1.156  0.8784 -0.5463  0.8117
 8211TIP3   OH248827   0.255   4.207   0.994 -0.2556 -0.6736  0.3808
 8211TIP3    H148828   0.300   4.219   1.078 -1.4459  1.0995  0.8303
 8211TIP3    H248829   0.322   4.173   0.936  1.1750  0.0741  1.5143
 8212TIP3   OH248830   3.443   0.910   2.134  0.2411  0.3686  0.2171
 8212TIP3    H148831   3.472   0.904   2.225  1.7783 -0.4093 -0.3099
 8212TIP3    H248832   3.496   0.847   2.087 -0.5215  0.7791 -1.2498
 8213TIP3   OH248833   0.171   5.642   1.218 -0.1786  0.1548 -0.6160
 8213TIP3    H148834   0.225   5.705   1.265 -1.0491  0.1895  0.3920
 8213TIP3    H248835   0.090   5.637   1.269 -0.9286 -0.2654 -1.7951
 8214TIP3   OH248836   6.092   2.998   2.182  0.1244 -0.5195  0.2345
 8214TIP3    H148837   6.002   3.029   2.171  0.2471  0.4901  1.7404
 8214TIP3    H248838   6.084   2.922   2.239  0.1654 -0.8712 -0.2280
 8215TIP3   OH248839   1.099   2.338   1.791  0.0145 -0.4756 -0.0392
 8215TIP3    H148840   1.087   2.243   1.796 -1.5573 -0.2894  0.3827
 8215TIP3    H248841   1.023   2.369   1.741 -0.0063  0.6464  0.6537
 8216TIP3   OH248842   3.581   4.948   2.667  0.0741  0.0618  0.2329
 8216TIP3    H148843   3.655   4.895   2.697 -0.8062 -1.8081 -0.6992
 8216TIP3    H248844   3.515   4.939   2.735  0.8360  2.2320  1.3631
 8217TIP3   OH248845   0.431   6.064   3.486 -0.4180  0.2834 -0.7366
 8217TIP3    H148846   0.378   6.028   3.558  0.9096  0.7221  0.5165
 8217TIP3    H248847   0.483   6.133   3.527  0.8545  0.1074 -1.9837
 8218TIP3   OH248848   3.077   0.190   4.029  0.2718  0.1988  0.5592
 8218TIP3    H148849   3.068   0.098   4.054 -1.5963  1.1862  4.1473
 8218TIP3    H248850   2.988   0.218   4.010  0.5936  1.6089  1.0029
 8219TIP3   OH248851   1.219   0.201   2.905 -0.4416  0.0301 -0.6119
 8219TIP3    H148852   1.153   0.171   2.967 -1.3745  0.2710 -1.4658
 8219TIP3    H248853   1.175   0.200   2.820  1.2348 -1.7848 -1.5556
 8220TIP3   OH248854   2.829   2.415   2.427  0.1077  0.1662 -0.1831
 8220TIP3    H148855   2.859   2.473   2.497  1.5801 -0.0457 -0.6042
 8220TIP3    H248856   2.734   2.428   2.424  0.0811  0.6139  1.4461
 8221TIP3   OH248857   0.480   2.330   0.795  0.9428  0.2617 -0.1077
 8221TIP3    H148858   0.443   2.349   0.709 -1.9023  0.1753  1.0120
 8221TIP3    H248859   0.543   2.259   0.779 -1.2713 -1.4635 -1.8501
 8222TIP3   OH248860   2.680   1.932   2.934 -0.0782 -0.0498  0.5860
 8222TIP3    H148861   2.639   1.937   3.020  1.3973  2.2430  1.2610
 8222TIP3    H248862   2.672   2.021   2.898  1.0380 -0.4688 -0.7968
 8223TIP3   OH248863   5.724   3.375   1.734 -0.5030 -0.0351  0.0450
 8223TIP3    H148864   5.797   3.320   1.705 -0.8370 -0.3115 -0.2831
 8223TIP3    H248865   5.726   3.450   1.674 -0.4860 -0.0383  0.0414
 8224TIP3   OH248866   2.122   6.345   1.260  0.2965 -0.3575  0.1974
 8224TIP3    H148867   2.167   6.268   1.294  0.2724 -0.4757 -0.0380
 8224TIP3    H248868   2.033   6.315   1.242 -0.1991  0.1290  1.6567
 8225TIP3   OH248869   0.662   3.731   1.788 -0.5334  0.1148  0.4133
 8225TIP3    H148870   0.620   3.647   1.770  0.7847 -0.6863  0.9615
 8225TIP3    H248871   0.712   3.750   1.709  0.4182 -0.4022  0.8827
 8226TIP3   OH248872   0.132   1.946   2.245 -0.0603 -0.1772 -0.2301
 8226TIP3    H148873   0.093   1.865   2.277 -0.1860  0.0777  0.2760
 8226TIP3    H248874   0.215   1.953   2.292  0.4317 -0.5348 -1.0355
 8227TIP3   OH248875   3.529   1.186   1.825 -0.3544  0.1922  0.2952
 8227TIP3    H148876   3.578   1.266   1.847  0.4380 -0.8172  2.5881
 8227TIP3    H248877   3.451   1.190   1.880 -0.1462 -0.7443  0.6769
 8228TIP3   OH248878   1.902   6.050   3.635 -0.0265 -0.8178 -0.7205
 8228TIP3    H148879   1.963   5.979   3.653  0.7098 -0.0347 -0.0629
 8228TIP3    H248880   1.834   6.009   3.582  0.4251 -1.9928 -0.4405
 8229TIP3   OH248881   2.263   4.198   1.105  0.0055  0.2408  0.2547
 8229TIP3    H148882   2.247   4.113   1.065  0.6652  0.8066 -1.2689
 8229TIP3    H248883   2.202   4.202   1.179 -1.3797 -0.7570 -0.7991
 8230TIP3   OH248884   4.314   3.675   0.889 -0.1118  0.5990  0.2484
 8230TIP3    H148885   4.267   3.627   0.957  0.0484  2.3402  1.6556
 8230TIP3    H248886   4.258   3.749   0.868  1.1022  1.6563  0.5685
 8231TIP3   OH248887   3.306   5.266   2.426 -0.4696  0.1391  0.9812
 8231TIP3    H148888   3.376   5.330   2.413  0.2217 -0.8841 -0.8864
 8231TIP3    H248889   3.245   5.282   2.354 -0.3613 -1.1411  0.5704
 8232TIP3   OH248890   5.555   4.938   1.858  0.2245 -0.3255 -0.2479
 8232TIP3    H148891   5.544   4.963   1.949  0.2838 -0.6522 -0.1488
 8232TIP3    H248892   5.528   4.846   1.855  0.8359 -0.5067 -0.4235
 8233TIP3   OH248893   5.142   5.810   2.910  0.1363  0.6308 -0.4564
 8233TIP3    H148894   5.062   5.847   2.872 -0.2862 -0.5388 -0.7367
 8233TIP3    H248895   5.111   5.760   2.986  0.1631 -2.2853 -2.1938
 8234TIP3   OH248896   2.596   3.613   3.711 -0.1692  0.4404 -0.5700
 8234TIP3    H148897   2.561   3.666   3.639  0.1986  3.5191  1.3068
 8234TIP3    H248898   2.547   3.642   3.788 -0.4904 -2.6639  0.5024
 8235TIP3   OH248899   2.379   4.949   0.812  0.1516  0.1080  0.4991
 8235TIP3    H148900   2.439   4.883   0.777  0.3845  0.1785  0.7638
 8235TIP3    H248901   2.427   5.031   0.806 -0.2259  0.3013 -0.0507
 8236TIP3   OH248902   6.416   3.347   1.729  0.3351  0.3482 -0.0462
 8236TIP3    H148903   6.432   3.436   1.698  0.9758  0.4618  0.5865
 8236TIP3    H248904   6.321   3.340   1.736  0.2670  0.8541 -0.4565
 8237TIP3   OH248905   5.448   0.072   0.515 -0.2799  0.5863  0.4039
 8237TIP3    H148906   5.378   0.048   0.576 -0.6183  0.7608  0.0918
 8237TIP3    H248907   5.420   0.157   0.479 -0.1253  0.4497 -0.0478
 8238TIP3   OH248908   1.594   5.958   3.741  0.6826  0.4236 -0.2123
 8238TIP3    H148909   1.518   6.015   3.732  0.5372  0.6867  2.0438
 8238TIP3    H248910   1.616   5.933   3.651 -2.3306 -0.0388 -0.9354
 8239TIP3   OH248911   1.396   0.264   0.507  0.0343  0.7006 -0.1188
 8239TIP3    H148912   1.342   0.246   0.584 -0.6954  2.2019 -0.2334
 8239TIP3    H248913   1.418   0.178   0.472 -1.4118  0.0179  0.5629
 8240TIP3   OH248914   1.570   6.175   2.439  0.2200  0.1175 -0.5070
 8240TIP3    H148915   1.525   6.235   2.499 -0.3559  0.1141 -0.9304
 8240TIP3    H248916   1.516   6.095   2.442  0.8120 -0.2790 -0.1782
 8241TIP3   OH248917   3.595   4.305   1.867 -0.2778 -0.3519 -0.1244
 8241TIP3    H148918   3.532   4.252   1.820 -0.6402 -0.5204  0.5348
 8241TIP3    H248919   3.571   4.396   1.847  0.6229 -0.4085 -1.6199
 8242TIP3   OH248920   0.707   5.443   3.033  0.0230 -0.2886 -0.3890
 8242TIP3    H148921   0.617   5.451   3.001 -0.5957 -0.5428  1.2318
 8242TIP3    H248922   0.712   5.355   3.069  0.2250  0.4522  1.5129
 8243TIP3   OH248923   3.000   2.951   1.773 -0.2160  0.1759 -0.4442
 8243TIP3    H148924   3.029   2.866   1.806 -1.4218  0.0323  0.3321
 8243TIP3    H248925   2.918   2.967   1.819  0.5253  2.2767  0.2710
 8244TIP3   OH248926   2.934   4.512   2.293 -0.3671 -0.7173 -0.0236
 8244TIP3    H148927   2.925   4.441   2.356  0.4114  0.2160  1.1811
 8244TIP3    H248928   3.006   4.565   2.326 -0.3693  0.1779 -1.3528
 8245TIP3   OH248929   3.332   3.909   3.177 -0.4318  0.5491 -0.2796
 8245TIP3    H148930   3.364   3.999   3.187 -1.4528  1.2333 -2.3590
 8245TIP3    H248931   3.386   3.873   3.107 -0.1472 -0.4224  0.4253
 8246TIP3   OH248932   3.130   5.310   2.205  0.0148  0.1205 -0.5872
 8246TIP3    H148933   3.167   5.398   2.201  2.3317 -0.8197 -1.4281
 8246TIP3    H248934   3.168   5.265   2.130 -1.1302 -1.6141 -0.1749
 8247TIP3   OH248935   2.800   5.332   3.924 -0.1298  0.4931 -0.7213
 8247TIP3    H148936   2.711   5.362   3.943 -1.1648 -1.6032 -1.8799
 8247TIP3    H248937   2.820   5.370   3.838  0.0983  0.9637 -0.4610
 8248TIP3   OH248938   2.337   0.976   2.464 -0.4023 -0.0429  0.4493
 8248TIP3    H148939   2.353   0.890   2.504  1.3994  0.5808  1.1829
 8248TIP3    H248940   2.422   1.001   2.426 -0.5057  1.9778  1.4097
 8249TIP3   OH248941   3.765   1.575   0.996 -0.1334 -0.4561  0.5256
 8249TIP3    H148942   3.683   1.620   1.015  0.9274  2.0589 -0.3738
 8249TIP3    H248943   3.758   1.549   0.904  0.4695  0.8407  0.0812
 8250TIP3   OH248944   6.347   5.788   1.012  0.3404 -0.6478  0.0952
 8250TIP3    H148945   6.315   5.723   1.074 -2.3051  1.9076  1.6998
 8250TIP3    H248946   6.274   5.800   0.951  0.4397  1.2142  0.2728
 8251TIP3   OH248947   1.915   6.021   1.498  0.3232 -0.7657 -0.8001
 8251TIP3    H148948   1.922   5.928   1.519  1.1078 -0.3122  1.2218
 8251TIP3    H248949   2.000   6.058   1.522  0.1176  0.4413 -1.8076
 8252TIP3   OH248950   5.491   5.840   1.647  0.2653 -0.1160  0.3744
 8252TIP3    H148951   5.445   5.821   1.565  0.6412  0.3125  0.0517
 8252TIP3    H248952   5.457   5.925   1.675  0.1679 -0.2427  0.6416
 8253TIP3   OH248953   3.407   4.964   0.486  0.4628 -0.2495 -0.3369
 8253TIP3    H148954   3.453   4.907   0.547 -0.2168 -0.6085 -0.1481
 8253TIP3    H248955   3.371   4.904   0.420  1.3656  0.1524 -1.2162
 8254TIP3   OH248956   0.891   0.704   2.501  0.0302 -0.5682  0.3707
 8254TIP3    H148957   0.946   0.634   2.467  1.5227  1.2343 -1.1205
 8254TIP3    H248958   0.900   0.698   2.596  1.8438 -1.1093  0.1985
 8255TIP3   OH248959   5.213   3.763   1.385 -0.6111 -0.6855  0.1641
 8255TIP3    H148960   5.185   3.805   1.466  1.0027 -1.3431  1.0990
 8255TIP3    H248961   5.198   3.829   1.317 -0.9849  0.2673  1.1559
 8256TIP3   OH248962   4.270   0.665   1.321 -0.9530 -0.1289  0.5820
 8256TIP3    H148963   4.222   0.746   1.339  2.3837  2.0128  0.7284
 8256TIP3    H248964   4.350   0.673   1.373  0.2391 -2.8105 -0.6661
 8257TIP3   OH248965   0.035   2.511   1.285  0.1661 -0.1943 -0.3774
 8257TIP3    H148966  -0.044   2.515   1.231  0.1813  0.3314 -0.3595
 8257TIP3    H248967   0.050   2.417   1.298 -0.4197 -0.2969 -0.4280
 8258TIP3   OH248968   2.984   0.718   4.250 -0.0472 -0.3239  0.4864
 8258TIP3    H148969   2.902   0.691   4.209 -0.4371 -0.3937  1.2985
 8258TIP3    H248970   3.020   0.639   4.289 -0.5916  0.0595  1.8285
 8259TIP3   OH248971   5.925   1.665   3.016  0.2077 -0.5425 -0.4720
 8259TIP3    H148972   5.964   1.711   2.941 -0.8928  1.0182 -0.1579
 8259TIP3    H248973   5.987   1.678   3.087  0.5356 -0.6970 -0.7275
 8260TIP3   OH248974   4.897   4.092   1.301 -0.3932 -0.1683  0.4188
 8260TIP3    H148975   4.914   4.002   1.329  0.3912 -0.2922 -0.4417
 8260TIP3    H248976   4.838   4.084   1.226 -0.0452  0.0133  0.1212
 8261TIP3   OH248977   2.314   6.504   2.700  0.1929  0.2616 -0.1447
 8261TIP3    H148978   2.241   6.444   2.687  0.3295  0.5146 -2.4441
 8261TIP3    H248979   2.343   6.487   2.790 -1.1290 -1.5566 -0.0007
 8262TIP3   OH248980   3.555   6.018   3.213  0.1440 -0.2627 -0.7654
 8262TIP3    H148981   3.474   5.969   3.201 -0.6750  0.6551  0.6896
 8262TIP3    H248982   3.530   6.092   3.268  1.8010  0.5448 -1.0297
 8263TIP3   OH248983   0.474   2.817   3.717 -0.0754  0.4855 -0.1466
 8263TIP3    H148984   0.569   2.822   3.702 -0.4970 -0.4967 -4.2454
 8263TIP3    H248985   0.442   2.905   3.695 -0.2186  0.6314  0.6112
 8264TIP3   OH248986   6.584   3.172   1.840 -0.3581 -0.0179  0.2486
 8264TIP3    H148987   6.512   3.203   1.785  0.5774 -0.9260 -1.5594
 8264TIP3    H248988   6.541   3.130   1.914 -1.6996 -0.3272 -0.6727
 8265TIP3   OH248989   2.705   5.658   1.687  0.2674 -0.0444 -0.7579
 8265TIP3    H148990   2.736   5.647   1.777 -2.1339 -0.3507  0.1026
 8265TIP3    H248991   2.774   5.708   1.644  1.6091 -0.1313  1.1707
 8266TIP3   OH248992   4.808   3.456   2.088 -0.7357 -0.4452 -0.4242
 8266TIP3    H148993   4.760   3.495   2.161  0.7436 -0.2162  0.4859
 8266TIP3    H248994   4.849   3.377   2.125  0.2396 -0.1947 -0.9127
 8267TIP3   OH248995   1.042   3.542   3.209 -0.4496  0.6182  0.6738
 8267TIP3    H148996   0.964   3.587   3.176 -1.8061 -0.8768  1.6912
 8267TIP3    H248997   1.028   3.537   3.304  0.7045 -0.0069  0.8264
 8268TIP3   OH248998   5.344   0.083   1.035 -0.4966  0.0586 -0.2351
 8268TIP3    H148999   5.316   0.014   1.095 -0.7230 -1.6860 -2.2524
 8268TIP3    H249000   5.263   0.131   1.015 -0.9273 -0.9915 -1.1161
 8269TIP3   OH249001   3.118   0.994   1.796 -0.3558  0.2859 -0.6190
 8269TIP3    H149002   3.102   1.059   1.728 -1.3716 -0.2328 -0.9044
 8269TIP3    H249003   3.193   0.944   1.764  0.3471  1.2126 -0.4600
 8270TIP3   OH249004   4.079   1.048   4.170 -0.3477  0.5846 -0.1896
 8270TIP3    H149005   4.094   1.103   4.246  0.2911  0.7617 -0.4378
 8270TIP3    H249006   4.139   1.082   4.103 -1.3259  0.8299 -0.9739
 8271TIP3   OH249007   0.227   1.507   2.333  0.0104  0.1486 -0.1374
 8271TIP3    H149008   0.273   1.430   2.368  0.6712  0.3142 -0.6357
 8271TIP3    H249009   0.139   1.474   2.312  0.3849 -0.5481 -0.6475
 8272TIP3   OH249010   1.587   2.747   3.582  0.0526 -0.3943  0.2147
 8272TIP3    H149011   1.582   2.712   3.671 -0.4506 -0.0096  0.3383
 8272TIP3    H249012   1.599   2.841   3.594 -1.0456 -0.1991 -0.1201
 8273TIP3   OH249013   6.655   1.785   2.928 -0.0722 -0.3267 -0.1341
 8273TIP3    H149014   6.595   1.858   2.916 -0.1542 -0.2935  0.4625
 8273TIP3    H249015   6.694   1.799   3.014 -2.4808 -2.6688  1.5061
 8274TIP3   OH249016   5.358   4.001   0.517 -0.3951  0.3523  0.1354
 8274TIP3    H149017   5.416   3.981   0.592 -0.7907  0.2279  0.4119
 8274TIP3    H249018   5.416   4.042   0.453  0.3378 -1.1432 -0.2195
 8275TIP3   OH249019   6.136   1.037   1.889 -0.2388  0.0084 -0.2663
 8275TIP3    H149020   6.194   1.111   1.874 -1.0997  0.3834 -1.8523
 8275TIP3    H249021   6.083   1.031   1.810 -1.2357 -1.3542  0.4711
 8276TIP3   OH249022   2.064   2.848   1.075  0.0071  0.0312 -0.0480
 8276TIP3    H149023   2.076   2.761   1.110 -1.2326 -0.2659 -0.3052
 8276TIP3    H249024   2.065   2.906   1.151 -0.7514 -0.3885  0.2832
 8277TIP3   OH249025   1.997   3.614   1.386  0.0114  0.2186  0.2026
 8277TIP3    H149026   2.058   3.581   1.452  0.7058 -2.0212 -1.4236
 8277TIP3    H249027   2.039   3.693   1.353  0.8190  0.0782  0.8390
 8278TIP3   OH249028   0.527   0.307   0.577  0.0257  0.2897  0.4725
 8278TIP3    H149029   0.483   0.370   0.634 -0.5359  1.8376 -1.5562
 8278TIP3    H249030   0.458   0.275   0.520  0.8688  0.0631 -0.4336
 8279TIP3   OH249031   3.915   6.043   2.521 -0.1293 -0.2031  0.2539
 8279TIP3    H149032   3.853   6.042   2.593 -0.7647  3.0709 -0.0706
 8279TIP3    H249033   4.001   6.034   2.562 -0.5728  0.0713  1.2544
 8280TIP3   OH249034   3.302   5.514   2.124  0.1928 -1.1454  0.0539
 8280TIP3    H149035   3.327   5.505   2.032 -0.5677  1.5652 -0.5040
 8280TIP3    H249036   3.373   5.564   2.163 -1.2475  1.1632 -0.0768
 8281TIP3   OH249037   2.827   2.032   2.649  0.2087 -0.3742 -0.2778
 8281TIP3    H149038   2.812   2.113   2.698  0.3481  0.1960 -1.1374
 8281TIP3    H249039   2.740   2.000   2.628  0.0974 -1.6591  1.9310
 8282TIP3   OH249040   3.867   5.155   2.223  0.3739  0.1497 -0.6300
 8282TIP3    H149041   3.857   5.250   2.231 -1.5564 -0.0469 -0.1948
 8282TIP3    H249042   3.791   5.120   2.268  1.0473 -1.6191 -0.8205
 8283TIP3   OH249043   5.982   1.252   0.772 -0.2059  0.0658  0.0057
 8283TIP3    H149044   6.037   1.287   0.701  2.7103 -0.9085  1.6255
 8283TIP3    H249045   5.989   1.157   0.763 -2.1182 -0.1165 -0.0058
 8284TIP3   OH249046   1.534   5.332   3.580 -0.2696 -0.0017  0.0547
 8284TIP3    H149047   1.478   5.270   3.533  0.0047 -0.9198  0.8880
 8284TIP3    H249048   1.493   5.417   3.568 -2.1579 -0.7146  1.0903
 8285TIP3   OH249049   3.745   2.663   1.943  0.0452 -0.2475 -0.1192
 8285TIP3    H149050   3.708   2.716   2.014  0.8264 -1.1864  1.0252
 8285TIP3    H249051   3.832   2.701   1.929  0.5611 -1.1292  0.6228
 8286TIP3   OH249052   3.062   3.991   3.190  0.3583  0.2548  0.4171
 8286TIP3    H149053   3.128   3.923   3.207 -0.4338 -0.5558  0.3176
 8286TIP3    H249054   3.058   3.996   3.095 -0.7317 -0.7434  0.3771
 8287TIP3   OH249055   1.929   3.960   4.280  0.0579 -0.0239 -0.1194
 8287TIP3    H149056   1.941   4.055   4.292  1.0434  0.1240 -1.8127
 8287TIP3    H249057   1.842   3.951   4.242  0.0878  0.2512 -0.2574
 8288TIP3   OH249058   3.730   0.191   3.638 -0.0829 -0.0051 -0.1570
 8288TIP3    H149059   3.733   0.227   3.549  0.0692 -0.6383 -0.4112
 8288TIP3    H249060   3.656   0.235   3.679 -1.7549 -1.5056 -1.4050
 8289TIP3   OH249061   4.250   5.148   2.443 -0.0667 -0.1881 -0.0670
 8289TIP3    H149062   4.283   5.220   2.389 -1.6658 -0.5054 -1.5299
 8289TIP3    H249063   4.327   5.091   2.455  0.9150  1.1169  0.0903
 8290TIP3   OH249064   2.322   5.999   2.516  0.2764  0.1565 -0.2085
 8290TIP3    H149065   2.408   6.037   2.502 -0.6784  2.1467 -1.0479
 8290TIP3    H249066   2.308   5.942   2.441  0.1131  1.3030 -1.0616
 8291TIP3   OH249067   3.624   6.280   4.451 -0.2212  0.6273 -0.4581
 8291TIP3    H149068   3.583   6.194   4.463 -1.1431  1.3646  2.6522
 8291TIP3    H249069   3.718   6.262   4.452 -0.2378 -0.2501  3.4358
 8292TIP3   OH249070   1.899   3.408   2.674 -0.2712  0.7727 -0.4054
 8292TIP3    H149071   1.915   3.370   2.761  2.1261 -0.1658 -1.1647
 8292TIP3    H249072   1.845   3.484   2.691 -2.3635 -0.9946  1.5963
 8293TIP3   OH249073   5.393   0.932   1.078  0.1232  0.7476 -0.3999
 8293TIP3    H149074   5.465   0.995   1.080  1.9567 -1.0956 -2.3744
 8293TIP3    H249075   5.409   0.876   1.153  2.1430 -0.9058 -1.9197
 8294TIP3   OH249076   4.263   0.007   2.418 -0.9362  0.0029 -0.4429
 8294TIP3    H149077   4.172   0.020   2.445 -0.4596  0.7082  0.8724
 8294TIP3    H249078   4.304  -0.040   2.491 -0.2477 -0.3681 -1.0529
 8295TIP3   OH249079   2.888   1.731   0.667 -0.0659 -0.6336 -0.7267
 8295TIP3    H149080   2.841   1.746   0.585 -0.0415  2.0192 -0.3306
 8295TIP3    H249081   2.823   1.691   0.725 -1.0890  0.5514 -1.0133
 8296TIP3   OH249082   6.465   5.762   2.480  0.4178 -0.1884 -0.0520
 8296TIP3    H149083   6.433   5.851   2.489  0.8207 -0.0302 -0.1675
 8296TIP3    H249084   6.415   5.726   2.406  0.6056  0.1022 -0.3208
 8297TIP3   OH249085   0.584   2.375   2.800 -0.3713  0.3477  0.3308
 8297TIP3    H149086   0.673   2.345   2.778  0.6816  1.5119  2.7017
 8297TIP3    H249087   0.556   2.424   2.722  0.7434 -0.6446 -0.7465
 8298TIP3   OH249088   4.932   4.224   1.586 -0.3807  0.8410 -0.0938
 8298TIP3    H149089   5.021   4.254   1.565  0.8490 -2.4477 -0.1076
 8298TIP3    H249090   4.900   4.185   1.505 -0.1722 -1.5560  0.8910
 8299TIP3   OH249091   5.405   1.848   1.407 -0.0160 -0.2161  0.4991
 8299TIP3    H149092   5.409   1.890   1.493  0.2253  0.1172  0.3277
 8299TIP3    H249093   5.319   1.873   1.373  0.3720  0.6520  0.1424
 8300TIP3   OH249094   6.215   2.402   0.572  0.0444  0.1784  0.0559
 8300TIP3    H149095   6.307   2.375   0.579  0.1620  0.0697 -1.4878
 8300TIP3    H249096   6.174   2.334   0.519 -1.0744 -0.0608  1.2058
 8301TIP3   OH249097   4.850   3.164   1.214  0.1518 -0.2757  0.2660
 8301TIP3    H149098   4.777   3.221   1.188 -0.0680  0.9995  3.2359
 8301TIP3    H249099   4.927   3.206   1.176 -0.4018 -0.3047 -0.9386
 8302TIP3   OH249100   0.437   4.763   2.832  0.2229  0.5214 -0.8650
 8302TIP3    H149101   0.461   4.760   2.739  0.1469  1.4583 -0.9212
 8302TIP3    H249102   0.351   4.723   2.835  1.4826 -2.4402 -0.7321
 8303TIP3   OH249103   4.243   1.264   2.946  0.1983  0.5614 -0.1988
 8303TIP3    H149104   4.333   1.262   2.981  0.7580  0.7062 -1.5602
 8303TIP3    H249105   4.190   1.294   3.020  1.0771 -0.6485  0.9941
 8304TIP3   OH249106   0.808   2.444   2.642 -0.2597 -0.4614  0.1192
 8304TIP3    H149107   0.882   2.485   2.599  1.4488 -0.6247  2.6647
 8304TIP3    H249108   0.737   2.448   2.578  0.9177  2.8548 -1.1850
 8305TIP3   OH249109   6.496   5.292   1.702 -0.4799  0.4199 -0.0661
 8305TIP3    H149110   6.546   5.340   1.768  0.8487  0.4245 -1.0577
 8305TIP3    H249111   6.495   5.349   1.626  0.9354 -0.9940 -1.1960
 8306TIP3   OH249112   5.997   1.931   1.663 -0.4208 -0.2324 -0.2753
 8306TIP3    H149113   6.086   1.965   1.659 -1.1131  1.7160  0.0403
 8306TIP3    H249114   5.949   1.978   1.595 -1.1673 -1.5079 -0.6790
 8307TIP3   OH249115   1.571   3.551   1.021  0.1551 -0.1080  0.3202
 8307TIP3    H149116   1.567   3.489   0.948  0.3676  0.7604 -0.4388
 8307TIP3    H249117   1.528   3.630   0.989 -0.1529  0.1397  1.2949
 8308TIP3   OH249118   3.690   4.957   3.761 -0.6493  0.2759  0.1230
 8308TIP3    H149119   3.698   4.879   3.707 -0.9275  0.5306 -0.2893
 8308TIP3    H249120   3.657   4.924   3.845  0.9134 -0.2749  0.5615
 8309TIP3   OH249121   3.278   0.815   2.592 -0.0192  0.1244 -0.2647
 8309TIP3    H149122   3.288   0.879   2.521  2.1926  1.1653  0.8849
 8309TIP3    H249123   3.365   0.808   2.630 -0.7185 -1.9087  1.1116
 8310TIP3   OH249124   6.036   4.618   1.545 -0.3037  0.6618 -0.1513
 8310TIP3    H149125   6.004   4.556   1.480  0.9846  1.2631 -1.3943
 8310TIP3    H249126   5.983   4.696   1.532  0.3746  1.0029 -0.9302
 8311TIP3   OH249127   0.801   4.109   3.161 -0.2555  0.0666  0.4584
 8311TIP3    H149128   0.777   4.197   3.133  1.2376  0.3563  0.0105
 8311TIP3    H249129   0.718   4.060   3.160 -1.1405  1.5010  0.9304
 8312TIP3   OH249130   3.538   5.142   1.794 -0.3908  0.3300 -0.7593
 8312TIP3    H149131   3.486   5.104   1.723 -1.1369  0.9232 -0.5376
 8312TIP3    H249132   3.626   5.105   1.781 -0.8643 -0.7036 -1.1150
 8313TIP3   OH249133   3.839   4.860   2.482  0.1670  0.2474 -0.2970
 8313TIP3    H149134   3.837   4.913   2.561 -0.8482 -0.4491  0.1698
 8313TIP3    H249135   3.928   4.872   2.447  0.3820  1.1618  0.5196
 8314TIP3   OH249136   4.767   1.924   0.687  0.2869  0.3699  0.1380
 8314TIP3    H149137   4.713   1.999   0.660  0.5849  0.9660  1.1655
 8314TIP3    H249138   4.745   1.855   0.624 -1.7965  0.5424  0.6266
 8315TIP3   OH249139   3.271   1.394   3.116 -0.4029  0.2671  0.0757
 8315TIP3    H149140   3.234   1.392   3.204  2.1560 -0.4842  1.2413
 8315TIP3    H249141   3.219   1.332   3.066 -1.7454  0.5095  1.1193
 8316TIP3   OH249142   5.066   4.099   0.913 -0.4705  0.3880 -0.5803
 8316TIP3    H149143   4.979   4.085   0.951  0.2131 -0.2562  0.8290
 8316TIP3    H249144   5.121   4.125   0.988  0.7785 -0.2088 -1.2600
 8317TIP3   OH249145   2.571   5.639   2.335  0.0882 -0.1975 -0.6042
 8317TIP3    H149146   2.611   5.720   2.368  1.5990 -1.1721  0.0366
 8317TIP3    H249147   2.544   5.660   2.245  1.5536  0.6645 -0.8642
 8318TIP3   OH249148   3.792   4.210   0.931  0.2442 -0.4368 -0.0206
 8318TIP3    H149149   3.797   4.273   0.859 -1.2166  0.0100  0.2312
 8318TIP3    H249150   3.883   4.195   0.955  0.7424 -0.1683 -1.5838
 8319TIP3   OH249151   2.502   2.862   3.071  0.6530  0.7032  0.1903
 8319TIP3    H149152   2.558   2.899   3.140 -0.4456  3.8270 -0.4167
 8319TIP3    H249153   2.464   2.784   3.111  0.1620  2.3061  3.1602
 8320TIP3   OH249154   6.194   2.854   0.964 -0.0920  0.2856  0.3221
 8320TIP3    H149155   6.265   2.790   0.954  0.1899  0.7001 -0.4625
 8320TIP3    H249156   6.214   2.921   0.899 -1.7666 -0.1164 -0.6753
 8321TIP3   OH249157   3.286   5.006   3.715  0.1173  0.1161  0.5983
 8321TIP3    H149158   3.192   4.986   3.710 -0.2877  1.4374  2.2140
 8321TIP3    H249159   3.329   4.920   3.706 -1.4081 -1.1977  3.9755
 8322TIP3   OH249160   5.277   6.335   2.164  0.4380 -0.0753 -0.4821
 8322TIP3    H149161   5.295   6.241   2.153  1.1897  0.0828 -0.6883
 8322TIP3    H249162   5.191   6.348   2.126  0.5316 -0.6010 -0.8829
 8323TIP3   OH249163   4.957   3.643   1.778 -0.0647  0.3393  0.7761
 8323TIP3    H149164   5.036   3.612   1.734 -1.0884  3.5003 -4.1630
 8323TIP3    H249165   4.898   3.567   1.778  1.1928 -0.6837 -0.3651
 8324TIP3   OH249166   3.434   4.757   1.871 -0.5277 -0.1792  1.0124
 8324TIP3    H149167   3.360   4.783   1.925 -2.1183 -0.8271 -0.7212
 8324TIP3    H249168   3.462   4.838   1.828  0.5470  0.2774  2.5104
 8325TIP3   OH249169   4.615   2.878   1.084  0.1274 -0.0605  0.1509
 8325TIP3    H149170   4.593   2.809   1.022  1.2861  0.8107 -1.2944
 8325TIP3    H249171   4.706   2.862   1.108  0.8979  1.7316 -1.3479
 8326TIP3   OH249172   3.626   5.242   4.029 -0.8985  0.1150  0.2146
 8326TIP3    H149173   3.714   5.206   4.012 -1.8566 -1.8573 -0.9430
 8326TIP3    H249174   3.589   5.256   3.942 -0.7860  3.6689  0.5992
 8327TIP3   OH249175   6.276   0.798   1.869  0.1541 -0.1567 -0.1785
 8327TIP3    H149176   6.197   0.745   1.877 -0.0418 -0.2714 -2.3345
 8327TIP3    H249177   6.247   0.888   1.881 -0.5890 -0.0827 -2.1453
 8328TIP3   OH249178   2.035   2.906   2.615 -0.2416  0.3878 -0.0368
 8328TIP3    H149179   2.128   2.901   2.634 -0.0886  0.4441 -0.7496
 8328TIP3    H249180   1.993   2.909   2.701  0.4395  0.8335  0.2858
 8329TIP3   OH249181   4.190   5.528   2.860  0.0410  0.4142  0.6789
 8329TIP3    H149182   4.229   5.466   2.922 -0.9255 -3.3026 -2.1173
 8329TIP3    H249183   4.261   5.550   2.800  0.0437  1.0149  0.8930
 8330TIP3   OH249184   0.361   3.370   0.836  0.6554 -0.3148 -1.0330
 8330TIP3    H149185   0.437   3.415   0.800  1.0160  1.6616  1.8545
 8330TIP3    H249186   0.289   3.432   0.825  0.3339 -0.5492 -0.2896
 8331TIP3   OH249187   4.998   0.795   0.790 -0.0255  0.3941 -0.8477
 8331TIP3    H149188   4.970   0.709   0.760 -2.2778 -0.1478  2.4280
 8331TIP3    H249189   5.093   0.788   0.798 -0.2467 -2.0697  0.1331
 8332TIP3   OH249190   3.358   4.341   2.036 -0.2843 -0.0558  0.0902
 8332TIP3    H149191   3.304   4.400   1.982  0.1343  1.2954  1.1024
 8332TIP3    H249192   3.392   4.397   2.105 -1.0537 -1.8041  1.9691
 8333TIP3   OH249193   4.320   1.821   1.424 -0.3982 -0.1247 -0.3516
 8333TIP3    H149194   4.317   1.835   1.519  1.1751  0.2449 -0.3349
 8333TIP3    H249195   4.228   1.825   1.396 -0.6985  2.5001  0.7788
 8334TIP3   OH249196   5.428   2.054   2.875  0.1209 -0.5340 -0.3675
 8334TIP3    H149197   5.518   2.039   2.904  1.2929  2.3584 -1.9921
 8334TIP3    H249198   5.404   2.138   2.915 -1.9240 -1.3140  0.1255
 8335TIP3   OH249199   3.836   0.049   3.073 -0.2612 -0.2508 -0.6417
 8335TIP3    H149200   3.792  -0.001   3.005 -1.3587  0.5464 -0.5469
 8335TIP3    H249201   3.810   0.140   3.057  0.1987  0.0609  0.2917
 8336TIP3   OH249202   0.776   3.495  12.214  0.1902  0.0442  0.4389
 8336TIP3    H149203   0.779   3.409  12.255  0.2846 -0.5394 -0.7654
 8336TIP3    H249204   0.866   3.528  12.222  0.6220 -0.7832 -0.7678
 8337TIP3   OH249205   3.050   0.983   4.391  0.3473  0.2568  0.2110
 8337TIP3    H149206   3.018   0.902   4.351 -0.6252  2.6208 -4.5734
 8337TIP3    H249207   3.137   0.996   4.354  0.3648  1.5516  0.6516
 8338TIP3   OH249208   4.596   0.402   0.996  0.6507 -0.2213  0.0516
 8338TIP3    H149209   4.539   0.326   1.009  0.7823 -0.2886  0.2410
 8338TIP3    H249210   4.578   0.459   1.071  0.9841 -0.3402  0.2247
 8339TIP3   OH249211   2.552   6.466   0.926  0.1778  0.1517  0.1270
 8339TIP3    H149212   2.473   6.419   0.952 -0.5983  2.3024  1.9618
 8339TIP3    H249213   2.520   6.546   0.886  1.4643  0.1283 -1.0344
 8340TIP3   OH249214   0.649   1.500   3.032  0.1361  0.3072  0.1701
 8340TIP3    H149215   0.714   1.537   2.972  0.7366 -2.6658 -1.1752
 8340TIP3    H249216   0.565   1.528   2.997  0.5773  1.2124 -0.1871
 8341TIP3   OH249217   0.006   1.355   2.998  0.2128 -0.1804  0.4421
 8341TIP3    H149218  -0.030   1.399   3.074  0.7273 -0.0432  0.6147
 8341TIP3    H249219   0.077   1.300   3.033  1.3680  0.9220 -0.0739
 8342TIP3   OH249220   6.134   4.309   3.990 -0.0866 -0.0678  0.1073
 8342TIP3    H149221   6.152   4.226   3.945 -2.5970 -0.3098 -0.6012
 8342TIP3    H249222   6.211   4.363   3.972  1.2146 -1.9089 -0.1693
 8343TIP3   OH249223   5.262   1.115   0.934  0.1553  0.0157  0.9257
 8343TIP3    H149224   5.235   1.175   1.004 -0.1722  0.3220  0.5339
 8343TIP3    H249225   5.278   1.032   0.979  0.3436  0.3208  1.4293
 8344TIP3   OH249226   0.122   2.170   2.611 -0.4317  0.5012 -0.0047
 8344TIP3    H149227   0.090   2.245   2.662 -2.1773 -1.1631  1.5158
 8344TIP3    H249228   0.212   2.157   2.642 -0.3989  1.4315  0.3287
 8345TIP3   OH249229   4.435   1.088   1.337  0.3022 -0.1116 -0.3198
 8345TIP3    H149230   4.511   1.118   1.388 -0.2202  1.9665 -0.7049
 8345TIP3    H249231   4.469   1.015   1.285  1.6201 -0.2632  0.6878
 8346TIP3   OH249232   1.463   0.679   1.954 -0.2741 -0.2539  0.1683
 8346TIP3    H149233   1.390   0.686   2.016  1.3282  1.9118  1.9953
 8346TIP3    H249234   1.430   0.720   1.874 -1.4228 -0.3689  0.5510
 8347TIP3   OH249235   4.414   4.647   2.101 -0.2763  0.2714 -0.0259
 8347TIP3    H149236   4.485   4.598   2.143 -0.7057  0.3750  0.8201
 8347TIP3    H249237   4.356   4.579   2.066  0.4913  0.1812 -1.1797
 8348TIP3   OH249238   1.414   3.597   9.748 -0.2072  0.2430  0.0584
 8348TIP3    H149239   1.432   3.687   9.772 -0.0986 -0.0593  1.1841
 8348TIP3    H249240   1.451   3.545   9.820 -0.2755 -0.6938 -0.5636
 8349TIP3   OH249241   2.155   6.265   3.168  0.2282  0.2258 -0.4198
 8349TIP3    H149242   2.084   6.210   3.137 -0.1035 -0.5250  1.5114
 8349TIP3    H249243   2.230   6.205   3.175  0.1665  0.2403  0.5963
 8350TIP3   OH249244   1.467   0.627   1.541  0.4134 -0.4023  0.2036
 8350TIP3    H149245   1.520   0.595   1.468 -0.4388 -2.8216  0.5402
 8350TIP3    H249246   1.402   0.685   1.501  0.3907 -1.1514 -0.8839
 8351TIP3   OH249247   5.699   5.142   2.856  0.4460  0.6006 -0.4423
 8351TIP3    H149248   5.674   5.197   2.782  0.8936  1.6283  0.1489
 8351TIP3    H249249   5.619   5.134   2.908  0.0965 -0.2351 -1.0949
 8352TIP3   OH249250   1.964   1.034   3.431 -0.7424 -0.6327 -0.2659
 8352TIP3    H149251   1.895   0.992   3.380 -0.1335 -3.6067  1.1659
 8352TIP3    H249252   1.922   1.060   3.513 -0.3955 -1.5846  0.2239
 8353TIP3   OH249253   2.769   4.358   3.925 -0.2606 -0.4884  0.0043
 8353TIP3    H149254   2.678   4.331   3.928 -0.4393 -0.0010 -0.6478
 8353TIP3    H249255   2.811   4.293   3.867  0.0225 -1.2667  1.0489
 8354TIP3   OH249256   3.530   2.273   2.405 -0.1288 -0.0559 -0.0498
 8354TIP3    H149257   3.556   2.353   2.451  0.9495 -1.6057  2.2838
 8354TIP3    H249258   3.556   2.287   2.314  1.0763  1.8042  0.5314
 8355TIP3   OH249259   1.832   0.878   1.548  0.2534  0.0215 -0.3088
 8355TIP3    H149260   1.794   0.869   1.461 -0.2096 -0.6032 -0.0551
 8355TIP3    H249261   1.776   0.825   1.604  0.6346  0.2941  0.3446
 8356TIP3   OH249262   6.318   6.189   1.901  0.5837 -0.0508  0.5853
 8356TIP3    H149263   6.346   6.207   1.811 -1.9259  1.2610 -0.0403
 8356TIP3    H249264   6.398   6.164   1.947  1.9824 -0.5677 -1.9486
 8357TIP3   OH249265   6.669   0.413   2.238 -0.6326  0.3187 -0.1093
 8357TIP3    H149266   6.587   0.440   2.196 -0.3859  0.4377 -0.5123
 8357TIP3    H249267   6.701   0.493   2.280  0.2240  0.7318 -1.5083
 8358TIP3   OH249268   1.765   1.451   0.793 -0.1768 -0.1675  0.2408
 8358TIP3    H149269   1.719   1.535   0.797  0.0394  0.0399 -1.1861
 8358TIP3    H249270   1.699   1.390   0.760  0.5495  0.1690 -2.0006
 8359TIP3   OH249271   2.293   4.730   4.226 -0.1863  0.3475 -0.3315
 8359TIP3    H149272   2.258   4.734   4.137 -3.1290 -0.0893  0.6894
 8359TIP3    H249273   2.248   4.801   4.272 -0.6626 -0.9842  1.3701
 8360TIP3   OH249274   6.218   0.759   2.314 -0.3382 -0.3416  0.2107
 8360TIP3    H149275   6.262   0.702   2.251 -0.7237 -1.2316  0.7403
 8360TIP3    H249276   6.154   0.807   2.261  1.0238  0.7591 -0.5174
 8361TIP3   OH249277   1.447   5.973   0.650  0.8988  0.3056  0.3603
 8361TIP3    H149278   1.482   6.008   0.732  0.1444 -1.2262  1.4014
 8361TIP3    H249279   1.442   5.878   0.666 -2.4518  0.2963 -0.1766
 8362TIP3   OH249280   5.893   0.258   0.480 -0.4376  0.1229 -0.0488
 8362TIP3    H149281   5.806   0.243   0.519  0.0049 -0.4093  0.7714
 8362TIP3    H249282   5.934   0.322   0.538 -0.5227  0.8830 -0.8150
 8363TIP3   OH249283   6.318   1.206   1.743  0.1366 -0.0242 -0.4004
 8363TIP3    H149284   6.316   1.144   1.670 -0.8022  1.2959 -1.5426
 8363TIP3    H249285   6.380   1.273   1.715  1.3464 -0.5435  0.9406
 8364TIP3   OH249286   6.541   5.655   3.165  0.0245  0.6557  0.6062
 8364TIP3    H149287   6.490   5.706   3.102  1.1379  1.8159  0.6007
 8364TIP3    H249288   6.518   5.564   3.147 -0.5170  1.0327 -0.7208
 8365TIP3   OH249289   3.473   3.381   3.033  0.0478  0.0681  0.0970
 8365TIP3    H149290   3.414   3.374   2.959  0.1721  0.2652 -0.0201
 8365TIP3    H249291   3.457   3.468   3.069  1.3605  0.7458 -0.8679
 8366TIP3   OH249292   0.344   0.527   2.182  0.3121  0.2167  0.1119
 8366TIP3    H149293   0.365   0.615   2.150 -0.2598  0.3798  0.1856
 8366TIP3    H249294   0.368   0.529   2.275  0.6880  0.1646  0.0178
 8367TIP3   OH249295   4.085   4.221   1.486  0.3373  0.0877 -0.2997
 8367TIP3    H149296   4.111   4.173   1.566 -0.0179  1.0234  0.3926
 8367TIP3    H249297   4.088   4.155   1.417  0.3922 -0.8124  0.5360
 8368TIP3   OH249298   1.598   4.898   3.530 -0.7262 -0.5906  0.1665
 8368TIP3    H149299   1.537   4.830   3.499  0.9003 -1.3548 -1.5454
 8368TIP3    H249300   1.560   4.980   3.497 -1.4122 -0.9319  0.0789
 8369TIP3   OH249301   4.759   0.542   1.375  0.1021  0.0206  0.4173
 8369TIP3    H149302   4.751   0.458   1.329  2.9801  0.0231 -0.2468
 8369TIP3    H249303   4.736   0.522   1.466 -3.0002 -0.5663 -0.3548
 8370TIP3   OH249304   3.232   5.747   1.581  0.3493  0.4761  0.1231
 8370TIP3    H149305   3.194   5.821   1.533  0.7401 -0.3144 -1.4624
 8370TIP3    H249306   3.293   5.788   1.642 -1.6989  1.6512  1.5326
 8371TIP3   OH249307   1.735   4.420   2.630  0.2498 -0.5200 -0.8103
 8371TIP3    H149308   1.732   4.444   2.723  3.2020 -2.3175 -0.1012
 8371TIP3    H249309   1.654   4.369   2.616 -0.1056 -0.4777  0.8556
 8372TIP3   OH249310   4.317   0.241   3.114 -0.0929 -0.8183 -0.2179
 8372TIP3    H149311   4.237   0.198   3.083  0.3642  0.0936 -2.9019
 8372TIP3    H249312   4.328   0.316   3.056  1.0906  0.8735  2.0565
 8373TIP3   OH249313   0.513   3.569   0.674 -0.5398  0.0221  0.0861
 8373TIP3    H149314   0.555   3.606   0.597 -0.0025  1.1154  0.8948
 8373TIP3    H249315   0.585   3.535   0.727 -0.4727  2.8828  1.9995
 8374TIP3   OH249316   3.773   1.129   3.495 -0.2651 -0.3551  0.2521
 8374TIP3    H149317   3.775   1.038   3.523 -1.4088 -0.5841 -0.3481
 8374TIP3    H249318   3.825   1.131   3.415  1.0596 -0.1596  1.0991
 8375TIP3   OH249319   4.632   2.307   1.200  0.2339  0.0501 -0.4642
 8375TIP3    H149320   4.633   2.352   1.115 -2.2346 -1.6884 -1.5521
 8375TIP3    H249321   4.667   2.220   1.181  1.5887  0.2857  0.8042
 8376TIP3   OH249322   5.847   2.270   2.761 -0.7914  0.3037  0.1865
 8376TIP3    H149323   5.815   2.210   2.694 -1.0137  1.0127 -0.3508
 8376TIP3    H249324   5.883   2.345   2.713  0.3411  0.1989  0.8177
 8377TIP3   OH249325   3.284   5.222   1.936  0.0031  0.3159  0.0481
 8377TIP3    H149326   3.333   5.164   1.878  0.3438  0.3323  0.3201
 8377TIP3    H249327   3.349   5.283   1.971  0.2159 -1.0422  2.1648
 8378TIP3   OH249328   6.236   2.826   1.448  0.2181  0.0021 -0.5964
 8378TIP3    H149329   6.300   2.870   1.503 -1.7662  1.1098  0.9814
 8378TIP3    H249330   6.224   2.886   1.374  0.1029  0.4211 -0.2460
 8379TIP3   OH249331   4.435   5.073   3.533 -0.0426 -0.6958 -0.4999
 8379TIP3    H149332   4.519   5.042   3.500  1.1209  0.8936  0.7900
 8379TIP3    H249333   4.421   5.025   3.614 -0.7028 -1.3976 -1.0172
 8380TIP3   OH249334   3.552   0.287   1.045 -0.1849  0.2744 -0.5670
 8380TIP3    H149335   3.606   0.289   0.966 -1.3631  1.5955 -1.3765
 8380TIP3    H249336   3.478   0.231   1.022  0.1953 -0.5512  0.1367
 8381TIP3   OH249337   6.584   6.019   1.951  0.0067  0.2071  0.1660
 8381TIP3    H149338   6.562   6.069   1.872 -0.1525 -0.8692 -0.4957
 8381TIP3    H249339   6.679   6.030   1.961 -0.2154  1.7161  0.8081
 8382TIP3   OH249340   6.137   4.488   2.015  0.1387 -0.3919 -0.0707
 8382TIP3    H149341   6.189   4.555   1.970  0.4222 -0.1951  0.5430
 8382TIP3    H249342   6.069   4.464   1.951  0.3883  0.0544 -0.5127
 8383TIP3   OH249343   3.353   4.239   4.427 -0.2374 -1.0671  0.1235
 8383TIP3    H149344   3.426   4.300   4.415 -1.1295  0.4403  1.7460
 8383TIP3    H249345   3.275   4.293   4.414 -1.0646 -1.7459  1.9338
 8384TIP3   OH249346   2.801   1.595   2.292 -0.2584  0.5674 -0.0885
 8384TIP3    H149347   2.721   1.548   2.273  0.7337 -0.7936 -1.0865
 8384TIP3    H249348   2.780   1.687   2.273 -1.8243  0.3718  0.5800
 8385TIP3   OH249349   5.751   5.792   1.806  0.0485  1.1059 -0.3304
 8385TIP3    H149350   5.766   5.787   1.712 -0.3992  1.0195 -0.4003
 8385TIP3    H249351   5.664   5.831   1.814 -0.5704 -0.2937  0.0130
 8386TIP3   OH249352   3.153   6.611   4.908  0.4166  0.2445  0.2810
 8386TIP3    H149353   3.122   6.699   4.929  1.4202  0.7969 -0.4110
 8386TIP3    H249354   3.100   6.553   4.962 -1.5199  1.1354 -0.5769
 8387TIP3   OH249355   4.077   6.460   1.938  0.2966 -0.0856 -0.1948
 8387TIP3    H149356   4.039   6.395   1.997 -1.6917  1.0514 -0.1436
 8387TIP3    H249357   4.160   6.421   1.911  0.8106 -1.0911  2.5150
 8388TIP3   OH249358   1.042   4.769   3.308  0.3999 -0.8514 -0.0703
 8388TIP3    H149359   1.026   4.747   3.400 -0.1378 -0.2761 -0.0183
 8388TIP3    H249360   1.047   4.865   3.307 -5.1890 -0.2144 -1.3879
 8389TIP3   OH249361   3.198   1.754   1.538 -0.2021  0.0198  0.2144
 8389TIP3    H149362   3.284   1.723   1.511 -0.9968 -2.0599 -0.1232
 8389TIP3    H249363   3.187   1.838   1.493  0.7371 -0.7622 -1.5920
 8390TIP3   OH249364   2.503   5.966   1.346  0.1046  0.1192 -0.3278
 8390TIP3    H149365   2.584   6.006   1.378 -0.9406  2.2086 -0.1245
 8390TIP3    H249366   2.471   5.915   1.420  1.7133 -1.5955 -0.7468
 8391TIP3   OH249367   0.718   0.235   2.811 -0.0208  0.8378  0.2951
 8391TIP3    H149368   0.783   0.165   2.816  0.3395  1.1819  0.5095
 8391TIP3    H249369   0.640   0.193   2.774  0.5034  0.5535 -0.5093
 8392TIP3   OH249370   0.687   0.355   2.059  0.3813  0.0409  0.2198
 8392TIP3    H149371   0.765   0.347   2.004 -0.1590  0.4844 -0.6353
 8392TIP3    H249372   0.651   0.441   2.038 -0.2890 -0.1166  0.6696
 8393TIP3   OH249373   1.458   0.840   2.487  0.3909 -0.0254  0.1556
 8393TIP3    H149374   1.456   0.744   2.487  2.2754 -0.1459 -1.8383
 8393TIP3    H249375   1.504   0.863   2.406  0.7593  2.5604  1.0101
 8394TIP3   OH249376   4.928   1.421   2.219 -0.1627  0.3518 -0.2385
 8394TIP3    H149377   4.923   1.512   2.190  1.7804  0.4744 -0.3278
 8394TIP3    H249378   4.998   1.420   2.284  2.6782 -1.6726 -2.9980
 8395TIP3   OH249379   2.041   4.739   0.821 -0.3643 -0.1315 -0.0665
 8395TIP3    H149380   2.113   4.676   0.819  0.6404  0.9647  0.5181
 8395TIP3    H249381   2.000   4.725   0.906  0.8692  1.0691  0.7586
 8396TIP3   OH249382   3.368   4.770   2.914 -0.3848 -0.3473  0.4278
 8396TIP3    H149383   3.432   4.839   2.930 -0.5196 -0.4086  1.3118
 8396TIP3    H249384   3.408   4.716   2.846  0.6143 -0.4914  1.0910
 8397TIP3   OH249385   0.848   2.984   3.297 -0.5321  0.7825 -0.3703
 8397TIP3    H149386   0.818   3.014   3.383  1.3597 -0.0213  0.6517
 8397TIP3    H249387   0.900   3.057   3.263 -0.3760  0.6907 -0.3300
 8398TIP3   OH249388   3.606   2.646   3.464 -0.1406 -0.0552 -0.3646
 8398TIP3    H149389   3.620   2.682   3.552 -1.1312 -0.8811  0.1568
 8398TIP3    H249390   3.612   2.551   3.476 -1.1200 -0.2130 -1.0179
 8399TIP3   OH249391   1.681   1.782   2.233 -0.2862 -0.2229  0.1381
 8399TIP3    H149392   1.697   1.713   2.168  0.9277 -0.2445  0.4414
 8399TIP3    H249393   1.625   1.845   2.187  1.4303  0.3111 -1.3324
 8400TIP3   OH249394   4.246   3.561   2.475 -0.2882  0.2689 -0.3952
 8400TIP3    H149395   4.249   3.656   2.488  3.2094  0.3937 -1.1364
 8400TIP3    H249396   4.259   3.548   2.381 -1.4877 -0.9818 -0.4290
 8401TIP3   OH249397   5.370   4.654   1.767 -0.6848 -0.3114  0.0615
 8401TIP3    H149398   5.290   4.623   1.725 -0.2825 -0.2915 -0.7390
 8401TIP3    H249399   5.424   4.576   1.776 -0.8197 -0.3407  0.6868
 8402TIP3   OH249400   6.441   1.290   1.089 -0.2185  0.8716 -0.4357
 8402TIP3    H149401   6.509   1.316   1.027  0.0684  0.8701 -0.1195
 8402TIP3    H249402   6.362   1.282   1.035 -0.8068  4.2526 -0.2814
 8403TIP3   OH249403   6.568   1.204   3.260 -0.1726  0.0680  0.3661
 8403TIP3    H149404   6.532   1.180   3.175 -2.9646  0.1989  1.3880
 8403TIP3    H249405   6.569   1.300   3.259  2.1076  0.0944 -0.3262
 8404TIP3   OH249406   0.958   5.815   1.809  0.1752 -0.0662  0.5008
 8404TIP3    H149407   0.942   5.805   1.715  0.8830 -0.1389  0.3803
 8404TIP3    H249408   0.877   5.851   1.844 -0.9824 -2.2433  0.2384
 8405TIP3   OH249409   5.648   6.445   2.629  0.0941 -0.0467 -0.5650
 8405TIP3    H149410   5.597   6.467   2.552 -0.5036  0.8531  0.0729
 8405TIP3    H249411   5.592   6.384   2.678  0.5181 -0.7038 -0.8915
 8406TIP3   OH249412   1.185   6.044   0.598  0.3702 -0.3898  0.2709
 8406TIP3    H149413   1.273   6.016   0.625  0.1339 -0.1222  1.3433
 8406TIP3    H249414   1.147   5.966   0.558  0.6702 -0.8551  0.8675
 8407TIP3   OH249415   0.053   6.355   3.574 -0.1698  0.3779  0.0933
 8407TIP3    H149416   0.041   6.438   3.621 -0.8577  0.4284 -0.1633
 8407TIP3    H249417   0.038   6.288   3.639  2.6829  0.4027  0.9140
 8408TIP3   OH249418   4.530   0.872   1.156  0.5333  0.2978  0.2095
 8408TIP3    H149419   4.465   0.900   1.091  0.4061 -0.2219  0.1099
 8408TIP3    H249420   4.614   0.895   1.117  0.4145  0.9290  0.3162
 8409TIP3   OH249421   4.645   5.311   3.592 -0.0185  0.4453 -0.4291
 8409TIP3    H149422   4.628   5.338   3.683 -1.9470 -1.1857 -0.2512
 8409TIP3    H249423   4.668   5.219   3.599  0.2984  0.4315 -1.5703
 8410TIP3   OH249424   2.374   3.407   3.848 -0.2895  0.1074  0.5351
 8410TIP3    H149425   2.351   3.413   3.755 -0.7982 -0.9127  0.5755
 8410TIP3    H249426   2.407   3.494   3.871  0.0577  0.2985 -0.6552
 8411TIP3   OH249427   1.841   0.290   2.382  0.4038  0.4565  0.3856
 8411TIP3    H149428   1.745   0.292   2.385  0.3902  0.1258  0.1640
 8411TIP3    H249429   1.865   0.208   2.425  0.5865  0.5013  0.3701
 8412TIP3   OH249430   5.230   2.806   2.243 -0.5490  0.2565  0.6660
 8412TIP3    H149431   5.211   2.900   2.243  0.0412  0.3795  0.3863
 8412TIP3    H249432   5.324   2.800   2.263 -0.1600 -0.1846 -1.1276
 8413TIP3   OH249433   2.126   1.005   3.196  0.2438  0.1256  0.3035
 8413TIP3    H149434   2.105   1.097   3.182 -0.2977 -0.0645 -0.1732
 8413TIP3    H249435   2.043   0.966   3.225  0.4720 -0.2064  0.5124
 8414TIP3   OH249436   2.453   5.166   4.063 -0.2707 -0.0584 -0.0900
 8414TIP3    H149437   2.436   5.169   4.157 -2.9897 -1.0968 -0.4586
 8414TIP3    H249438   2.406   5.243   4.028 -0.8554 -0.7025 -0.7559
 8415TIP3   OH249439   2.239   1.048   2.811  0.6238 -0.1355 -0.1737
 8415TIP3    H149440   2.217   1.116   2.748  0.0773 -0.0085  0.1396
 8415TIP3    H249441   2.154   1.020   2.846  0.9561  0.7513  1.4805
 8416TIP3   OH249442   3.206   2.866   3.482  0.3978 -0.8700 -0.9989
 8416TIP3    H149443   3.203   2.771   3.467 -0.4804 -0.7472 -1.6718
 8416TIP3    H249444   3.204   2.875   3.578  2.4908 -1.5680 -0.8341
 8417TIP3   OH249445   4.120   2.460   2.028 -0.5317 -0.4290 -0.1739
 8417TIP3    H149446   4.201   2.419   1.999  0.4604  0.5078  1.1480
 8417TIP3    H249447   4.073   2.390   2.074  0.7520 -0.3566  1.3267
 8418TIP3   OH249448   3.496   4.495   1.314 -0.4149  0.2677 -0.0084
 8418TIP3    H149449   3.580   4.458   1.288 -0.4767 -0.6452  1.0017
 8418TIP3    H249450   3.519   4.573   1.365 -0.2843  1.6954 -2.1268
 8419TIP3   OH249451   4.504   0.548   1.203 -0.1532  0.5674 -0.2058
 8419TIP3    H149452   4.548   0.613   1.258  1.5336  0.0209 -0.8352
 8419TIP3    H249453   4.413   0.579   1.197  0.5188  2.7120 -0.2625
 8420TIP3   OH249454   1.286   5.385   2.701  0.3179  0.0425 -0.2117
 8420TIP3    H149455   1.286   5.290   2.692  0.3082 -0.0615  0.7755
 8420TIP3    H249456   1.368   5.413   2.662  0.7565 -0.4647  0.3296
 8421TIP3   OH249457   2.196   0.635   2.373  0.1222  0.4408  0.2758
 8421TIP3    H149458   2.130   0.701   2.394 -0.9668 -0.7507  0.7182
 8421TIP3    H249459   2.200   0.634   2.278 -0.6046  0.4357  0.2386
 8422TIP3   OH249460   5.466   5.474   3.954  0.3736  0.2603  0.1137
 8422TIP3    H149461   5.514   5.404   3.911 -0.7731  0.2147 -1.1794
 8422TIP3    H249462   5.412   5.512   3.884  0.1236  1.6786  1.0379
 8423TIP3   OH249463   1.178   5.786   4.352 -0.4632 -0.3958 -0.4744
 8423TIP3    H149464   1.169   5.756   4.443  1.2062 -0.1338 -0.1974
 8423TIP3    H249465   1.137   5.716   4.300 -0.7740 -0.9027  0.4208
 8424TIP3   OH249466   4.791   2.015   2.893  0.1997 -0.0561  0.1672
 8424TIP3    H149467   4.783   1.946   2.827 -0.2222  0.5280 -0.3948
 8424TIP3    H249468   4.727   1.992   2.960  1.4173 -1.2898  0.9794
 8425TIP3   OH249469   3.722   6.332   2.655  0.8415  0.0300  0.4874
 8425TIP3    H149470   3.726   6.237   2.655  1.1042  0.0349 -0.4846
 8425TIP3    H249471   3.646   6.353   2.709 -0.2846 -0.7893 -0.7306
 8426TIP3   OH249472   0.804   0.665   3.031  0.2267  0.0650 -0.3987
 8426TIP3    H149473   0.818   0.591   2.972 -0.4897  0.7906 -1.5085
 8426TIP3    H249474   0.884   0.716   3.026  0.7709 -0.6786  0.4623
 8427TIP3   OH249475   1.648   0.725   1.753 -0.8891  0.0822  0.1148
 8427TIP3    H149476   1.614   0.689   1.835 -0.1125 -0.1676  0.3350
 8427TIP3    H249477   1.610   0.671   1.684 -0.7913 -0.3093  0.3688
 8428TIP3   OH249478   1.326   6.551   1.119 -0.2089 -0.0547  0.8854
 8428TIP3    H149479   1.287   6.467   1.140  0.9246 -0.2403  2.4821
 8428TIP3    H249480   1.398   6.560   1.182  1.8028  0.6071 -1.3591
 8429TIP3   OH249481   5.246   5.221   3.704 -0.2132 -0.5717  0.6359
 8429TIP3    H149482   5.280   5.136   3.730 -0.6531 -0.3235  2.1370
 8429TIP3    H249483   5.321   5.280   3.710  0.7093 -1.1927 -2.7107
 8430TIP3   OH249484   1.287   3.168   3.259 -0.8609  0.3350  0.2117
 8430TIP3    H149485   1.354   3.099   3.261 -0.3848  0.6936 -1.4614
 8430TIP3    H249486   1.263   3.181   3.350  1.9078  0.7094  0.9890
 8431TIP3   OH249487   1.141   5.238   2.155  0.2967  0.0048 -0.4408
 8431TIP3    H149488   1.204   5.293   2.110 -0.9058  3.0959  1.3655
 8431TIP3    H249489   1.057   5.259   2.115 -0.1110 -1.0646 -0.1794
 8432TIP3   OH249490   5.659   4.164   1.804  0.2648  1.0035 -0.3357
 8432TIP3    H149491   5.566   4.146   1.789  0.4861  0.4539 -1.1134
 8432TIP3    H249492   5.699   4.156   1.717  1.6230 -2.1871  0.4427
 8433TIP3   OH249493   2.345   6.039   3.158 -0.2541  0.3484  0.2908
 8433TIP3    H149494   2.338   5.990   3.076 -0.2393 -2.4605  1.8451
 8433TIP3    H249495   2.402   6.113   3.137 -0.2238 -0.2876 -2.2007
 8434TIP3   OH249496   1.347   3.547   3.548  0.0809  0.0139 -0.1115
 8434TIP3    H149497   1.370   3.469   3.599 -0.3824 -0.1241 -0.1043
 8434TIP3    H249498   1.345   3.516   3.457 -1.0070 -0.2207 -0.0296
 8435TIP3   OH249499   5.960   2.229   0.974  0.4094  0.6933 -0.1211
 8435TIP3    H149500   6.046   2.203   0.943  1.2221 -2.2705  3.7801
 8435TIP3    H249501   5.925   2.151   1.016 -3.4065  2.3297  0.2048
 8436TIP3   OH249502   6.300   3.733   1.924 -0.2124 -0.8885  0.7735
 8436TIP3    H149503   6.327   3.822   1.943  0.4890 -1.0014  0.3409
 8436TIP3    H249504   6.209   3.729   1.953 -0.5632  0.2477 -0.1231
 8437TIP3   OH249505   4.903   3.087   2.992  0.2143 -0.2448 -0.0786
 8437TIP3    H149506   4.827   3.112   2.939 -0.3236 -0.6754  0.4739
 8437TIP3    H249507   4.973   3.145   2.962 -0.7616  1.3067  0.5519
 8438TIP3   OH249508   1.197   2.102   3.060 -0.2137  0.4787 -0.2650
 8438TIP3    H149509   1.129   2.049   3.019  0.0210  0.1291 -0.2115
 8438TIP3    H249510   1.153   2.152   3.128  0.2738 -3.1811  3.0520
 8439TIP3   OH249511   0.924   0.311   3.408 -0.8179  0.0162 -0.2818
 8439TIP3    H149512   0.910   0.388   3.353 -2.4012 -0.3391 -0.4142
 8439TIP3    H249513   0.901   0.237   3.352 -0.1898 -0.5172  0.1387
 8440TIP3   OH249514   0.334   6.571   2.534  0.2135  0.3567 -0.2704
 8440TIP3    H149515   0.376   6.563   2.620 -1.9234  0.2192  0.8480
 8440TIP3    H249516   0.303   6.661   2.531  0.0606  0.2886 -0.7916
 8441TIP3   OH249517   4.926   3.920   0.638  0.1927  0.6349  0.5836
 8441TIP3    H149518   4.914   4.013   0.618 -0.0840  0.7649  1.3427
 8441TIP3    H249519   5.006   3.896   0.591  0.4101  1.3198  0.5905
 8442TIP3   OH249520   2.058   1.776   1.248  0.1463  0.0741 -0.3157
 8442TIP3    H149521   1.999   1.708   1.283 -0.0863  0.7517  0.6479
 8442TIP3    H249522   2.110   1.803   1.324  1.4206 -0.2075 -1.0663
 8443TIP3   OH249523   1.444   3.989   1.144  0.6073 -0.4869  0.5385
 8443TIP3    H149524   1.425   4.082   1.154 -1.0289 -0.6632 -0.5720
 8443TIP3    H249525   1.539   3.986   1.129  0.4785  1.1748 -1.0132
 8444TIP3   OH249526   0.645   4.361   3.235 -0.2287  0.0374 -0.7010
 8444TIP3    H149527   0.677   4.378   3.323 -1.9377  0.2505 -0.0859
 8444TIP3    H249528   0.644   4.447   3.192  0.2157 -0.0065 -0.8064
 8445TIP3   OH249529   6.309   4.345   0.705  0.0941  0.0078 -0.2179
 8445TIP3    H149530   6.313   4.432   0.666  0.7861  0.5564  1.0017
 8445TIP3    H249531   6.393   4.335   0.751  0.6316 -1.8818 -1.4865
 8446TIP3   OH249532   4.977   6.611   1.897 -0.0684  0.6337 -0.3069
 8446TIP3    H149533   5.051   6.660   1.860 -0.6136  1.3303 -0.5073
 8446TIP3    H249534   4.910   6.612   1.828 -0.5523  0.6874  0.1523
 8447TIP3   OH249535   0.264   6.371   3.865  0.2917  0.1757 -0.3030
 8447TIP3    H149536   0.218   6.445   3.825  1.3905  1.8304  1.3989
 8447TIP3    H249537   0.214   6.351   3.944 -0.9122 -2.0186 -1.5018
 8448TIP3   OH249538   1.714   6.098   2.210  0.4716 -0.2349  0.0105
 8448TIP3    H149539   1.661   6.121   2.287 -1.1741  0.1439 -1.1648
 8448TIP3    H249540   1.804   6.113   2.237 -0.1234  0.8065  1.5601
 8449TIP3   OH249541   3.286   5.212   3.536  0.0261 -0.4476  0.6158
 8449TIP3    H149542   3.255   5.157   3.464 -0.0929 -1.5519  1.4738
 8449TIP3    H249543   3.313   5.149   3.604  1.7666  0.5268  0.8758
 8450TIP3   OH249544   0.535   3.910   0.610  0.1995  0.0322  0.0836
 8450TIP3    H149545   0.580   3.995   0.614  1.7365 -0.7704  0.7987
 8450TIP3    H249546   0.602   3.849   0.580 -0.3088 -1.2928  1.5027
 8451TIP3   OH249547   4.583   1.566   2.969  0.2012 -0.2347 -0.2405
 8451TIP3    H149548   4.670   1.577   2.931  0.7944 -1.3089  0.7188
 8451TIP3    H249549   4.593   1.593   3.061 -0.4312 -0.5225 -0.0792
 8452TIP3   OH249550   6.224   2.072   2.370  0.6244  0.7636  0.2044
 8452TIP3    H149551   6.223   1.977   2.377 -3.0489  0.7347  1.6802
 8452TIP3    H249552   6.218   2.090   2.276 -0.1189 -0.5161 -0.0059
 8453TIP3   OH249553   3.289   2.315   1.916 -0.3093  0.2234  0.4583
 8453TIP3    H149554   3.372   2.354   1.891  0.4447 -1.1833  0.6746
 8453TIP3    H249555   3.245   2.383   1.968 -0.3437  1.8372 -1.5827
 8454TIP3   OH249556   0.190   0.981   2.352 -0.1055 -0.5012 -0.1508
 8454TIP3    H149557   0.144   0.950   2.273 -1.0724 -0.4401  0.3686
 8454TIP3    H249558   0.170   0.915   2.418 -3.2471  1.7051  1.3387
 8455TIP3   OH249559   3.244   1.875   0.878  0.2021  0.1689  0.5457
 8455TIP3    H149560   3.263   1.788   0.842 -0.3664 -0.0267  0.7046
 8455TIP3    H249561   3.282   1.874   0.966 -0.2712 -0.1144  0.7513
 8456TIP3   OH249562   4.973   6.394   1.241  0.0143  0.3173  0.3987
 8456TIP3    H149563   4.945   6.429   1.156  1.2322 -0.3632 -0.3167
 8456TIP3    H249564   5.050   6.341   1.220 -0.8549 -1.5252  1.6693
 8457TIP3   OH249565   6.479   4.644   3.528  0.2042 -0.0547 -0.0768
 8457TIP3    H149566   6.429   4.696   3.465 -0.9721 -0.2366  0.6770
 8457TIP3    H249567   6.487   4.701   3.605 -0.8712 -0.8418  0.6614
 8458TIP3   OH249568   2.114   2.534   1.714  0.2998 -0.1903 -0.2145
 8458TIP3    H149569   2.066   2.467   1.664  1.1490 -0.3125 -0.8904
 8458TIP3    H249570   2.156   2.588   1.647  2.8464 -1.3472  0.3314
 8459TIP3   OH249571   2.964   2.840   1.207 -0.2995  0.5063  0.1144
 8459TIP3    H149572   2.874   2.874   1.204 -0.6389 -0.2403  1.0964
 8459TIP3    H249573   3.016   2.913   1.238 -0.6985  0.7210  0.2864
 8460TIP3   OH249574   4.583   0.303   3.490  0.1728 -0.2899  0.4711
 8460TIP3    H149575   4.508   0.361   3.476  0.0457 -0.6236 -0.2772
 8460TIP3    H249576   4.583   0.286   3.584  0.7205  1.5866  0.8474
 8461TIP3   OH249577   1.880   6.061   2.630 -0.3158  0.0541  0.1812
 8461TIP3    H149578   1.855   5.982   2.582 -1.3255 -0.2849  1.2286
 8461TIP3    H249579   1.956   6.035   2.682  0.1734  0.1570 -0.4613
 8462TIP3   OH249580   0.525   0.676   3.084  0.4952 -0.2130 -0.3029
 8462TIP3    H149581   0.619   0.689   3.068  1.0635 -1.4935  1.6648
 8462TIP3    H249582   0.506   0.591   3.045  0.9057 -1.3443  1.7962
 8463TIP3   OH249583   1.854   4.994   1.102 -0.2490 -0.0535 -0.6469
 8463TIP3    H149584   1.883   5.045   1.177 -3.3837 -0.8268  1.2860
 8463TIP3    H249585   1.787   5.048   1.060  0.4030 -0.2665 -2.0354
 8464TIP3   OH249586   1.538   4.006   3.091 -0.5476  0.1330 -0.6326
 8464TIP3    H149587   1.612   3.993   3.150  0.2748  3.3712 -0.7728
 8464TIP3    H249588   1.465   3.960   3.134  0.5576  0.3735  1.6795
 8465TIP3   OH249589   1.071   2.712   2.580  0.1274 -0.5385  0.1467
 8465TIP3    H149590   1.110   2.727   2.494 -0.5795  0.3710 -0.0216
 8465TIP3    H249591   1.145   2.684   2.635  0.5262 -1.4342 -0.8191
 8466TIP3   OH249592   0.717   1.043   1.714  0.5965 -0.5349 -0.4108
 8466TIP3    H149593   0.678   0.958   1.733  1.3463 -1.1509 -1.5105
 8466TIP3    H249594   0.649   1.107   1.736  0.5349 -1.3060  1.8585
 8467TIP3   OH249595   0.576   4.837   4.366  0.4985 -0.0218  0.0480
 8467TIP3    H149596   0.571   4.742   4.379 -0.4102  0.1292  0.9093
 8467TIP3    H249597   0.515   4.854   4.294 -0.9252  0.1354  1.2558
 8468TIP3   OH249598   3.258   2.308   1.633  0.0874  0.0104 -0.3692
 8468TIP3    H149599   3.172   2.345   1.614 -0.1302 -0.3655 -0.1225
 8468TIP3    H249600   3.283   2.345   1.717  0.1058  0.0083 -0.3737
 8469TIP3   OH249601   2.589   6.285   3.526  0.4151  0.0609  0.6968
 8469TIP3    H149602   2.542   6.343   3.467  0.1078 -0.6788  0.2027
 8469TIP3    H249603   2.561   6.312   3.614 -3.4850 -2.3444  0.4189
 8470TIP3   OH249604   0.630   4.675   1.855  0.5849 -0.0844  0.1279
 8470TIP3    H149605   0.688   4.628   1.915  0.5511  0.9364  0.9805
 8470TIP3    H249606   0.606   4.610   1.789  2.7717 -0.5241 -0.3074
 8471TIP3   OH249607   1.358   2.411   3.495 -0.2971  0.1677  0.2008
 8471TIP3    H149608   1.273   2.447   3.523  0.0421  0.3310  1.0337
 8471TIP3    H249609   1.399   2.379   3.575  0.9723  1.2385  0.0212
 8472TIP3   OH249610   4.089   1.660   0.378  0.2231  0.2316 -0.3406
 8472TIP3    H149611   4.122   1.665   0.468 -1.4839 -0.1123  0.3258
 8472TIP3    H249612   4.154   1.708   0.327  1.4851  0.0180  0.9892
 8473TIP3   OH249613   5.979   1.912   3.390  0.6495 -0.1600 -0.4315
 8473TIP3    H149614   5.921   1.987   3.400  0.6851 -0.2589  0.6077
 8473TIP3    H249615   5.954   1.853   3.462  0.6945 -1.0962 -1.1612
 8474TIP3   OH249616   4.182   5.618   1.097  0.0982  0.3014  0.2576
 8474TIP3    H149617   4.113   5.672   1.136  0.3037 -0.9561  2.5414
 8474TIP3    H249618   4.136   5.562   1.034 -0.9457 -0.2273  1.4371
 8475TIP3   OH249619   0.237   2.491   3.116 -0.5273  0.4058 -0.9163
 8475TIP3    H149620   0.210   2.461   3.202 -1.9665 -0.0543 -1.4930
 8475TIP3    H249621   0.316   2.440   3.096 -1.5563 -1.2728 -0.8633
 8476TIP3   OH249622   2.606   6.534   3.127 -0.2281 -0.0370 -0.0859
 8476TIP3    H149623   2.560   6.596   3.070  1.4834  0.7349 -0.6993
 8476TIP3    H249624   2.692   6.524   3.086  0.4614 -0.7519  1.4712
 8477TIP3   OH249625   1.312   4.843   1.711 -0.0696  0.6995 -0.3458
 8477TIP3    H149626   1.301   4.918   1.769  2.5183 -0.7192  2.3001
 8477TIP3    H249627   1.401   4.851   1.678  1.0392 -1.9821  1.5472
 8478TIP3   OH249628   5.013   1.974   0.502 -0.6410  0.0793 -0.0392
 8478TIP3    H149629   4.965   1.907   0.453 -2.7639  1.0749  0.5730
 8478TIP3    H249630   4.954   1.998   0.573  0.4802  1.9195  0.3180
 8479TIP3   OH249631   1.136   1.348   3.275  0.0248 -0.3333 -0.5195
 8479TIP3    H149632   1.133   1.386   3.363  0.1812  1.3698 -1.1923
 8479TIP3    H249633   1.216   1.383   3.237  0.4782 -1.8503 -1.0228
 8480TIP3   OH249634   0.643   5.915   2.568  0.1907 -0.3457 -0.3190
 8480TIP3    H149635   0.693   5.842   2.605  2.2143  0.6673 -0.9195
 8480TIP3    H249636   0.605   5.879   2.488  0.8514 -0.8647 -0.4121
 8481TIP3   OH249637   4.364   2.243   2.781 -0.5717  0.1377 -0.0519
 8481TIP3    H149638   4.331   2.287   2.703  0.5480  0.9044 -0.1200
 8481TIP3    H249639   4.374   2.313   2.846  0.6473 -0.0957  0.0393
 8482TIP3   OH249640   3.629   2.861   3.078  0.2625  0.0134 -0.0611
 8482TIP3    H149641   3.540   2.856   3.111  0.6649 -0.6445  0.9873
 8482TIP3    H249642   3.658   2.770   3.072  0.8707  0.2166 -0.3593
 8483TIP3   OH249643   6.522   4.852   2.520  0.2820 -0.2689  1.1882
 8483TIP3    H149644   6.492   4.806   2.442 -1.2900  2.1946  0.2268
 8483TIP3    H249645   6.617   4.836   2.522  0.1679 -1.3912 -0.5077
 8484TIP3   OH249646   4.296   4.149   2.984  0.3363 -0.7426  0.1348
 8484TIP3    H149647   4.303   4.059   3.015 -0.4170 -0.8006  0.1529
 8484TIP3    H249648   4.288   4.201   3.065  1.1601 -0.6111  0.1436
 8485TIP3   OH249649   3.532   0.583   1.740 -1.1186  0.1029  0.8873
 8485TIP3    H149650   3.627   0.577   1.732 -1.2609  0.3499 -2.2739
 8485TIP3    H249651   3.499   0.504   1.697 -2.3649 -0.0091  1.9741
 8486TIP3   OH249652   3.722   5.978   3.025  0.2263  0.4283  0.6417
 8486TIP3    H149653   3.787   6.039   3.060 -0.3070  1.1702  0.3443
 8486TIP3    H249654   3.654   5.974   3.092 -0.3499  1.1468  0.1185
 8487TIP3   OH249655   3.495   1.730   0.953 -0.1290 -0.2918  0.6325
 8487TIP3    H149656   3.485   1.694   1.041  0.1305 -1.8024  0.0687
 8487TIP3    H249657   3.446   1.670   0.896 -0.4121  0.7389 -0.2458
 8488TIP3   OH249658   3.592   6.413   2.884  0.6373 -0.0594  0.2171
 8488TIP3    H149659   3.545   6.384   2.962 -0.6138  0.6948 -0.2305
 8488TIP3    H249660   3.667   6.462   2.918  1.5815 -1.9108  0.9501
 8489TIP3   OH249661   1.676   5.582   1.067 -0.5074 -0.3126  0.2493
 8489TIP3    H149662   1.685   5.517   0.997  1.0488 -0.5306  0.6311
 8489TIP3    H249663   1.613   5.646   1.032 -1.2811 -1.4660 -0.5372
 8490TIP3   OH249664   1.240   3.412   1.560 -0.1216  0.1960  0.2745
 8490TIP3    H149665   1.334   3.420   1.542 -0.5528  0.5642 -2.2048
 8490TIP3    H249666   1.204   3.496   1.533 -1.4798 -0.9012 -1.5887
 8491TIP3   OH249667   0.940   6.166   0.648 -0.3985 -0.6691 -0.2791
 8491TIP3    H149668   1.027   6.158   0.686 -0.6942  0.7529  0.8115
 8491TIP3    H249669   0.925   6.084   0.602  1.8739 -0.5746 -1.2730
 8492TIP3   OH249670   2.127   5.284   1.443  0.1554 -0.7408 -0.3616
 8492TIP3    H149671   2.214   5.247   1.427  0.0275 -1.4898  0.5414
 8492TIP3    H249672   2.117   5.353   1.378  2.2689  0.7803  0.7856
 8493TIP3   OH249673   0.508   5.934   4.351 -0.2010  0.2014  0.5241
 8493TIP3    H149674   0.462   5.882   4.284 -1.1021 -0.0341  1.2940
 8493TIP3    H249675   0.501   5.881   4.431  2.4281 -0.3682  0.4475
 8494TIP3   OH249676   1.624   6.599   3.004 -0.8408  0.0439  0.0745
 8494TIP3    H149677   1.556   6.653   2.963 -0.7859 -0.2319 -0.3849
 8494TIP3    H249678   1.631   6.523   2.947  2.7088  1.8899 -2.3336
 8495TIP3   OH249679   3.201   2.258   1.160 -0.0583 -0.2469  0.1703
 8495TIP3    H149680   3.139   2.309   1.108 -0.6580  0.3332  1.4005
 8495TIP3    H249681   3.155   2.240   1.242  1.1167 -0.4764  0.8103
 8496TIP3   OH249682   0.158   6.390   4.141 -0.3980  0.3905  0.1596
 8496TIP3    H149683   0.147   6.341   4.222  1.6438  0.9543  0.8494
 8496TIP3    H249684   0.144   6.482   4.166  0.0407  0.5481 -0.1504
 8497TIP3   OH249685   4.591   4.233   3.154 -0.6919 -0.1737  0.1330
 8497TIP3    H149686   4.662   4.289   3.185  0.2201 -0.9148 -0.5572
 8497TIP3    H249687   4.576   4.171   3.225  0.3595 -0.9181 -0.2690
 8498TIP3   OH249688   0.927   0.070   2.202  0.2398 -0.5213 -0.0093
 8498TIP3    H149689   0.903   0.103   2.289 -0.3081  0.8874 -0.6623
 8498TIP3    H249690   0.910  -0.024   2.207 -1.3918 -0.2234  0.9126
 8499TIP3   OH249691   4.109   5.262   3.200 -0.7886 -0.1518 -0.3583
 8499TIP3    H149692   4.148   5.331   3.255  0.3084  0.7166 -2.1518
 8499TIP3    H249693   4.148   5.181   3.233 -1.4615  0.1267  1.2367
 8500TIP3   OH249694   6.585   1.893   2.093 -0.2337  0.5698  0.1494
 8500TIP3    H149695   6.616   1.833   2.160  0.7443 -0.5070 -1.2273
 8500TIP3    H249696   6.657   1.954   2.080  0.1306 -0.0562 -0.8678
 8501TIP3   OH249697   1.824   5.712   3.186  0.4532 -0.0435  0.3770
 8501TIP3    H149698   1.771   5.672   3.117  2.1017 -1.5699 -0.0550
 8501TIP3    H249699   1.804   5.661   3.265  2.0697 -1.3492 -0.0309
 8502TIP3   OH249700   2.980   3.225   2.581  0.0527 -0.3286 -0.2372
 8502TIP3    H149701   2.945   3.310   2.554 -0.3296 -0.1383  0.8087
 8502TIP3    H249702   2.964   3.168   2.506 -0.2494  0.3685 -0.7194
 8503TIP3   OH249703   0.301   4.570   1.873  0.1027 -0.0596 -0.5323
 8503TIP3    H149704   0.316   4.646   1.816  2.0971 -1.1869 -1.6365
 8503TIP3    H249705   0.216   4.586   1.913  0.0586  2.3168 -1.4142
 8504TIP3   OH249706   4.660   6.252   3.859 -0.2657  0.4290  0.8682
 8504TIP3    H149707   4.649   6.198   3.781 -3.3860 -0.0457  1.5097
 8504TIP3    H249708   4.688   6.191   3.928 -0.3605  0.3074  0.7976
 8505TIP3   OH249709   2.584   0.177   2.474  0.3921  0.4887 -0.3544
 8505TIP3    H149710   2.610   0.207   2.561 -1.7620  0.9800  0.1809
 8505TIP3    H249711   2.638   0.100   2.458  0.2907 -0.0718  1.7691
 8506TIP3   OH249712   0.832   6.584   3.433 -0.3941 -0.3146 -0.3632
 8506TIP3    H149713   0.859   6.500   3.470  0.4994  0.6745  1.3282
 8506TIP3    H249714   0.784   6.628   3.503 -1.8929  0.1341 -1.6116
 8507TIP3   OH249715   1.783   4.688   1.757  0.1439  0.2187 -0.3659
 8507TIP3    H149716   1.762   4.733   1.840 -0.6156  0.4150 -0.6567
 8507TIP3    H249717   1.877   4.704   1.745 -0.3220  2.9172 -1.1388
 8508TIP3   OH249718   3.385   0.227   1.351 -0.6206 -0.1265 -0.1764
 8508TIP3    H149719   3.442   0.151   1.366  0.9988  1.0325 -0.0914
 8508TIP3    H249720   3.302   0.190   1.322  0.0742 -1.9281 -0.0018
 8509TIP3   OH249721   6.115   2.336   2.419  0.3207  0.4991 -0.6592
 8509TIP3    H149722   6.022   2.355   2.410 -0.0969 -1.5889 -1.2813
 8509TIP3    H249723   6.120   2.241   2.425  2.3439  0.6125  0.5622
 8510TIP3   OH249724   0.384   2.108   2.295 -0.4429 -0.3010 -0.2290
 8510TIP3    H149725   0.426   2.194   2.293  2.3818 -1.5435  0.7678
 8510TIP3    H249726   0.456   2.046   2.283 -2.3889 -2.5609 -0.8772
 8511TIP3   OH249727   4.777   0.204   3.789 -0.2492  0.5101  0.0330
 8511TIP3    H149728   4.808   0.230   3.876 -0.8062  1.1412  0.0569
 8511TIP3    H249729   4.725   0.279   3.759 -1.2675 -0.2837 -0.2357
 8512TIP3   OH249730   4.265   1.691   1.970 -0.5540 -0.1832 -0.0905
 8512TIP3    H149731   4.287   1.774   1.927  0.4558  0.1082  0.9265
 8512TIP3    H249732   4.322   1.627   1.927 -0.3225 -0.0920  0.0801
 8513TIP3   OH249733   3.302   3.655   1.580 -0.3226 -0.0976  0.1018
 8513TIP3    H149734   3.348   3.577   1.548  0.8134  1.2845 -1.9125
 8513TIP3    H249735   3.215   3.649   1.542 -0.4724 -0.7369  0.5451
 8514TIP3   OH249736   4.478   0.630   1.488  0.5695  0.3034  0.2404
 8514TIP3    H149737   4.566   0.616   1.524  0.6269  0.0799  0.0186
 8514TIP3    H249738   4.420   0.584   1.549  0.5453  0.9224  0.6984
 8515TIP3   OH249739   1.404   6.180   1.679 -0.2206  0.2406 -0.1247
 8515TIP3    H149740   1.407   6.106   1.619  2.3815 -2.7580  3.2949
 8515TIP3    H249741   1.352   6.149   1.753 -0.2073  2.3883  0.8641
 8516TIP3   OH249742   5.615   5.902   1.140  0.0110 -0.3262  0.1245
 8516TIP3    H149743   5.693   5.892   1.086 -0.3823 -0.8466 -0.3676
 8516TIP3    H249744   5.542   5.893   1.079 -0.4406 -0.2030  0.6312
 8517TIP3   OH249745   0.761   0.517   2.792  0.0255  0.4480 -0.5647
 8517TIP3    H149746   0.672   0.548   2.776  0.6677  1.2849 -2.9812
 8517TIP3    H249747   0.755   0.422   2.780 -0.9635  0.1592  1.7711
 8518TIP3   OH249748   3.289   3.011   0.696  0.0748 -0.2870 -0.4595
 8518TIP3    H149749   3.203   2.969   0.688 -0.4442  0.3336  1.3328
 8518TIP3    H249750   3.351   2.945   0.666 -0.8659 -1.6907  0.5350
 8519TIP3   OH249751   5.968   4.821   1.205 -0.3626  0.6843  0.1741
 8519TIP3    H149752   6.034   4.839   1.137  2.8448  0.2135  2.9259
 8519TIP3    H249753   5.928   4.906   1.222  0.2183  1.1907 -0.8901
 8520TIP3   OH249754   2.554   2.541   3.077 -0.0955  0.0348  0.6921
 8520TIP3    H149755   2.581   2.513   3.165 -0.7834 -0.0785  0.8751
 8520TIP3    H249756   2.469   2.581   3.090 -0.6116 -0.7821 -0.0466
 8521TIP3   OH249757   6.012   5.007   2.567 -0.1289  0.4407  0.4658
 8521TIP3    H149758   5.990   4.926   2.522 -0.5158  0.8987 -0.1845
 8521TIP3    H249759   6.108   5.008   2.570 -0.0294  1.0210 -1.5254
 8522TIP3   OH249760   4.893   3.367   0.986 -0.1927  0.2770  0.0522
 8522TIP3    H149761   4.907   3.447   0.935  1.2083  0.7574  1.1054
 8522TIP3    H249762   4.978   3.349   1.026 -0.6321 -1.4391  0.2958
 8523TIP3   OH249763   1.318   0.805   1.753  0.6544 -0.1016 -0.1228
 8523TIP3    H149764   1.309   0.734   1.690 -0.3569 -0.8289  0.7955
 8523TIP3    H249765   1.239   0.798   1.808  1.0779  1.0492  0.6662
 8524TIP3   OH249766   0.014   3.328   2.643 -0.1057  0.0981  0.0636
 8524TIP3    H149767  -0.009   3.317   2.551 -0.0103  2.1186 -0.2632
 8524TIP3    H249768  -0.044   3.398   2.674 -1.3632 -1.6979  2.0601
 8525TIP3   OH249769   2.381   4.913   0.513 -0.3560 -0.4260 -0.0755
 8525TIP3    H149770   2.344   4.948   0.594 -0.2389 -2.1832  0.7906
 8525TIP3    H249771   2.476   4.909   0.530 -0.2702 -0.2944 -0.5124
 8526TIP3   OH249772   0.986   0.139   1.580  0.3975 -0.0686  0.6437
 8526TIP3    H149773   0.947   0.065   1.627  1.4562 -1.4759 -0.5978
 8526TIP3    H249774   0.918   0.167   1.519 -0.1849  0.3343  1.4542
 8527TIP3   OH249775   3.244   3.292   0.724 -0.0498 -0.2518 -0.1915
 8527TIP3    H149776   3.256   3.208   0.679  0.0640  0.1859 -0.9981
 8527TIP3    H249777   3.273   3.357   0.660 -0.6634  0.4340  0.2253
 8528TIP3   OH249778   3.382   3.363   2.468 -0.0724 -0.3987 -0.5679
 8528TIP3    H149779   3.308   3.307   2.445  1.9799 -2.7074 -2.0066
 8528TIP3    H249780   3.451   3.303   2.495  2.1166  1.4398 -1.7034
 8529TIP3   OH249781   5.645   2.246   2.085 -0.0822 -0.0988  0.2703
 8529TIP3    H149782   5.602   2.322   2.046 -1.0280 -0.3784  0.7401
 8529TIP3    H249783   5.738   2.268   2.085 -0.1467  0.2592 -1.3492
 8530TIP3   OH249784   5.941   5.254   2.390  0.0680  0.0823 -0.2423
 8530TIP3    H149785   5.938   5.167   2.431 -1.2571  1.0532  1.8933
 8530TIP3    H249786   5.850   5.270   2.363  0.2994  0.8388 -0.5837
 8531TIP3   OH249787   0.987   3.843   0.896 -0.1042  0.1325 -0.4023
 8531TIP3    H149788   1.022   3.838   0.985 -2.0212 -0.4857  0.3814
 8531TIP3    H249789   0.984   3.753   0.866  1.1212  0.3907 -1.3839
 8532TIP3   OH249790   1.881   3.072   0.350 -0.1996  0.2496  0.0709
 8532TIP3    H149791   1.824   3.056   0.275 -0.2129  0.8088 -0.0405
 8532TIP3    H249792   1.870   2.995   0.405 -0.9385  0.2823 -0.0252
 8533TIP3   OH249793   5.681   0.229   3.142  0.3471  0.4275 -0.0078
 8533TIP3    H149794   5.700   0.230   3.236 -0.5023  3.1270  0.2458
 8533TIP3    H249795   5.588   0.205   3.137  0.0174  1.6082  0.0107
 8534TIP3   OH249796   5.504   3.822   1.126 -0.7283  0.5925 -0.1623
 8534TIP3    H149797   5.593   3.843   1.097 -0.3918 -1.6709 -0.9070
 8534TIP3    H249798   5.515   3.752   1.191 -1.9353  0.8380  0.3493
 8535TIP3   OH249799   2.592   3.387   2.577  0.2286  0.0618  0.3190
 8535TIP3    H149800   2.551   3.451   2.634 -0.4311 -0.2561  0.2098
 8535TIP3    H249801   2.519   3.338   2.539  0.6401  0.3418 -0.8879
 8536TIP3   OH249802   4.603   3.884   1.590  0.1379  0.1647  0.5193
 8536TIP3    H149803   4.595   3.830   1.512  2.0566 -0.9460  1.0260
 8536TIP3    H249804   4.697   3.894   1.603 -0.1090  0.1630  2.7710
 8537TIP3   OH249805   2.388   5.936   1.706 -0.4923 -0.3039  0.7991
 8537TIP3    H149806   2.413   5.951   1.798  0.7571 -0.4675  0.5082
 8537TIP3    H249807   2.390   5.841   1.697 -0.0071 -0.2672  0.4610
 8538TIP3   OH249808   0.702   0.170   1.473 -0.0776  0.3391 -0.0407
 8538TIP3    H149809   0.663   0.145   1.389  1.1697  0.3884 -0.6432
 8538TIP3    H249810   0.655   0.117   1.537  0.6695 -1.6172 -1.0231
 8539TIP3   OH249811   2.818   3.250   3.891 -0.2716 -0.0695  0.3166
 8539TIP3    H149812   2.874   3.202   3.831  0.7554  0.7551  0.5872
 8539TIP3    H249813   2.749   3.287   3.836 -2.4240 -3.5486  0.3396
 8540TIP3   OH249814   2.366   0.288   2.192 -0.2429  0.2985 -0.5840
 8540TIP3    H149815   2.283   0.286   2.145 -1.0536  3.4300  0.4766
 8540TIP3    H249816   2.343   0.268   2.283  0.3409  0.2805 -0.4346
 8541TIP3   OH249817   4.888   5.090   2.427  0.1070 -0.7848 -0.1113
 8541TIP3    H149818   4.959   5.089   2.491 -1.1906 -1.4962  1.4070
 8541TIP3    H249819   4.910   5.160   2.366  2.9611 -2.0875 -0.7335
 8542TIP3   OH249820   3.303   2.706   0.818  0.3224  0.0896  0.3636
 8542TIP3    H149821   3.330   2.713   0.726  1.7001 -1.3221  0.6065
 8542TIP3    H249822   3.298   2.612   0.834 -0.4128  0.3225  1.6091
 8543TIP3   OH249823   3.285   3.735   1.842 -0.5032 -0.9080 -0.2420
 8543TIP3    H149824   3.290   3.727   1.746  1.4051 -1.3024 -0.1554
 8543TIP3    H249825   3.204   3.692   1.866 -2.1995  1.1435 -1.8521
 8544TIP3   OH249826   0.001   0.959   0.874 -0.1311  0.5323  0.2540
 8544TIP3    H149827  -0.028   0.918   0.956  1.3784 -0.3078  0.3956
 8544TIP3    H249828   0.092   0.931   0.864 -0.0111  1.3770 -1.2488
 8545TIP3   OH249829   5.571   4.452   3.038 -0.1323 -0.5279  0.0063
 8545TIP3    H149830   5.665   4.455   3.057 -0.3740 -0.0653  1.1970
 8545TIP3    H249831   5.530   4.499   3.110 -1.2430 -0.1456 -0.8396
 8546TIP3   OH249832   5.635   2.931   2.864 -0.3013 -0.0111  0.2052
 8546TIP3    H149833   5.721   2.905   2.898 -1.1712  0.1410  2.7068
 8546TIP3    H249834   5.588   2.964   2.940 -1.2402  3.7311 -1.7421
 8547TIP3   OH249835   5.942   2.319   1.581  0.1762 -0.4720  0.1315
 8547TIP3    H149836   5.997   2.301   1.657  0.0510 -0.1211  0.3033
 8547TIP3    H249837   5.856   2.340   1.617 -0.2227 -1.5291 -0.1585
 8548TIP3   OH249838   6.153   1.621   0.482 -0.3281 -0.4735 -0.6472
 8548TIP3    H149839   6.164   1.652   0.572  1.2547 -1.6208 -0.3971
 8548TIP3    H249840   6.203   1.683   0.429 -1.5514  0.4073 -0.8102
 8549TIP3   OH249841   3.325   5.807   1.921 -0.0283  0.0327  0.5387
 8549TIP3    H149842   3.253   5.744   1.924  0.0610 -0.0958  0.0149
 8549TIP3    H249843   3.313   5.861   1.999 -0.3375 -0.3787  0.7780
 8550TIP3   OH249844   1.085   0.955  11.221 -0.3275  0.0549  0.6715
 8550TIP3    H149845   0.997   0.922  11.202 -0.1676 -0.2825  0.5074
 8550TIP3    H249846   1.143   0.881  11.203  0.0441  0.4390  0.2412
 8551TIP3   OH249847   1.527   0.355   1.663  0.4172  0.2250 -0.3747
 8551TIP3    H149848   1.605   0.374   1.612  0.6219  1.1947  0.2666
 8551TIP3    H249849   1.469   0.429   1.647  0.1317  0.1144  0.1071
 8552TIP3   OH249850   1.663   4.296   2.047  0.4272 -0.0604  0.3758
 8552TIP3    H149851   1.713   4.364   2.091  0.9539  0.3373 -0.7956
 8552TIP3    H249852   1.686   4.305   1.954 -1.7262  0.0616 -0.2152
 8553TIP3   OH249853   1.565   3.317   0.824 -0.9308  0.0419  0.3903
 8553TIP3    H149854   1.527   3.293   0.740  0.0775 -0.1061 -0.0431
 8553TIP3    H249855   1.573   3.234   0.871  1.7446 -0.4636 -0.7673
 8554TIP3   OH249856   4.572   5.834   3.129 -0.2884 -0.4477  0.3627
 8554TIP3    H149857   4.642   5.893   3.101 -0.6362 -0.6818 -1.0974
 8554TIP3    H249858   4.496   5.890   3.143 -0.9310 -0.5764 -2.0824
 8555TIP3   OH249859   4.195   2.136   1.870  0.0412  0.3530 -0.0201
 8555TIP3    H149860   4.240   2.219   1.855 -0.9575  1.2074  1.3800
 8555TIP3    H249861   4.103   2.156   1.854 -0.0069 -1.1532 -2.0633
 8556TIP3   OH249862   5.488   5.819   2.546 -0.4088  0.2294 -0.6024
 8556TIP3    H149863   5.443   5.824   2.462 -2.1613  0.1804  0.2912
 8556TIP3    H249864   5.427   5.858   2.609 -0.1711 -1.8041  1.0126
 8557TIP3   OH249865   2.954   5.837   3.188 -0.2195  0.7487 -0.1185
 8557TIP3    H149866   2.895   5.762   3.193 -0.3083  0.8785  1.4635
 8557TIP3    H249867   2.903   5.910   3.222  0.1295  1.3669 -0.8828
 8558TIP3   OH249868   0.445   1.210   1.441 -0.5760 -0.2697 -0.2690
 8558TIP3    H149869   0.465   1.249   1.357  0.0038 -0.8577 -0.4130
 8558TIP3    H249870   0.525   1.164   1.466 -0.8894 -0.4687  0.3905
 8559TIP3   OH249871   6.354   6.463   0.584  0.2703  0.1739  0.6332
 8559TIP3    H149872   6.375   6.457   0.491 -2.0469  0.9696 -0.0150
 8559TIP3    H249873   6.351   6.372   0.614  0.1456 -0.1405 -0.2940
 8560TIP3   OH249874   4.192   4.844   2.114  0.5675 -0.2310  0.2261
 8560TIP3    H149875   4.165   4.839   2.206 -1.7777 -0.4393 -0.4097
 8560TIP3    H249876   4.281   4.809   2.113  0.6859 -0.1146  2.4285
 8561TIP3   OH249877   6.107   4.403   1.053  0.1840  0.1727 -0.1924
 8561TIP3    H149878   6.177   4.437   0.998  0.4927 -1.1521 -0.6349
 8561TIP3    H249879   6.087   4.317   1.017 -1.1766  0.2201  0.3735
 8562TIP3   OH249880   1.151   2.914  12.228 -0.5951  0.0198  0.1224
 8562TIP3    H149881   1.115   2.847  12.171 -0.3385  0.0578 -0.0842
 8562TIP3    H249882   1.107   2.995  12.201 -2.1174 -0.3137  1.4414
 8563TIP3   OH249883   5.381   0.751   3.564  0.0401 -0.0491 -0.2485
 8563TIP3    H149884   5.322   0.826   3.556  0.9277  0.7790  0.6137
 8563TIP3    H249885   5.468   0.791   3.576  0.7029 -1.2289 -0.9783
 8564TIP3   OH249886   5.371   0.773   1.829  0.0873 -0.2535 -0.1159
 8564TIP3    H149887   5.340   0.683   1.842  2.4673 -1.1219  0.0790
 8564TIP3    H249888   5.291   0.824   1.817 -1.4532 -2.1013  1.4612
 8565TIP3   OH249889   0.795   2.225   0.973  0.5595  0.3240  0.2101
 8565TIP3    H149890   0.846   2.304   0.989  1.1195 -0.1437  0.7861
 8565TIP3    H249891   0.760   2.236   0.884  1.1083  0.9491  0.0669
 8566TIP3   OH249892   1.132   2.596   0.646 -0.0027  0.1697  0.0604
 8566TIP3    H149893   1.185   2.612   0.724 -0.3679 -1.0599  0.5864
 8566TIP3    H249894   1.131   2.501   0.637 -2.6146  0.0853  0.4462
 8567TIP3   OH249895   3.768   0.092   1.714  0.0273 -0.0006  0.2297
 8567TIP3    H149896   3.728   0.017   1.670 -0.3024 -0.0604  0.6338
 8567TIP3    H249897   3.766   0.071   1.807  0.4864  0.2448  0.3023
 8568TIP3   OH249898   6.243   6.623   1.864 -0.1232  0.3145 -0.0725
 8568TIP3    H149899   6.173   6.558   1.859 -0.6663  0.8224  0.7649
 8568TIP3    H249900   6.319   6.573   1.892  0.5144 -0.7082 -3.1907
 8569TIP3   OH249901   1.195   1.763   2.997  0.1575 -0.3327  0.1172
 8569TIP3    H149902   1.134   1.691   3.014 -0.6014  0.3693  0.3934
 8569TIP3    H249903   1.143   1.830   2.952  0.2781  0.9705  1.8263
 8570TIP3   OH249904   4.119   3.925   3.773 -0.5118  0.5182 -0.1698
 8570TIP3    H149905   4.038   3.883   3.804  0.2596  0.1477  1.4366
 8570TIP3    H249906   4.142   3.987   3.842  1.4895 -0.6095  0.2448
 8571TIP3   OH249907   0.686   3.488   1.401  0.2477 -0.2915  0.2418
 8571TIP3    H149908   0.618   3.553   1.418 -0.2371 -0.6623 -0.2473
 8571TIP3    H249909   0.639   3.404   1.402  0.7484 -0.5758  0.1833
 8572TIP3   OH249910   4.236   2.312   3.399 -0.1675  0.0144  0.1950
 8572TIP3    H149911   4.223   2.233   3.347  0.0924  1.0132 -1.4388
 8572TIP3    H249912   4.330   2.315   3.417 -0.2666 -0.3682  0.8286
 8573TIP3   OH249913   4.710   3.908   0.833  0.0319 -0.2293  0.1258
 8573TIP3    H149914   4.682   3.848   0.764  1.1021  1.7202 -2.1678
 8573TIP3    H249915   4.803   3.923   0.816  0.1249  1.0023  1.4659
 8574TIP3   OH249916   1.684   0.605   0.404 -0.2921 -0.2726  0.2584
 8574TIP3    H149917   1.689   0.603   0.309  0.9755  1.1966  0.2611
 8574TIP3    H249918   1.611   0.665   0.423 -0.4962 -0.5073  0.2254
 8575TIP3   OH249919   3.280   2.154   2.181 -0.2378  0.0341  0.2845
 8575TIP3    H149920   3.210   2.204   2.223 -1.8333 -1.5539 -0.3569
 8575TIP3    H249921   3.293   2.196   2.096 -2.4030 -1.2176 -0.7563
 8576TIP3   OH249922   6.107   2.302   1.349  0.0542 -0.2193  0.8163
 8576TIP3    H149923   6.074   2.367   1.287  0.7748 -1.1689 -0.6274
 8576TIP3    H249924   6.053   2.313   1.427 -2.3827 -0.4141 -0.7375
 8577TIP3   OH249925   3.796   0.707   2.670 -0.2450  0.2839 -0.2472
 8577TIP3    H149926   3.831   0.793   2.646 -0.8125  0.6757  0.3085
 8577TIP3    H249927   3.791   0.708   2.765  1.0655 -0.8922 -0.1279
 8578TIP3   OH249928   2.708   4.128   3.507  0.1480  0.1253  0.2020
 8578TIP3    H149929   2.715   4.174   3.424 -1.6022 -1.2770 -0.7745
 8578TIP3    H249930   2.616   4.134   3.530  0.4202 -0.4304  1.5295
 8579TIP3   OH249931   0.468   2.770   1.684 -0.0280  0.6122 -0.2917
 8579TIP3    H149932   0.495   2.718   1.761 -0.2641 -0.6054 -1.0097
 8579TIP3    H249933   0.406   2.714   1.638  1.7748  0.3707 -2.5746
 8580TIP3   OH249934   0.809   1.014   1.249 -0.2499 -0.2507 -0.2218
 8580TIP3    H149935   0.828   1.082   1.313 -1.5494 -1.0621  1.0666
 8580TIP3    H249936   0.761   0.947   1.297  0.4783 -1.8417 -1.5835
 8581TIP3   OH249937   3.041   3.549   1.509 -0.1460 -0.0551 -0.2205
 8581TIP3    H149938   2.985   3.615   1.549 -0.8724  0.8471 -2.5392
 8581TIP3    H249939   3.004   3.536   1.422  2.4261 -0.4733 -1.3424
 8582TIP3   OH249940   0.016   4.824   1.390  0.0699 -0.2968  0.0833
 8582TIP3    H149941  -0.045   4.798   1.320  0.3950  1.1419 -0.7778
 8582TIP3    H249942  -0.016   4.910   1.419  0.7022 -0.3014  0.8117
 8583TIP3   OH249943   6.258   5.153   1.122  0.6024 -0.2476 -0.1788
 8583TIP3    H149944   6.296   5.214   1.185  0.8807 -2.6860  2.2128
 8583TIP3    H249945   6.166   5.148   1.146  0.7692 -1.4154  0.2967
 8584TIP3   OH249946   6.494   4.900   1.654  0.1375 -0.0508  0.1471
 8584TIP3    H149947   6.575   4.929   1.695 -0.7966 -0.0442  2.0627
 8584TIP3    H249948   6.494   4.805   1.664 -0.1275 -0.0435  0.2410
 8585TIP3   OH249949   4.705   1.243   2.656  0.1538  0.1344  0.2328
 8585TIP3    H149950   4.734   1.172   2.714  0.5750  0.7207  0.7520
 8585TIP3    H249951   4.612   1.224   2.640  0.6496 -1.5011 -1.0610
 8586TIP3   OH249952   2.671   0.606   2.540 -0.4545  0.2511  0.2137
 8586TIP3    H149953   2.590   0.586   2.493  0.3353  0.8454 -1.4979
 8586TIP3    H249954   2.642   0.647   2.621 -1.8638  0.9910 -0.6195
 8587TIP3   OH249955   6.385   3.111   2.504  0.0564  0.1453 -0.0351
 8587TIP3    H149956   6.407   3.025   2.468 -0.3791  0.4311 -1.0178
 8587TIP3    H249957   6.334   3.153   2.435  1.4952  1.7579 -0.1816
 8588TIP3   OH249958   5.194   3.152   1.671 -0.6670 -0.4984  0.3518
 8588TIP3    H149959   5.277   3.198   1.664 -0.1035 -1.5409 -0.0518
 8588TIP3    H249960   5.154   3.162   1.585 -0.9043 -0.1308  0.4987
 8589TIP3   OH249961   1.215   0.293   1.611 -0.5594  0.5200 -0.7954
 8589TIP3    H149962   1.251   0.305   1.699  0.6941 -0.1849 -1.1836
 8589TIP3    H249963   1.137   0.238   1.623 -1.2879  1.6949  0.0193
 8590TIP3   OH249964   3.198   1.398   1.695 -0.0641 -0.3742 -0.1709
 8590TIP3    H149965   3.234   1.434   1.614  0.6467  0.4184  0.4799
 8590TIP3    H249966   3.185   1.305   1.677 -0.5206 -0.0843 -1.3974
 8591TIP3   OH249967   2.478   5.472   0.981 -0.0741  0.1909 -0.4770
 8591TIP3    H149968   2.533   5.538   0.939  2.6473 -0.8133  1.2471
 8591TIP3    H249969   2.431   5.520   1.050 -0.0355  0.7732 -0.8554
 8592TIP3   OH249970   1.932   0.342   1.195  0.1063 -0.2101 -0.2663
 8592TIP3    H149971   1.912   0.340   1.102 -1.7072 -1.3230  0.1087
 8592TIP3    H249972   2.003   0.279   1.206  0.6844  0.3042 -0.9488
 8593TIP3   OH249973   1.508   1.716   3.780 -0.0161 -0.0679  0.1274
 8593TIP3    H149974   1.498   1.771   3.857  1.5392  0.4975 -0.0258
 8593TIP3    H249975   1.559   1.641   3.810  1.7669  0.8011 -0.5789
 8594TIP3   OH249976   0.527   2.101   2.892  0.6932  0.3421 -0.0324
 8594TIP3    H149977   0.620   2.117   2.880  0.9230 -1.5749 -1.1840
 8594TIP3    H249978   0.516   2.087   2.986  1.9513 -1.3796 -0.0913
 8595TIP3   OH249979   6.200   0.087   3.064 -0.4488  0.3574  0.4534
 8595TIP3    H149980   6.140   0.081   2.990 -0.0246 -1.0381  0.2061
 8595TIP3    H249981   6.283   0.054   3.031 -0.0510  0.4429  1.3356
 8596TIP3   OH249982   1.803   2.230   1.136  0.5107  0.3215 -0.1298
 8596TIP3    H149983   1.707   2.237   1.135  0.4805 -0.0613 -0.1811
 8596TIP3    H249984   1.819   2.140   1.165  0.8756  0.9850  1.9304
 8597TIP3   OH249985   3.318   3.676   2.429 -0.6718  0.3484  0.0169
 8597TIP3    H149986   3.332   3.590   2.390 -0.6831 -0.5131  1.8283
 8597TIP3    H249987   3.267   3.724   2.363 -0.5438 -0.9631 -1.0802
 8598TIP3   OH249988   1.931   3.580   2.095 -0.4913 -0.4776 -0.0202
 8598TIP3    H149989   1.903   3.602   2.184 -1.3464  0.1643 -0.4300
 8598TIP3    H249990   1.861   3.524   2.061  0.7866 -2.4121  0.3676
 8599TIP3   OH249991   2.507   5.775   4.839  0.0618  0.2148  0.2826
 8599TIP3    H149992   2.563   5.835   4.788  0.6457 -0.3578  0.2382
 8599TIP3    H249993   2.508   5.693   4.789  0.8169 -0.4202  1.3098
 8600TIP3   OH249994   2.748   6.159   4.306 -0.1334 -0.2088  0.0214
 8600TIP3    H149995   2.767   6.168   4.213 -1.5963  0.8485 -0.2135
 8600TIP3    H249996   2.671   6.214   4.320 -0.4777 -1.0417  1.6771
 8601TIP3   OH249997   1.040   1.945   2.892  0.0907 -0.1018 -0.3025
 8601TIP3    H149998   0.953   1.950   2.932  0.8627  1.4918  1.2997
 8601TIP3    H249999   1.031   1.992   2.809 -0.2059  1.5822  0.6430
 8602TIP3   OH250000   1.406   4.250   1.181 -0.2702  0.3997  0.2964
 8602TIP3    H150001   1.481   4.300   1.148 -0.2414  0.5294  0.5539
 8602TIP3    H250002   1.330   4.306   1.166 -0.1949  0.6707  0.8991
 8603TIP3   OH250003   5.486   6.087   1.408  0.1785  0.4015 -0.5029
 8603TIP3    H150004   5.436   6.012   1.375  0.9624 -0.3348 -0.0799
 8603TIP3    H250005   5.480   6.079   1.503  0.6943  0.5798 -0.4529
 8604TIP3   OH250006   5.083   1.643   3.907 -0.2877 -0.3287  0.1041
 8604TIP3    H150007   5.109   1.704   3.976 -0.2722 -2.6611  2.3192
 8604TIP3    H250008   5.166   1.609   3.873 -0.2649 -1.4884  1.2208
 8605TIP3   OH250009   3.757   4.637   3.897  0.1368 -0.6956 -0.2289
 8605TIP3    H150010   3.796   4.582   3.965 -1.0562 -1.3109 -0.0277
 8605TIP3    H250011   3.706   4.702   3.945  0.3942 -0.2723 -0.5145
 8606TIP3   OH250012   5.194   5.882   1.175 -0.1626 -0.6795 -0.3199
 8606TIP3    H150013   5.098   5.874   1.182 -0.6599  3.7126  1.4041
 8606TIP3    H250014   5.207   5.949   1.108  1.4953  0.3703  0.9744
 8607TIP3   OH250015   3.044   6.230   0.992  0.2999 -0.1709  0.2334
 8607TIP3    H150016   3.111   6.178   0.946  0.1505 -1.8211  1.7866
 8607TIP3    H250017   2.998   6.276   0.922 -1.3008 -4.1331 -1.6808
 8608TIP3   OH250018   2.257   2.280   2.932 -0.3765  0.0293  0.1311
 8608TIP3    H150019   2.347   2.305   2.951  0.0549 -0.4459 -1.2019
 8608TIP3    H250020   2.210   2.297   3.014  0.8574  0.5301  0.7647
 8609TIP3   OH250021   1.724   5.179   4.180  0.3371  0.6355  0.1359
 8609TIP3    H150022   1.698   5.267   4.205  0.4354  0.5434  0.5659
 8609TIP3    H250023   1.650   5.124   4.205  0.3772  0.5601  0.0921
 8610TIP3   OH250024   1.272   6.684   4.256  0.2267  0.4040 -0.1890
 8610TIP3    H150025   1.209   6.734   4.204  0.2716  1.1439  0.4437
 8610TIP3    H250026   1.235   6.596   4.261 -0.9675  0.9250  0.5151
 8611TIP3   OH250027   4.592   2.863   2.527  0.9501 -0.3595  0.1161
 8611TIP3    H150028   4.551   2.778   2.517  1.0464 -0.4871  0.7528
 8611TIP3    H250029   4.659   2.850   2.594  0.5450  0.3559  0.6822
 8612TIP3   OH250030   2.102   3.323   1.159  0.0854  0.3929 -0.5090
 8612TIP3    H150031   2.060   3.258   1.102  1.6886  0.7551 -2.1966
 8612TIP3    H250032   2.075   3.407   1.122 -1.6197  0.7632  1.3964
 8613TIP3   OH250033   4.606   1.770   2.147  0.4881  0.2414 -0.1780
 8613TIP3    H150034   4.677   1.834   2.137  1.8287 -1.0405  0.7394
 8613TIP3    H250035   4.551   1.806   2.216  1.2337  0.4413  0.3317
 8614TIP3   OH250036   0.045   4.674   2.169 -0.6183 -0.5507  0.2239
 8614TIP3    H150037   0.075   4.584   2.177 -0.1528 -0.4644 -0.4648
 8614TIP3    H250038  -0.051   4.667   2.162 -0.4698 -1.2224 -2.4223
 8615TIP3   OH250039   3.520   2.629   0.367  0.2472  0.1745 -0.4841
 8615TIP3    H150040   3.538   2.537   0.388  0.0643 -0.3865 -2.5373
 8615TIP3    H250041   3.599   2.658   0.322  0.4054  1.1399  0.3762
 8616TIP3   OH250042   0.942   2.919   1.461 -0.5535  0.2425  0.0309
 8616TIP3    H150043   0.848   2.936   1.465 -0.4113  1.2012 -0.2720
 8616TIP3    H250044   0.965   2.890   1.549 -1.4128 -1.7124 -0.3434
 8617TIP3   OH250045   0.474   5.761   4.151  0.3296  0.2195  0.5352
 8617TIP3    H150046   0.454   5.791   4.062  0.1998  1.6695  1.0322
 8617TIP3    H250047   0.505   5.671   4.139  2.5968  1.1312 -1.2450
 8618TIP3   OH250048   5.875   2.426   2.396  1.0294  0.8192  0.4846
 8618TIP3    H150049   5.835   2.455   2.314  0.5025 -0.8593  0.1169
 8618TIP3    H250050   5.816   2.357   2.428  2.5128 -0.2484  1.0194
 8619TIP3   OH250051   2.293   6.443   1.039 -0.4410  0.2159 -0.6108
 8619TIP3    H150052   2.256   6.399   1.116 -0.8405  0.0197 -0.9121
 8619TIP3    H250053   2.223   6.440   0.974 -0.3875  1.0879 -0.7188
 8620TIP3   OH250054   2.343   3.744   2.862  0.6905  0.5012 -0.0017
 8620TIP3    H150055   2.370   3.659   2.828 -0.3241  0.0511  0.3026
 8620TIP3    H250056   2.397   3.757   2.940  1.3210  0.4567 -0.4191
 8621TIP3   OH250057   6.576   0.248   3.004 -0.3947 -0.5040  0.5599
 8621TIP3    H150058   6.655   0.223   2.955 -0.8285  0.2282 -0.5278
 8621TIP3    H250059   6.593   0.338   3.033 -0.7630 -0.4083  0.4759
 8622TIP3   OH250060   5.076   3.025   2.348 -0.4802  0.5551  0.3329
 8622TIP3    H150061   5.055   2.980   2.430  0.5292 -0.7882 -0.1035
 8622TIP3    H250062   5.142   3.090   2.373  1.0029 -0.9042  0.3857
 8623TIP3   OH250063   6.629   4.113   3.014  0.2081  0.1396  0.2146
 8623TIP3    H150064   6.648   4.205   3.028 -0.0039  0.2672 -0.3306
 8623TIP3    H250065   6.696   4.083   2.952 -0.3460  0.1849 -0.4177
 8624TIP3   OH250066   0.615   5.173   3.254 -0.2571  0.0989  0.4379
 8624TIP3    H150067   0.635   5.096   3.200  2.3256  0.1434  1.1984
 8624TIP3    H250068   0.527   5.156   3.287  0.0219 -2.2947  0.1581
 8625TIP3   OH250069   4.111   0.665   3.454  0.3354 -0.1199 -0.4085
 8625TIP3    H150070   4.167   0.629   3.522  0.0683  0.2350  0.0091
 8625TIP3    H250071   4.156   0.646   3.372  0.5919 -0.6776 -0.1421
 8626TIP3   OH250072   2.950   5.708   1.573  0.0658 -0.3988 -0.2144
 8626TIP3    H150073   2.973   5.739   1.661  0.2844  2.4104 -1.1805
 8626TIP3    H250074   3.022   5.738   1.518 -0.5649 -1.2450 -1.5322
 8627TIP3   OH250075   1.723   0.991   2.510  0.0080 -0.1066  0.5715
 8627TIP3    H150076   1.725   1.057   2.579  0.3546  0.2763  0.2070
 8627TIP3    H250077   1.693   0.911   2.553 -0.5332  0.3167  0.9946
 8628TIP3   OH250078   1.794   5.510   3.370 -0.0256 -0.0110 -0.5399
 8628TIP3    H150079   1.749   5.427   3.384 -1.5627  0.8809  0.0158
 8628TIP3    H250080   1.882   5.497   3.407 -0.8121 -0.8442  1.1060
 8629TIP3   OH250081   2.982   4.902   2.960  0.8199  0.1924 -0.3757
 8629TIP3    H150082   2.996   4.970   3.027  0.1136 -0.2664  0.2567
 8629TIP3    H250083   2.971   4.951   2.879 -1.9442  1.0476  0.4074
 8630TIP3   OH250084   1.271   2.557   2.695  0.1037  0.5965 -0.8086
 8630TIP3    H150085   1.298   2.472   2.728  0.3550  1.0493  0.1940
 8630TIP3    H250086   1.354   2.604   2.680 -0.0323  0.6777 -1.3237
 8631TIP3   OH250087   1.707   2.559   2.032  0.3298 -0.0941  0.5246
 8631TIP3    H150088   1.746   2.643   2.058 -0.9044  0.5907  0.2186
 8631TIP3    H250089   1.754   2.534   1.952  0.9251  0.1250  0.7964
 8632TIP3   OH250090   2.206   3.969   3.037 -0.1792 -0.6252 -0.0026
 8632TIP3    H150091   2.288   3.920   3.029  1.6187  2.1492  0.1160
 8632TIP3    H250092   2.207   4.031   2.964 -0.7726  1.3308  1.5501
 8633TIP3   OH250093   1.142   3.457   1.284 -0.0018  0.0457  0.1432
 8633TIP3    H150094   1.228   3.417   1.272  0.5847  1.5275 -0.8050
 8633TIP3    H250095   1.151   3.511   1.362 -0.1600 -0.0005  0.1947
 8634TIP3   OH250096   1.281   1.260   2.746 -0.2915 -0.1894  0.1631
 8634TIP3    H150097   1.375   1.243   2.758 -0.0813 -0.4298 -1.5779
 8634TIP3    H250098   1.268   1.254   2.651 -2.1148 -0.3512  0.4019
 8635TIP3   OH250099   5.501   4.441   2.605 -0.1864  0.0154 -0.0139
 8635TIP3    H150100   5.513   4.346   2.612 -1.8924 -0.1334  1.7151
 8635TIP3    H250101   5.549   4.476   2.680  3.2368  0.9183 -2.4042
 8636TIP3   OH250102   3.991   2.445   3.409 -0.4309 -0.1421  0.7844
 8636TIP3    H150103   4.012   2.534   3.438 -2.0865  0.4782  0.1840
 8636TIP3    H250104   4.076   2.404   3.393  0.3747  1.8986 -0.5908
 8637TIP3   OH250105   0.476   6.686   3.885 -0.1848  0.3412 -0.1788
 8637TIP3    H150106   0.446   6.681   3.976 -0.5000  0.0778 -0.2954
 8637TIP3    H250107   0.404   6.649   3.834 -0.5656  1.6812 -0.6558
 8638TIP3   OH250108   5.098   5.004   1.711 -0.1332  0.1009  0.1730
 8638TIP3    H150109   5.081   4.934   1.648 -1.0585 -0.4876  1.0375
 8638TIP3    H250110   5.068   5.084   1.667  2.3682  0.2428 -1.4370
 8639TIP3   OH250111   3.268   2.396   2.353  0.6197 -0.0254 -0.0693
 8639TIP3    H150112   3.339   2.336   2.330  2.8478  2.7363 -0.8324
 8639TIP3    H250113   3.309   2.463   2.408 -1.3230  1.8274 -0.7464
 8640TIP3   OH250114   6.344   3.480   0.877  0.3344  0.5981  0.6404
 8640TIP3    H150115   6.393   3.562   0.874  0.3440  0.5790 -0.7082
 8640TIP3    H250116   6.411   3.411   0.873  0.2743  0.5464  0.5137
 8641TIP3   OH250117   1.886   6.432   3.201 -0.3434  0.2348  0.6567
 8641TIP3    H150118   1.897   6.525   3.177  0.0680 -0.3610 -1.7915
 8641TIP3    H250119   1.971   6.405   3.234  0.1029  0.2859 -0.4167
 8642TIP3   OH250120   3.776   3.476   2.556 -0.8990 -0.4819 -0.1920
 8642TIP3    H150121   3.806   3.389   2.530  3.0190  0.6231 -0.0257
 8642TIP3    H250122   3.781   3.527   2.475 -0.0669  0.2584  0.3074
 8643TIP3   OH250123   4.068   4.267   2.601 -0.0857  0.0405  0.0392
 8643TIP3    H150124   3.990   4.312   2.633 -0.0706  1.3941 -1.6264
 8643TIP3    H250125   4.087   4.310   2.517  2.4798 -0.2041  0.4131
 8644TIP3   OH250126   2.047   3.487   3.997  0.7733 -0.1035 -0.0263
 8644TIP3    H150127   2.045   3.554   4.066  2.8228  0.8216 -0.7852
 8644TIP3    H250128   2.108   3.420   4.030  1.4992  0.1779 -0.7616
 8645TIP3   OH250129   0.822   6.471   2.815  0.2782  0.0315 -0.2877
 8645TIP3    H150130   0.765   6.450   2.889 -1.4956  1.4265 -1.1853
 8645TIP3    H250131   0.898   6.413   2.826  0.4084  0.6516  2.9434
 8646TIP3   OH250132   3.452   2.289   3.841 -0.9164  0.4588 -0.4943
 8646TIP3    H150133   3.485   2.306   3.753 -3.6845 -1.5118 -2.0814
 8646TIP3    H250134   3.437   2.195   3.843 -0.6961  0.4096  2.2435
 8647TIP3   OH250135   5.975   3.421   1.981 -0.5311 -0.2352  0.0421
 8647TIP3    H150136   6.042   3.474   2.024 -0.5219  1.7509 -2.2240
 8647TIP3    H250137   5.894   3.443   2.026 -0.4392  1.3855 -0.5263
 8648TIP3   OH250138   2.857   0.335   3.557 -0.2683 -0.3325  0.0558
 8648TIP3    H150139   2.819   0.278   3.490  0.9603 -2.7618  1.3142
 8648TIP3    H250140   2.798   0.326   3.632  0.1186 -0.1900  0.3769
 8649TIP3   OH250141   2.191   3.499   3.645 -0.5379 -0.0481 -0.1024
 8649TIP3    H150142   2.096   3.495   3.633 -0.3716  1.1131 -2.4952
 8649TIP3    H250143   2.207   3.586   3.681 -0.3868 -0.4075  0.7210
 8650TIP3   OH250144   2.312   0.212   1.578 -0.2886 -0.0127 -0.1414
 8650TIP3    H150145   2.379   0.176   1.637 -0.1849  2.5027  1.4400
 8650TIP3    H250146   2.346   0.196   1.490  0.1011 -2.9004  0.4161
 8651TIP3   OH250147   4.581   5.118   1.763 -0.3559 -0.3947  0.4355
 8651TIP3    H150148   4.520   5.116   1.836  0.5933  0.4917  1.2803
 8651TIP3    H250149   4.570   5.033   1.720 -0.3711 -1.2549  2.0802
 8652TIP3   OH250150   4.723   3.884   2.971  0.1894 -0.2356  0.1792
 8652TIP3    H150151   4.671   3.964   2.959  1.3095  0.1117 -3.6872
 8652TIP3    H250152   4.658   3.815   2.982 -1.1100  0.5019 -2.1126
 8653TIP3   OH250153   0.845   1.929   1.012  0.3169 -0.2322 -0.0138
 8653TIP3    H150154   0.832   2.022   0.994  0.9057 -0.3299 -0.9650
 8653TIP3    H250155   0.806   1.884   0.937  0.2262 -0.7569  0.3397
 8654TIP3   OH250156   3.337   2.406   0.948 -0.1360  0.1288 -0.4732
 8654TIP3    H150157   3.402   2.338   0.969 -0.1366  0.2359 -0.1183
 8654TIP3    H250158   3.263   2.386   1.004  0.2091  0.9466  0.2869
 8655TIP3   OH250159   6.394   0.143   3.754  0.3830 -0.6866 -0.1070
 8655TIP3    H150160   6.309   0.102   3.770  0.7961 -2.0431 -1.2552
 8655TIP3    H250161   6.371   0.228   3.715 -0.4840 -1.6193 -1.7723
 8656TIP3   OH250162   3.990   6.262   2.110  0.0114 -0.2211  0.3150
 8656TIP3    H150163   3.932   6.262   2.186  1.3165  2.3086  1.4280
 8656TIP3    H250164   4.051   6.191   2.126  1.3576  1.3333  2.6345
 8657TIP3   OH250165   3.353   4.965   1.653  0.1776 -0.1272  0.0909
 8657TIP3    H150166   3.341   4.915   1.572 -1.9578 -0.9439  0.8292
 8657TIP3    H250167   3.268   4.961   1.696  1.3098  0.0144  2.5283
 8658TIP3   OH250168   2.212   3.336   2.664 -0.6468  0.7999  0.2994
 8658TIP3    H150169   2.147   3.374   2.605 -0.9583 -0.3320 -0.1052
 8658TIP3    H250170   2.161   3.305   2.739 -1.1463 -2.8913 -1.3287
 8659TIP3   OH250171   2.384   3.562   2.677  0.1978 -0.4199 -0.3748
 8659TIP3    H150172   2.339   3.488   2.718 -0.7507 -0.4084 -1.3574
 8659TIP3    H250173   2.348   3.566   2.589  1.1977  0.4111 -0.7639
 8660TIP3   OH250174   6.636   6.319   2.091  0.5021  0.6589  0.6610
 8660TIP3    H150175   6.652   6.254   2.159 -0.2249  0.4633  0.6466
 8660TIP3    H250176   6.723   6.338   2.056  0.7165 -0.3482  0.6232
 8661TIP3   OH250177   0.036   4.288   3.330  0.0452 -0.0168  0.5691
 8661TIP3    H150178   0.106   4.225   3.350 -0.1216  0.1796  1.8946
 8661TIP3    H250179   0.004   4.316   3.416 -1.0817  0.5535 -0.0123
 8662TIP3   OH250180   5.564   4.240   0.650  0.0223 -0.5750  0.2390
 8662TIP3    H150181   5.544   4.146   0.659 -0.2166 -0.5006  0.5146
 8662TIP3    H250182   5.655   4.248   0.679  1.6336 -1.4152 -3.9217
 8663TIP3   OH250183   5.225   1.597   3.015 -0.3073 -0.0401  0.6234
 8663TIP3    H150184   5.201   1.677   2.968  0.7751  0.6263  1.1663
 8663TIP3    H250185   5.187   1.527   2.963  1.5329  0.5919 -1.7783
 8664TIP3   OH250186   3.169   3.624   2.711 -0.3005  0.2356  0.1589
 8664TIP3    H150187   3.210   3.626   2.625 -0.2736  0.1392  0.1700
 8664TIP3    H250188   3.110   3.700   2.711 -0.3442  0.2008  0.0348
 8665TIP3   OH250189   1.034   6.344   3.839 -0.4815 -0.1168  0.8472
 8665TIP3    H150190   1.124   6.361   3.868 -0.3661 -1.6327  1.4600
 8665TIP3    H250191   0.980   6.379   3.910 -0.4265  1.1097  0.3221
 8666TIP3   OH250192   5.147   0.254   2.019  0.7701  0.3209 -0.2453
 8666TIP3    H150193   5.132   0.276   2.110 -1.3135 -0.0837 -0.4488
 8666TIP3    H250194   5.122   0.162   2.012  2.5518 -0.1703 -0.9006
 8667TIP3   OH250195   1.568   0.834   3.350  0.2099  0.3779 -0.0199
 8667TIP3    H150196   1.484   0.858   3.309 -0.1811  0.2137  0.6727
 8667TIP3    H250197   1.543   0.794   3.433  1.0397  2.1054  1.1145
 8668TIP3   OH250198   2.634   5.421   1.604  0.1136  0.2351 -0.1868
 8668TIP3    H150199   2.638   5.510   1.640 -0.9967 -0.0910  0.8126
 8668TIP3    H250200   2.594   5.432   1.518  0.2086  0.7326 -0.1742
 8669TIP3   OH250201   5.069   5.767   1.480  0.2529 -0.0731 -0.1210
 8669TIP3    H150202   5.010   5.692   1.479 -1.9474  1.5509 -0.9201
 8669TIP3    H250203   5.014   5.840   1.506  2.2804  1.3226  0.4929
 8670TIP3   OH250204   5.000   1.189   3.079 -0.0146  0.5382  0.5553
 8670TIP3    H150205   4.934   1.121   3.094  1.6571 -1.0487  1.0611
 8670TIP3    H250206   5.012   1.230   3.165 -0.4727  1.0115  0.4074
 8671TIP3   OH250207   4.862   2.146   2.285 -0.0614  0.6541  0.0284
 8671TIP3    H150208   4.952   2.176   2.271  0.2501  0.9672  2.2482
 8671TIP3    H250209   4.811   2.227   2.294 -0.4510  0.4774 -0.5506
 8672TIP3   OH250210   1.049   2.048   1.813  0.2464 -0.6741 -0.4030
 8672TIP3    H150211   0.971   2.103   1.804 -0.6329 -1.7779  0.1715
 8672TIP3    H250212   1.017   1.959   1.794  1.7991 -0.9131 -2.1607
 8673TIP3   OH250213   1.490   1.847   1.366 -0.2901  0.0089 -0.2758
 8673TIP3    H150214   1.551   1.921   1.376 -0.1919 -0.0675 -0.3083
 8673TIP3    H250215   1.442   1.868   1.285  0.2071 -0.2949 -0.6559
 8674TIP3   OH250216   2.808   4.552   1.875  0.0457 -0.4520  0.5371
 8674TIP3    H150217   2.838   4.461   1.868 -0.5426 -0.5795 -0.4106
 8674TIP3    H250218   2.881   4.604   1.842 -0.1678 -0.6716 -0.2977
 8675TIP3   OH250219   5.439   2.203   3.207 -0.6061  0.2487 -0.2472
 8675TIP3    H150220   5.409   2.237   3.123 -0.3968  2.2086  0.4144
 8675TIP3    H250221   5.430   2.277   3.267  1.3525 -0.3950  0.9426
 8676TIP3   OH250222   0.819   3.262   2.887  0.5887 -0.0709 -0.4595
 8676TIP3    H150223   0.768   3.231   2.961  2.0701 -1.3445  0.0656
 8676TIP3    H250224   0.788   3.210   2.813 -0.5681  0.8819 -0.6707
 8677TIP3   OH250225   1.303   2.637   1.205 -0.2831 -0.5429 -0.2008
 8677TIP3    H150226   1.275   2.720   1.243 -0.1673 -1.2473  1.5033
 8677TIP3    H250227   1.397   2.647   1.191  0.0136 -0.8767  1.4063
 8678TIP3   OH250228   6.570   4.105   1.476  0.9305 -0.1349 -0.2645
 8678TIP3    H150229   6.633   4.092   1.548 -0.0565  0.3794  0.7245
 8678TIP3    H250230   6.485   4.108   1.520  0.3887  1.1865 -1.3578
 8679TIP3   OH250231   2.453   1.251   3.340  0.0585  0.2031 -0.0627
 8679TIP3    H150232   2.506   1.178   3.372  0.6703 -0.1919 -1.8743
 8679TIP3    H250233   2.364   1.231   3.369  0.6600  0.2595  1.9737
 8680TIP3   OH250234   6.480   6.459   1.906 -0.3795 -0.2472 -0.2743
 8680TIP3    H150235   6.509   6.458   1.815  1.8983 -0.4854  0.4059
 8680TIP3    H250236   6.519   6.382   1.945 -2.8192 -1.1674  0.5453
 8681TIP3   OH250237   3.871   1.876   2.829 -0.3122  0.1974 -0.5248
 8681TIP3    H150238   3.838   1.788   2.848 -0.7950  0.2510 -1.0782
 8681TIP3    H250239   3.846   1.928   2.905  0.0132 -0.1531 -0.1747
 8682TIP3   OH250240   1.797   4.941   2.629 -0.3799 -1.1284  0.1651
 8682TIP3    H150241   1.870   4.998   2.606 -0.7647 -0.9646 -0.6685
 8682TIP3    H250242   1.819   4.908   2.716  1.4510 -2.2940 -0.6652
 8683TIP3   OH250243   3.477   4.210   2.698  0.2338 -0.8579  0.5308
 8683TIP3    H150244   3.551   4.150   2.694  0.8981 -0.0139 -0.2522
 8683TIP3    H250245   3.456   4.229   2.606 -0.4480 -0.4756  0.7501
 8684TIP3   OH250246   5.564   4.364   3.467  0.4093 -0.0962 -0.9911
 8684TIP3    H150247   5.633   4.315   3.512 -1.1857 -0.2342  1.4966
 8684TIP3    H250248   5.497   4.299   3.449 -1.1387  0.8203  1.1074
 8685TIP3   OH250249   3.453   5.702   3.351 -0.0258  0.4480  0.2503
 8685TIP3    H150250   3.510   5.712   3.275 -0.0840  0.1963  0.1715
 8685TIP3    H250251   3.391   5.633   3.326 -0.7148  1.0921  0.1244
 8686TIP3   OH250252   2.148   3.504   1.573 -0.1523  0.2741 -0.4345
 8686TIP3    H150253   2.148   3.408   1.571 -1.1452  0.1560  1.7073
 8686TIP3    H250254   2.062   3.527   1.609  0.2200  1.9628 -0.5295
 8687TIP3   OH250255   2.440   3.010   0.600  0.5059  0.7776 -0.1079
 8687TIP3    H150256   2.473   2.923   0.623 -0.5261  0.4903  0.3419
 8687TIP3    H250257   2.487   3.069   0.658  0.5421  0.4248  0.2287
 8688TIP3   OH250258   2.244   2.319   1.444 -0.1930 -0.1561  0.0001
 8688TIP3    H150259   2.154   2.340   1.467 -0.2020 -1.3627  1.2120
 8688TIP3    H250260   2.293   2.331   1.525  0.4393 -1.0540 -0.2353
 8689TIP3   OH250261   6.106   6.143   2.731 -0.0137 -0.1771  0.2342
 8689TIP3    H150262   6.014   6.129   2.756 -0.1705  1.7382  0.8847
 8689TIP3    H250263   6.130   6.064   2.683 -1.3529 -1.6641  1.8648
 8690TIP3   OH250264   5.041   2.561   1.358  0.5947  0.1532  0.1883
 8690TIP3    H150265   5.105   2.560   1.428  1.3659 -1.1162 -0.5048
 8690TIP3    H250266   4.972   2.620   1.389  1.4548  0.4924  1.5062
 8691TIP3   OH250267   5.514   6.156   3.249 -0.2046  0.2045  0.2982
 8691TIP3    H150268   5.430   6.163   3.295 -1.0336 -1.4974 -0.8023
 8691TIP3    H250269   5.546   6.068   3.272  0.8077  0.4760 -0.0442
 8692TIP3   OH250270   5.259   0.981   3.026  0.1379  0.2628  0.6008
 8692TIP3    H150271   5.244   0.935   3.109 -2.2866  1.6795  1.0713
 8692TIP3    H250272   5.173   0.982   2.984  1.2253 -0.0196 -1.7563
 8693TIP3   OH250273   5.916   3.673   1.388 -0.2312  0.4135 -0.5176
 8693TIP3    H150274   5.874   3.602   1.340  0.6867 -1.7117  1.6146
 8693TIP3    H250275   5.844   3.728   1.417 -0.9611  0.4577 -2.2872
 8694TIP3   OH250276   3.707   6.655   2.671 -0.6697  0.2602 -0.3548
 8694TIP3    H150277   3.696   6.709   2.749 -2.1363  0.5373 -0.7203
 8694TIP3    H250278   3.707   6.565   2.705  0.0472  0.4121  0.0807
 8695TIP3   OH250279   1.056   6.248   1.811  0.1350  0.3613  0.6948
 8695TIP3    H150280   0.997   6.309   1.855  0.0748  0.9616 -0.2085
 8695TIP3    H250281   1.140   6.294   1.808  0.5375 -0.2833  1.5117
 8696TIP3   OH250282   0.651   4.475   4.160  0.2757 -0.3363 -0.1992
 8696TIP3    H150283   0.577   4.534   4.145 -0.4646 -1.0052  0.6924
 8696TIP3    H250284   0.721   4.510   4.105 -0.1722  1.3172  0.2218
 8697TIP3   OH250285   3.474   2.562   2.464 -0.3002  0.1116  0.0906
 8697TIP3    H150286   3.557   2.582   2.421  0.7567 -1.3910  1.3039
 8697TIP3    H250287   3.476   2.613   2.545  0.6426 -1.7638  1.3233
 8698TIP3   OH250288   6.640   0.121   1.201  0.0515  0.0166  0.2268
 8698TIP3    H150289   6.597   0.057   1.144  0.0534 -1.1816  1.5059
 8698TIP3    H250290   6.601   0.105   1.287 -0.2573  2.0500  0.5163
 8699TIP3   OH250291   5.541   6.378   1.487 -0.3657 -0.0448  0.0337
 8699TIP3    H150292   5.490   6.300   1.466  0.1802 -0.3397 -0.2018
 8699TIP3    H250293   5.538   6.384   1.583  1.4313 -1.6232  0.2361
 8700TIP3   OH250294   1.648   5.859   2.566  0.1288  0.7404  0.5122
 8700TIP3    H150295   1.554   5.873   2.551 -0.1819 -0.7051  0.9307
 8700TIP3    H250296   1.686   5.855   2.479 -0.0124  2.3441  0.3487
 8701TIP3   OH250297   0.343   0.969   3.572  0.6318 -0.1118  0.4186
 8701TIP3    H150298   0.269   0.975   3.511  0.6429 -0.3907  0.3767
 8701TIP3    H250299   0.382   0.884   3.554  0.9657  0.0372  0.4417
 8702TIP3   OH250300   4.856   3.851   1.603  0.3176 -0.0908  0.1335
 8702TIP3    H150301   4.895   3.776   1.648  0.4553 -0.5858 -0.7924
 8702TIP3    H250302   4.929   3.912   1.591  0.0992  0.4269  1.3453
 8703TIP3   OH250303   0.326   6.416   1.423  0.5873  0.8223 -0.1212
 8703TIP3    H150304   0.252   6.356   1.425 -0.1310  1.6864  0.0083
 8703TIP3    H250305   0.290   6.498   1.390  1.9022  0.7147 -1.9803
 8704TIP3   OH250306   0.270   5.619   2.788  0.3593 -0.3416  0.1235
 8704TIP3    H150307   0.352   5.581   2.757 -0.0593 -1.2096  0.0616
 8704TIP3    H250308   0.225   5.547   2.832 -0.1245  0.2671  0.6533
 8705TIP3   OH250309   4.380   6.123   2.097  0.0730  0.5257  0.0377
 8705TIP3    H150310   4.432   6.139   2.019  0.5374 -1.3044 -0.0698
 8705TIP3    H250311   4.305   6.071   2.067  0.0485  0.1365  0.7375
 8706TIP3   OH250312   3.200   1.485   3.403  0.2198  0.4465  0.2644
 8706TIP3    H150313   3.152   1.529   3.333 -0.0487 -1.2359 -0.6831
 8706TIP3    H250314   3.133   1.457   3.465  0.1564 -0.1895 -0.0728
 8707TIP3   OH250315   4.048   0.929   3.710  0.1282  0.3065  0.4057
 8707TIP3    H150316   3.993   0.905   3.636  0.0663  2.9950 -0.5470
 8707TIP3    H250317   3.990   0.979   3.768  1.4051  3.4081 -0.7356
 8708TIP3   OH250318   0.807   0.422   1.520 -0.8490 -0.0942  0.2204
 8708TIP3    H150319   0.744   0.351   1.509 -1.1633  0.0815  0.8558
 8708TIP3    H250320   0.865   0.391   1.590 -0.9031  0.2175  0.4026
 8709TIP3   OH250321   2.080   2.823   0.602 -0.2995 -0.5187  1.2551
 8709TIP3    H150322   2.128   2.742   0.620 -2.2868 -1.5228  2.4068
 8709TIP3    H250323   2.008   2.796   0.545 -1.2068  0.3429  1.9565
 8710TIP3   OH250324   1.392   3.921   2.726  0.0067  0.2151 -0.3656
 8710TIP3    H150325   1.423   3.833   2.747  1.6286  1.2083  1.7634
 8710TIP3    H250326   1.412   3.932   2.633 -0.1919 -1.6102 -0.6535
 8711TIP3   OH250327   6.174   6.185   2.403 -0.1654 -0.1488 -0.3690
 8711TIP3    H150328   6.247   6.124   2.406  0.9781  1.1295 -1.2173
 8711TIP3    H250329   6.144   6.183   2.312 -2.0264 -1.5676  0.2154
 8712TIP3   OH250330   3.162   0.672   3.337 -0.0134 -0.0921  0.6122
 8712TIP3    H150331   3.207   0.750   3.305 -0.4897  0.1821  0.6060
 8712TIP3    H250332   3.072   0.700   3.353 -0.4032 -0.8367 -0.1748
 8713TIP3   OH250333   1.840   5.751   2.319  0.2438  0.0676  0.3040
 8713TIP3    H150334   1.897   5.774   2.246  0.5250  1.1502  0.8442
 8713TIP3    H250335   1.884   5.678   2.362 -0.8328 -1.8392 -1.6528
 8714TIP3   OH250336   6.080   2.648   1.293  0.1194  0.2334 -0.8378
 8714TIP3    H150337   6.130   2.707   1.350 -0.3336 -0.1382 -0.0395
 8714TIP3    H250338   6.012   2.705   1.256  1.1241  0.7483 -1.9586
 8715TIP3   OH250339   4.444   4.628   2.676  0.4867  0.8725 -0.1924
 8715TIP3    H150340   4.506   4.638   2.749 -0.4520  1.6736  0.5173
 8715TIP3    H250341   4.496   4.588   2.606  1.1270 -0.9804  1.2781
 8716TIP3   OH250342   1.733   4.610   2.448 -0.4397  0.3076 -0.5595
 8716TIP3    H150343   1.757   4.527   2.487  0.9097 -0.3693 -2.6427
 8716TIP3    H250344   1.667   4.647   2.507  0.2296 -1.3811  1.3391
 8717TIP3   OH250345   5.391   0.108   3.140  1.0548  0.6528  0.0797
 8717TIP3    H150346   5.359   0.037   3.083 -0.1241  0.4558  0.9637
 8717TIP3    H250347   5.379   0.187   3.088 -1.8579  0.7222  0.6919
 8718TIP3   OH250348   3.737   0.285   3.032 -0.2299 -0.6249 -0.4030
 8718TIP3    H150349   3.690   0.291   3.115 -0.9947 -3.1211 -0.5535
 8718TIP3    H250350   3.725   0.370   2.991 -1.0596  0.1862  1.3934
 8719TIP3   OH250351   3.063   1.138   2.753  0.3895 -0.3187 -0.3891
 8719TIP3    H150352   2.982   1.154   2.704 -0.1636 -3.4934 -0.6946
 8719TIP3    H250353   3.121   1.209   2.726 -1.8221  1.2945 -1.1907
 8720TIP3   OH250354   0.143   1.509   2.776 -0.1105 -0.6026 -0.2993
 8720TIP3    H150355   0.053   1.537   2.756  0.1641 -0.1457 -0.9299
 8720TIP3    H250356   0.135   1.458   2.856 -1.1104 -1.6038 -1.0147
 8721TIP3   OH250357   6.466   1.458   1.380  0.3484  0.4527  0.3153
 8721TIP3    H150358   6.417   1.377   1.368  1.6932 -0.2009 -1.1639
 8721TIP3    H250359   6.543   1.448   1.325 -0.0132  3.2077 -0.8970
 8722TIP3   OH250360   1.461   3.024   4.104  0.5579 -0.4337  0.5957
 8722TIP3    H150361   1.518   2.955   4.072 -0.2866 -0.4213 -1.0387
 8722TIP3    H250362   1.375   2.983   4.112  0.9548 -0.8680  4.5013
 8723TIP3   OH250363   3.203   5.215   4.371  0.3943  0.2266 -0.0034
 8723TIP3    H150364   3.232   5.189   4.284 -1.5532  2.6474 -1.4991
 8723TIP3    H250365   3.285   5.224   4.421  1.6415 -0.2456 -1.8517
 8724TIP3   OH250366   2.739   2.552   2.836 -0.1496  0.2631 -0.4814
 8724TIP3    H150367   2.702   2.561   2.924 -0.2342  1.5159 -0.6316
 8724TIP3    H250368   2.764   2.641   2.810  0.8763 -0.2302 -1.3021
 8725TIP3   OH250369   6.504   0.278   0.954 -0.0400  0.5943 -0.2993
 8725TIP3    H150370   6.541   0.300   1.039 -0.6139  0.1320  0.0785
 8725TIP3    H250371   6.513   0.183   0.948  1.9306  0.8079 -1.6760
 8726TIP3   OH250372   1.562   4.968   1.669 -0.1951 -0.3405  0.0622
 8726TIP3    H150373   1.543   4.929   1.754  0.0297 -2.1916 -0.6883
 8726TIP3    H250374   1.637   5.025   1.684 -0.7020  0.0383  1.2484
 8727TIP3   OH250375   3.458   6.631   3.988 -0.0350  0.0108  0.1530
 8727TIP3    H150376   3.518   6.645   3.915 -0.4748  1.4313  0.0302
 8727TIP3    H250377   3.508   6.579   4.051  0.8826  0.0969 -0.4901
 8728TIP3   OH250378   5.876   0.413   2.082  0.4443  0.3551  0.1838
 8728TIP3    H150379   5.936   0.400   2.008  0.1223  1.5040 -0.3007
 8728TIP3    H250380   5.790   0.424   2.041 -0.2978 -2.2177  0.9182
 8729TIP3   OH250381   5.718   1.993   1.657 -0.1138  0.0387 -0.1481
 8729TIP3    H150382   5.711   2.066   1.596 -0.4759  0.1770  0.0588
 8729TIP3    H250383   5.782   2.022   1.722  0.4548 -0.2031 -0.5873
 8730TIP3   OH250384   6.181   0.596   2.744 -0.1785 -0.2027  0.1074
 8730TIP3    H150385   6.159   0.589   2.836 -0.0591 -1.2387  0.0792
 8730TIP3    H250386   6.098   0.589   2.698 -0.0886 -1.5331  0.0923
 8731TIP3   OH250387   5.618   1.912   0.870  0.2968 -0.3764  0.6144
 8731TIP3    H150388   5.541   1.960   0.901  1.7839  1.8627  1.1154
 8731TIP3    H250389   5.583   1.846   0.811 -2.0337  0.2631  1.1724
 8732TIP3   OH250390   3.346   4.709   3.599 -0.0665  0.7522 -0.5017
 8732TIP3    H150391   3.354   4.652   3.676 -0.9241  0.0421 -0.9219
 8732TIP3    H250392   3.400   4.668   3.532 -0.3084  0.6941 -0.6611
 8733TIP3   OH250393   3.120   4.569   1.261  0.1486  0.1224  0.1596
 8733TIP3    H150394   3.100   4.539   1.172  0.6085  1.6925 -0.5096
 8733TIP3    H250395   3.121   4.489   1.313  2.1737 -1.1745 -1.6879
 8734TIP3   OH250396   0.528   0.605   0.460  0.6881 -0.2633  0.4799
 8734TIP3    H150397   0.508   0.512   0.449  1.8562 -0.5240  0.3590
 8734TIP3    H250398   0.456   0.650   0.416  0.7314 -1.1467 -0.5674
 8735TIP3   OH250399   5.190   5.445   1.662 -0.1551  0.0817 -0.2380
 8735TIP3    H150400   5.157   5.366   1.622 -0.4050 -0.2583  0.6150
 8735TIP3    H250401   5.113   5.487   1.701  0.1818  0.0140  0.5224
 8736TIP3   OH250402   6.330   4.997   3.153  0.3107 -0.2984 -0.8753
 8736TIP3    H150403   6.282   5.067   3.198  0.0192 -0.7303 -0.5037
 8736TIP3    H250404   6.376   5.042   3.082  2.0118  0.6481  0.7324
 8737TIP3   OH250405   2.281   5.610   3.913  0.1601  0.1324 -0.0620
 8737TIP3    H150406   2.263   5.521   3.943  0.6527  0.1485  0.3074
 8737TIP3    H250407   2.375   5.621   3.927  0.1101  0.6957 -0.1426
 8738TIP3   OH250408   5.437   1.171   2.422  0.2926 -0.7278  0.1186
 8738TIP3    H150409   5.432   1.116   2.500 -0.0089 -1.7942 -0.6385
 8738TIP3    H250410   5.510   1.134   2.372  0.0541 -0.4786 -0.4207
 8739TIP3   OH250411   5.658   0.694   3.121  0.3629  0.1805 -0.3540
 8739TIP3    H150412   5.657   0.701   3.216  0.2864 -2.4606 -0.0919
 8739TIP3    H250413   5.741   0.650   3.101 -0.0236 -0.0840 -1.4222
 8740TIP3   OH250414   6.622   5.988   0.721 -0.3719  0.1449 -0.1594
 8740TIP3    H150415   6.621   5.893   0.712 -0.9451  0.3215 -2.7003
 8740TIP3    H250416   6.574   6.005   0.802  2.6348 -1.7801  2.2549
 8741TIP3   OH250417   1.950   1.721   0.863 -0.0982  0.3137  0.5469
 8741TIP3    H150418   1.859   1.743   0.883 -0.5168 -0.2624 -0.5960
 8741TIP3    H250419   1.958   1.629   0.888  0.1209  0.3188  0.4909
 8742TIP3   OH250420   2.663   5.693   4.583  0.1916 -0.6550  0.2215
 8742TIP3    H150421   2.737   5.707   4.642  1.0652 -0.5190 -0.8549
 8742TIP3    H250422   2.616   5.618   4.620  1.1840 -1.0842  0.6450
 8743TIP3   OH250423   2.406   6.672   1.686 -0.7151 -0.1052 -0.0745
 8743TIP3    H150424   2.355   6.605   1.641  0.6851 -1.1689 -0.1836
 8743TIP3    H250425   2.372   6.673   1.775 -0.6728 -1.1044 -0.0281
 8744TIP3   OH250426   3.477   0.419   1.518 -0.0448  0.3045 -0.0751
 8744TIP3    H150427   3.553   0.436   1.462  0.3714  1.3552  0.7683
 8744TIP3    H250428   3.422   0.360   1.466  0.2426  1.3558 -1.6638
 8745TIP3   OH250429   2.499   4.238   0.958 -0.1310 -0.6581 -0.0258
 8745TIP3    H150430   2.545   4.154   0.945  0.9772 -0.2761  1.2238
 8745TIP3    H250431   2.438   4.243   0.884  0.8778 -1.8381 -0.9951
 8746TIP3   OH250432   0.850   1.610   2.891  0.1897 -0.2170 -0.0969
 8746TIP3    H150433   0.913   1.579   2.957 -2.0341 -1.5429  1.5632
 8746TIP3    H250434   0.887   1.583   2.808  3.0596  1.4063  0.5319
 8747TIP3   OH250435   2.949   0.786   1.833 -0.0880 -0.4406 -0.3240
 8747TIP3    H150436   2.999   0.706   1.814 -0.6001 -1.5179  2.3654
 8747TIP3    H250437   3.009   0.857   1.810  1.0033 -1.5999 -1.2549
 8748TIP3   OH250438   3.659   5.711   4.604 -0.0978  0.0825  0.1263
 8748TIP3    H150439   3.583   5.654   4.589 -0.6022  0.5249  0.8827
 8748TIP3    H250440   3.733   5.651   4.607 -0.5647 -0.5002  0.4817
 8749TIP3   OH250441   2.079   5.497   3.425 -0.2122 -0.2017 -0.3590
 8749TIP3    H150442   2.083   5.545   3.508  0.6400  3.3547 -2.2574
 8749TIP3    H250443   2.112   5.409   3.447  0.8021  0.8294  2.8549
 8750TIP3   OH250444   3.059   1.497   0.660 -0.3935 -0.1017 -0.0537
 8750TIP3    H150445   3.000   1.572   0.665 -0.7910 -0.4551  0.6989
 8750TIP3    H250446   3.009   1.424   0.696 -0.1536 -0.8277 -1.1460
 8751TIP3   OH250447   3.141   3.109   2.149 -0.1455  0.0605  0.5286
 8751TIP3    H150448   3.103   3.023   2.128  1.7375 -0.6233 -0.3507
 8751TIP3    H250449   3.191   3.094   2.229  1.1047 -0.0022 -0.2262
 8752TIP3   OH250450   1.861   6.208   1.301 -0.6805  0.0641 -0.6919
 8752TIP3    H150451   1.835   6.146   1.232 -0.2150  0.8691 -1.6249
 8752TIP3    H250452   1.883   6.152   1.376  1.6826 -1.0984 -2.1180
 8753TIP3   OH250453   3.781   1.815   2.295 -0.3562 -0.1273  0.3335
 8753TIP3    H150454   3.767   1.836   2.387  1.6635 -0.0532  0.6607
 8753TIP3    H250455   3.722   1.741   2.278 -1.5686  0.5698  1.3514
 8754TIP3   OH250456   4.138   4.522   1.766  0.3818 -0.2458 -0.2943
 8754TIP3    H150457   4.067   4.512   1.830 -0.3351 -0.6673 -1.1414
 8754TIP3    H250458   4.162   4.432   1.744  0.1217 -0.1064 -1.1641
 8755TIP3   OH250459   4.426   1.467   2.711 -0.0892  0.1430  0.7999
 8755TIP3    H150460   4.481   1.501   2.640  2.1339 -1.2815  1.7016
 8755TIP3    H250461   4.439   1.529   2.783 -3.5649  2.4679 -0.3292
 8756TIP3   OH250462   2.056   5.012   4.902  0.3039  0.5914  0.5506
 8756TIP3    H150463   2.141   4.997   4.945 -0.4249  1.4180  2.4210
 8756TIP3    H250464   2.050   4.943   4.837  3.3836  1.8118 -1.2534
 8757TIP3   OH250465   2.878   2.545   0.662  0.3094  0.1578 -0.2116
 8757TIP3    H150466   2.946   2.597   0.705  1.1171 -0.2216 -1.0024
 8757TIP3    H250467   2.798   2.596   0.673  0.4039 -0.1105  2.0529
 8758TIP3   OH250468   3.085   4.108   0.799  0.5358 -0.0161 -1.0954
 8758TIP3    H150469   3.130   4.058   0.868 -0.2249 -2.3197 -2.1544
 8758TIP3    H250470   3.149   4.171   0.768  1.3896  0.0314  0.6661
 8759TIP3   OH250471   5.371   1.250   3.061 -0.0663 -0.1875  0.0809
 8759TIP3    H150472   5.326   1.167   3.047 -0.3234 -0.1110  0.4529
 8759TIP3    H250473   5.453   1.226   3.104 -0.5479 -0.1715  1.0205
 8760TIP3   OH250474   2.595   2.452   2.108  0.6277 -0.1556  0.5664
 8760TIP3    H150475   2.684   2.418   2.101  0.6556  0.0273 -0.0679
 8760TIP3    H250476   2.552   2.423   2.028  0.1121 -0.2555  0.8784
 8761TIP3   OH250477   1.223   5.472   1.114  0.2926  0.2599 -0.2034
 8761TIP3    H150478   1.278   5.395   1.128 -0.5343 -0.5281 -1.1229
 8761TIP3    H250479   1.213   5.510   1.201  2.6807  0.7363 -0.0585
 8762TIP3   OH250480   2.567   4.106   2.642 -0.2055 -0.5785  0.2176
 8762TIP3    H150481   2.535   4.196   2.638  0.6807 -0.2783 -0.3830
 8762TIP3    H250482   2.490   4.054   2.665 -0.7127  0.3344  0.6403
 8763TIP3   OH250483   1.793   1.333   1.907 -0.1304  0.2421 -0.1812
 8763TIP3    H150484   1.716   1.348   1.853 -1.0480 -1.0681  0.7009
 8763TIP3    H250485   1.867   1.349   1.849 -1.0788  0.0622 -1.4709
 8764TIP3   OH250486   0.177   5.909   9.833  0.4046 -0.2623  0.1555
 8764TIP3    H150487   0.254   5.933   9.886 -0.3833 -0.5124  1.4549
 8764TIP3    H250488   0.163   5.816   9.853  0.1956 -0.4094 -0.6556
 8765TIP3   OH250489   3.951   5.594   1.588  0.2773  0.6691 -0.5450
 8765TIP3    H150490   3.882   5.529   1.597 -0.7444  1.5757 -1.4781
 8765TIP3    H250491   3.904   5.677   1.577  1.5172  1.7273  1.4221
 8766TIP3   OH250492   1.115   5.842   2.047 -0.2927 -0.1182 -0.1559
 8766TIP3    H150493   1.113   5.768   2.108  0.3561 -0.5640 -0.6635
 8766TIP3    H250494   1.061   5.813   1.973  1.2037 -0.7225 -1.0492
 8767TIP3   OH250495   3.291   5.257   1.528 -0.4168 -0.2502 -0.0084
 8767TIP3    H150496   3.321   5.308   1.452 -2.0158  1.3777  0.3643
 8767TIP3    H250497   3.364   5.198   1.547 -0.1423 -1.1155 -3.1007
 8768TIP3   OH250498   2.726   0.934   1.792 -0.0131  0.2913 -0.6113
 8768TIP3    H150499   2.785   0.865   1.823 -1.9787 -1.3452 -0.2894
 8768TIP3    H250500   2.693   0.974   1.872 -2.2572 -1.4618 -0.5442
 8769TIP3   OH250501   2.953   6.509   4.325  0.0708 -0.0484  0.2275
 8769TIP3    H150502   3.045   6.488   4.314 -0.2098 -1.3219  0.1713
 8769TIP3    H250503   2.933   6.484   4.415 -0.3375 -0.2905  0.0737
 8770TIP3   OH250504   2.837   2.290   1.286  0.0199 -0.8377  0.3292
 8770TIP3    H150505   2.780   2.279   1.363  1.3032 -1.7563  1.1810
 8770TIP3    H250506   2.789   2.247   1.215 -1.5646  0.7358  0.3841
 8771TIP3   OH250507   1.887   2.003   1.292 -0.0644 -0.2055  0.4478
 8771TIP3    H150508   1.849   2.026   1.377  1.5871  0.7026  0.9959
 8771TIP3    H250509   1.981   2.015   1.304  0.3061 -1.0622 -1.2281
 8772TIP3   OH250510   0.956   3.208   3.461 -0.8091  0.2679  0.0135
 8772TIP3    H150511   0.915   3.292   3.483  0.1970  0.8120 -0.1678
 8772TIP3    H250512   0.972   3.212   3.367  0.4948  0.4425  0.2303
 8773TIP3   OH250513   2.805   2.261   2.813 -0.2277 -0.3262 -0.8285
 8773TIP3    H150514   2.890   2.243   2.853 -0.8362 -1.8984 -0.1974
 8773TIP3    H250515   2.785   2.351   2.840 -0.7499 -1.3590  2.7852
 8774TIP3   OH250516   5.935   2.091   2.279 -0.2125  0.3883 -0.0317
 8774TIP3    H150517   6.010   2.074   2.222  0.7052  0.1586  1.2084
 8774TIP3    H250518   5.876   2.144   2.225  1.5727  2.0149 -0.4955
 8775TIP3   OH250519   4.229   3.190   2.339  0.0068  0.6274 -0.0915
 8775TIP3    H150520   4.164   3.153   2.399 -0.1689  0.0085 -0.6580
 8775TIP3    H250521   4.233   3.128   2.266 -1.9182  2.7667 -2.1853
 8776TIP3   OH250522   3.243   6.305  10.828  0.5413 -0.0470  0.4968
 8776TIP3    H150523   3.251   6.243  10.901 -2.0089 -0.4723  0.4999
 8776TIP3    H250524   3.204   6.383  10.868 -0.0485  0.0468 -0.2434
 8777TIP3   OH250525   4.477   5.153   2.998  0.0263  0.4622  0.2534
 8777TIP3    H150526   4.557   5.121   2.957 -0.7032 -1.1975  0.0385
 8777TIP3    H250527   4.416   5.079   2.995 -1.0694  1.2295  1.6305
 8778TIP3   OH250528   1.893   1.729   3.325 -0.3613  0.2837  0.0673
 8778TIP3    H150529   1.926   1.811   3.360  3.4933 -1.2632  0.5938
 8778TIP3    H250530   1.903   1.738   3.230  0.5398  0.2733  0.1542
 8779TIP3   OH250531   0.073   2.648   0.829 -0.2664 -0.0152  0.1262
 8779TIP3    H150532   0.090   2.560   0.795  1.7976  0.9063 -1.4459
 8779TIP3    H250533   0.128   2.705   0.776 -1.5207  2.2525  1.1256
 8780TIP3   OH250534   0.457   1.091   3.796  0.2813 -0.3572 -0.6429
 8780TIP3    H150535   0.432   1.045   3.716  1.0919 -1.1276 -0.4675
 8780TIP3    H250536   0.542   1.055   3.819  0.0345 -0.2003  0.6097
 8781TIP3   OH250537   6.348   3.813   0.888  0.4947 -0.5038  0.2045
 8781TIP3    H150538   6.406   3.850   0.955 -0.6751 -1.4092  1.7839
 8781TIP3    H250539   6.273   3.872   0.886  1.0607  0.2244 -1.2745
 8782TIP3   OH250540   3.469   2.110   1.626 -0.0177 -0.1076  0.5408
 8782TIP3    H150541   3.412   2.186   1.618 -1.0774 -0.9854 -0.7328
 8782TIP3    H250542   3.548   2.143   1.669 -0.7027  1.5563  0.5808
 8783TIP3   OH250543   1.758   3.389   2.008  0.2107  0.0397 -0.5098
 8783TIP3    H150544   1.662   3.391   2.013  0.2401 -0.4792  0.6945
 8783TIP3    H250545   1.783   3.308   2.052  1.2494  0.8677  0.5253
 8784TIP3   OH250546   5.967   4.891   1.876  0.6707  0.5981 -0.0154
 8784TIP3    H150547   5.888   4.913   1.826  0.7949  1.1366  0.0210
 8784TIP3    H250548   6.039   4.912   1.817  0.7969  0.4580  0.0900
 8785TIP3   OH250549   4.585   1.297   1.530  0.8117  0.0886  0.3014
 8785TIP3    H150550   4.507   1.339   1.493  0.4925  0.4341  1.3208
 8785TIP3    H250551   4.551   1.233   1.592  1.3241 -0.8607 -0.3738
 8786TIP3   OH250552   5.395   3.293   1.933  0.0984  0.5285 -0.3767
 8786TIP3    H150553   5.310   3.337   1.943  0.3507  0.5208  2.4544
 8786TIP3    H250554   5.459   3.360   1.957  0.7823  0.0033 -0.7326
 8787TIP3   OH250555   0.786   0.262   4.520 -0.7795  0.2676 -0.1526
 8787TIP3    H150556   0.754   0.217   4.598 -0.9675 -1.2852 -1.0843
 8787TIP3    H250557   0.808   0.350   4.550 -1.8213  0.0238  1.4201
 8788TIP3   OH250558   1.669   6.167   2.914 -0.1930  0.0224  0.2287
 8788TIP3    H150559   1.576   6.155   2.891 -0.0726 -0.0627 -0.2191
 8788TIP3    H250560   1.712   6.090   2.878  0.2642  0.7332 -0.8142
 8789TIP3   OH250561   4.097   5.312   2.620 -0.3654 -0.1129  0.2435
 8789TIP3    H150562   4.125   5.225   2.589  0.2347  0.3751 -0.6176
 8789TIP3    H250563   4.096   5.304   2.715  2.5678 -0.2145  0.3452
 8790TIP3   OH250564   4.086   2.867   0.978 -0.1284  0.4049 -0.8093
 8790TIP3    H150565   4.138   2.931   0.930 -1.2322  2.1999  0.2007
 8790TIP3    H250566   4.033   2.824   0.912  2.3541 -1.2786 -1.8166
 8791TIP3   OH250567   0.676   6.468   3.071  0.0339 -0.0195  0.3560
 8791TIP3    H150568   0.612   6.399   3.093  0.2702 -1.4760 -2.8757
 8791TIP3    H250569   0.626   6.549   3.077 -1.4591 -0.8908  0.3072
 8792TIP3   OH250570   1.094   5.018   2.611 -0.0272 -0.5095  0.4409
 8792TIP3    H150571   1.082   4.940   2.557  0.2080 -0.9476  1.0076
 8792TIP3    H250572   1.095   5.090   2.548 -0.3050 -0.9520 -0.0874
 8793TIP3   OH250573   5.068   4.701   0.913  0.1218  0.4094  0.3811
 8793TIP3    H150574   5.146   4.720   0.965  1.5257 -0.0286 -1.4281
 8793TIP3    H250575   5.062   4.773   0.851 -1.3102  0.7564  0.8936
 8794TIP3   OH250576   2.179   3.808   1.375 -0.3896 -0.0875 -0.5801
 8794TIP3    H150577   2.156   3.859   1.453 -2.0299  2.2824 -2.4391
 8794TIP3    H250578   2.274   3.808   1.372 -0.3336  1.2171  0.5463
 8795TIP3   OH250579   2.118   5.984   2.798  0.3884 -0.5569  0.1622
 8795TIP3    H150580   2.208   5.952   2.793  0.4281 -0.8134  1.8437
 8795TIP3    H250581   2.117   6.039   2.876 -1.2302 -1.6387  0.9552
 8796TIP3   OH250582   6.488   4.983   1.968 -0.2392 -0.1160  0.1285
 8796TIP3    H150583   6.558   4.966   1.905  1.5411  1.5117  1.5290
 8796TIP3    H250584   6.534   5.009   2.048 -2.4529 -0.0669  1.4706
 8797TIP3   OH250585   2.568   1.436   1.512  0.2446  0.2665 -0.2190
 8797TIP3    H150586   2.618   1.433   1.430  0.1011 -0.3522 -0.2823
 8797TIP3    H250587   2.588   1.522   1.549  0.2509  0.5824 -0.9433
 8798TIP3   OH250588   4.225   1.276   1.480  0.2441  0.2077  0.0077
 8798TIP3    H150589   4.283   1.349   1.501 -0.5116  0.7825  0.1424
 8798TIP3    H250590   4.257   1.243   1.396 -0.3228  1.6851 -0.8338
 8799TIP3   OH250591   3.715   4.638   3.074  0.1491  0.1833  0.4009
 8799TIP3    H150592   3.721   4.689   3.155  2.9169 -1.2031  1.1925
 8799TIP3    H250593   3.643   4.577   3.089 -0.3735  0.9800  1.1787
 8800TIP3   OH250594   5.628   0.764   2.752  0.3134 -0.3093  0.7581
 8800TIP3    H150595   5.548   0.757   2.805  1.1389 -0.0159  2.0944
 8800TIP3    H250596   5.607   0.718   2.671 -0.7733 -1.3756  1.6085
 8801TIP3   OH250597   0.114   0.702   0.698  0.4476  0.2282 -0.0810
 8801TIP3    H150598   0.051   0.636   0.726 -1.4955  1.8004 -0.5122
 8801TIP3    H250599   0.113   0.767   0.768 -1.2912  2.0971 -1.6904
 8802TIP3   OH250600   2.723   4.980   4.558 -0.0820 -0.1647  0.1041
 8802TIP3    H150601   2.709   4.906   4.499  0.5372  0.0299 -0.2921
 8802TIP3    H250602   2.795   4.953   4.614  0.9547  0.5928 -0.8262
 8803TIP3   OH250603   2.578   0.870   0.507 -0.1655 -0.3672  0.0082
 8803TIP3    H150604   2.558   0.940   0.568  0.4959 -0.0419 -0.1360
 8803TIP3    H250605   2.507   0.871   0.443 -0.1987  0.1231  0.0525
 8804TIP3   OH250606   2.610   1.039   2.468 -0.1397 -0.0684  0.1546
 8804TIP3    H150607   2.636   0.974   2.402  2.4013  2.1616 -1.2248
 8804TIP3    H250608   2.579   1.113   2.416 -0.9826  0.6214  1.6143
 8805TIP3   OH250609   4.591   5.263   3.245  0.4569 -0.3722  0.1703
 8805TIP3    H150610   4.521   5.286   3.306  1.6711 -0.3564  1.6297
 8805TIP3    H250611   4.555   5.192   3.193 -1.5204  1.2871 -0.8761
 8806TIP3   OH250612   5.989   0.546   0.727  0.3581 -0.1600  0.4038
 8806TIP3    H150613   5.913   0.559   0.670  1.0167  0.2821 -0.3846
 8806TIP3    H250614   6.047   0.488   0.677  1.1257  0.5634  0.4421
 8807TIP3   OH250615   0.226   4.560   2.908 -0.1950 -0.2949 -0.0459
 8807TIP3    H150616   0.145   4.542   2.861  0.7651 -1.2160 -1.4342
 8807TIP3    H250617   0.288   4.496   2.874  1.5467  1.3538 -0.1491
 8808TIP3   OH250618   3.655   4.642   1.508  0.0546 -0.0029 -0.3270
 8808TIP3    H150619   3.609   4.648   1.591  0.9082  0.3426  0.1279
 8808TIP3    H250620   3.698   4.556   1.510 -0.2644 -0.1689 -0.5884
 8809TIP3   OH250621   3.493   4.800   0.695 -0.5989  0.2482  0.6028
 8809TIP3    H150622   3.533   4.714   0.708 -0.6686  0.3839  1.8202
 8809TIP3    H250623   3.538   4.857   0.757 -1.6320  0.7384  0.9152
 8810TIP3   OH250624   2.496   5.243   0.844 -0.2513  0.1034  0.9307
 8810TIP3    H150625   2.550   5.278   0.774 -0.2056 -1.7201  0.0007
 8810TIP3    H250626   2.458   5.320   0.886  0.5269  1.2706 -0.4337
 8811TIP3   OH250627   0.477   1.874   2.157  0.2016 -0.9863 -0.3470
 8811TIP3    H150628   0.405   1.815   2.133  0.3106 -0.5857 -1.7613
 8811TIP3    H250629   0.529   1.824   2.220 -1.2524 -1.3124  0.6725
 8812TIP3   OH250630   5.742   4.338   2.441  0.5262  0.4467  0.2830
 8812TIP3    H150631   5.778   4.426   2.432  0.6050  0.3918  0.0569
 8812TIP3    H250632   5.655   4.343   2.401  0.0202  0.7388  1.3834
 8813TIP3   OH250633   2.973   1.470   3.220  0.0102  0.4415  0.7789
 8813TIP3    H150634   3.030   1.537   3.184  0.8189 -1.0658 -0.9287
 8813TIP3    H250635   2.922   1.439   3.144 -1.7490  0.4426  1.8912
 8814TIP3   OH250636   5.371   2.222   1.915 -0.2880  0.0001  0.9000
 8814TIP3    H150637   5.399   2.307   1.949 -1.3411  0.9542 -0.4465
 8814TIP3    H250638   5.446   2.164   1.928  0.8121  1.3875  0.9822
 8815TIP3   OH250639   4.827   4.819   2.510  0.3550  0.0728 -0.5189
 8815TIP3    H150640   4.868   4.836   2.595  0.7545 -0.1780 -0.6602
 8815TIP3    H250641   4.840   4.899   2.460 -0.2913  0.3919 -0.1811
 8816TIP3   OH250642   5.776   5.014   1.690  0.0851 -0.4408 -0.0434
 8816TIP3    H150643   5.708   4.962   1.732  1.0779 -0.9518  1.0218
 8816TIP3    H250644   5.751   5.105   1.706  0.0959 -0.6260  1.1085
 8817TIP3   OH250645   3.696   4.588   1.013  0.6133 -0.3740 -0.1440
 8817TIP3    H150646   3.630   4.645   1.052  0.4996 -0.5498 -0.0775
 8817TIP3    H250647   3.707   4.517   1.076 -0.0336 -0.9938 -0.7086
 8818TIP3   OH250648   6.067   5.084   3.403  0.3085 -0.1287 -0.0532
 8818TIP3    H150649   6.130   5.132   3.457  1.0488 -1.9477  0.7950
 8818TIP3    H250650   6.095   5.102   3.313  0.2185  1.4098  0.1895
 8819TIP3   OH250651   3.236   3.551   0.889 -0.0678 -0.2090  0.0600
 8819TIP3    H150652   3.237   3.473   0.834 -0.5141  0.1628 -0.4748
 8819TIP3    H250653   3.201   3.620   0.834  0.2285  0.3568  0.5611
 8820TIP3   OH250654   5.930   0.249   1.796  0.3366 -0.0789  0.0065
 8820TIP3    H150655   5.990   0.237   1.723  1.5984  0.2482  0.9580
 8820TIP3    H250656   5.958   0.186   1.862 -0.6229 -0.1937  0.3268
 8821TIP3   OH250657   6.293   1.037   1.536  0.3617  0.5855  0.1023
 8821TIP3    H150658   6.300   1.088   1.456 -1.9312  1.3092  0.2882
 8821TIP3    H250659   6.212   0.986   1.525  0.6355 -0.1903  1.4669
 8822TIP3   OH250660   3.820   4.491   2.681  0.7643 -0.1437 -0.0151
 8822TIP3    H150661   3.763   4.561   2.712 -0.2032 -1.5294  1.4493
 8822TIP3    H250662   3.802   4.417   2.739  0.3038 -2.2901 -2.6972
 8823TIP3   OH250663   6.301   5.267   0.621  0.0175  0.4207  0.0278
 8823TIP3    H150664   6.244   5.213   0.676  1.0428 -0.7510 -0.0290
 8823TIP3    H250665   6.241   5.325   0.574 -1.0765 -0.3441  0.4489
 8824TIP3   OH250666   0.423   6.332   3.232  0.0015  0.7242  0.3882
 8824TIP3    H150667   0.421   6.301   3.141 -0.4057  3.2813 -0.5625
 8824TIP3    H250668   0.338   6.307   3.268  0.4898 -1.0681  0.3974
 8825TIP3   OH250669   3.559   5.242   2.098 -0.3047 -0.8649  0.3486
 8825TIP3    H150670   3.546   5.171   2.161 -4.0341 -0.5324  0.2325
 8825TIP3    H250671   3.571   5.198   2.014  1.6540 -1.2892  0.8014
 8826TIP3   OH250672   0.358   3.330   2.021 -0.0037 -0.2570 -0.2311
 8826TIP3    H150673   0.298   3.380   1.965  1.3392  0.3970 -1.1328
 8826TIP3    H250674   0.301   3.291   2.088 -1.1326  2.4689  0.5330
 8827TIP3   OH250675   3.499   1.994   2.159  0.2864 -0.4278 -0.1859
 8827TIP3    H150676   3.496   1.919   2.219 -0.5943 -0.3027 -0.0585
 8827TIP3    H250677   3.427   2.051   2.188 -1.9120 -1.5723 -2.9165
 8828TIP3   OH250678   5.424   0.070   2.327  0.4595  0.2881 -0.0269
 8828TIP3    H150679   5.375   0.016   2.265  0.5218  1.0092 -0.7197
 8828TIP3    H250680   5.358   0.099   2.390  0.2245  0.2468 -0.2491
 8829TIP3   OH250681   4.337   5.820   0.640  0.1892 -0.1556 -0.5183
 8829TIP3    H150682   4.405   5.840   0.705 -0.2867  0.4440 -0.1911
 8829TIP3    H250683   4.280   5.758   0.685 -1.0485  1.4644  0.2769
 8830TIP3   OH250684   3.672   3.954   1.251  0.2079  0.1123  0.4038
 8830TIP3    H150685   3.683   3.922   1.161  2.7073  0.3757  0.5484
 8830TIP3    H250686   3.658   4.048   1.241 -1.4111 -0.1196  0.2429
 8831TIP3   OH250687   5.633   5.004   1.392  0.5594  0.4203 -0.5695
 8831TIP3    H150688   5.632   5.100   1.386  1.1084  0.3517 -1.9554
 8831TIP3    H250689   5.553   4.976   1.348 -1.6089  0.3205  3.0343
 8832TIP3   OH250690   1.718   5.540   1.335  0.2931 -0.0931 -0.3494
 8832TIP3    H150691   1.692   5.613   1.391  2.7327  0.7462 -0.1914
 8832TIP3    H250692   1.695   5.568   1.247  2.8392  1.8381 -0.5444
 8833TIP3   OH250693   2.121   0.072   1.701  0.4818 -0.1754 -0.8333
 8833TIP3    H150694   2.125  -0.022   1.679  1.0829 -0.0956 -1.0873
 8833TIP3    H250695   2.177   0.114   1.635 -0.5197  0.4693 -1.2911
 8834TIP3   OH250696   3.253   2.164   2.560  0.0649 -0.1840  0.5444
 8834TIP3    H150697   3.303   2.235   2.600 -0.6806  0.7373 -0.1145
 8834TIP3    H250698   3.206   2.206   2.488 -0.6281 -1.2965  0.3311
 8835TIP3   OH250699   6.367   3.509   2.314  0.1020 -0.4060  0.1283
 8835TIP3    H150700   6.407   3.585   2.355 -0.7119  0.4592 -0.6042
 8835TIP3    H250701   6.305   3.476   2.379  0.2292 -0.2383  0.3353
 8836TIP3   OH250702   1.713   2.999   3.160  0.3956 -0.1737  0.0152
 8836TIP3    H150703   1.648   3.035   3.099 -1.3842 -2.1991  0.6160
 8836TIP3    H250704   1.705   3.054   3.238  1.0472  0.9844 -0.7040
 8837TIP3   OH250705   1.441   6.388   2.686  0.7186 -0.3159  0.5383
 8837TIP3    H150706   1.445   6.384   2.781 -1.8072  0.3163  0.7463
 8837TIP3    H250707   1.472   6.476   2.664  1.4270 -0.5067  0.7311
 8838TIP3   OH250708   0.899   3.897   1.638  0.2683 -0.0472  0.4564
 8838TIP3    H150709   0.889   3.869   1.547  1.7827  1.1286 -0.1069
 8838TIP3    H250710   0.907   3.992   1.634 -1.1197  0.1878  1.9849
 8839TIP3   OH250711   3.618   0.652   1.391 -0.3119 -0.5865  0.4627
 8839TIP3    H150712   3.679   0.712   1.433 -1.3226 -0.6914  2.1543
 8839TIP3    H250713   3.555   0.629   1.459 -1.0047 -2.1633 -0.6384
 8840TIP3   OH250714   3.473   1.589   3.084 -0.6620 -0.0125 -0.3727
 8840TIP3    H150715   3.438   1.500   3.092  1.9619 -0.9763  2.1817
 8840TIP3    H250716   3.497   1.597   2.992 -0.7022 -2.1169 -0.6174
 8841TIP3   OH250717   2.876   1.300   1.507 -0.7928  0.7775  0.3721
 8841TIP3    H150718   2.831   1.327   1.427  0.8985 -1.1156 -1.3203
 8841TIP3    H250719   2.966   1.330   1.495 -0.3156 -0.2808  1.1736
 8842TIP3   OH250720   3.872   4.414   1.854  0.2054  0.0618 -0.2895
 8842TIP3    H150721   3.796   4.357   1.852  0.3612 -0.1567 -0.0617
 8842TIP3    H250722   3.838   4.499   1.882  0.1718 -0.2413  0.6148
 8843TIP3   OH250723   6.058   0.353   3.256  0.0980  0.7905 -0.4664
 8843TIP3    H150724   6.130   0.393   3.306  2.8158 -2.8063 -1.1303
 8843TIP3    H250725   6.008   0.304   3.321  1.0220 -0.3464 -0.5799
 8844TIP3   OH250726   1.651   2.055   1.417 -0.7989  0.1719  0.1120
 8844TIP3    H150727   1.611   2.109   1.485  0.4311 -0.5605  1.4732
 8844TIP3    H250728   1.632   2.101   1.335 -1.3477  1.6783  1.0553
 8845TIP3   OH250729   0.875   5.413   2.815  0.1109  0.0389  0.6591
 8845TIP3    H150730   0.813   5.421   2.887  0.7631  0.2797  1.1965
 8845TIP3    H250731   0.842   5.339   2.764 -1.1424  0.7387  0.4095
 8846TIP3   OH250732   4.205   2.541   0.798  0.0339 -0.4283  0.2534
 8846TIP3    H150733   4.150   2.484   0.853  0.0340 -0.1972  0.4991
 8846TIP3    H250734   4.183   2.516   0.708 -0.1605 -0.6335  0.3548
 8847TIP3   OH250735   0.599   5.682   0.697 -0.2303 -0.5022  0.3521
 8847TIP3    H150736   0.505   5.679   0.683 -0.1789 -0.2220 -0.0852
 8847TIP3    H250737   0.619   5.776   0.701 -0.0142 -0.5626  0.7605
 8848TIP3   OH250738   1.713   5.168   3.713  0.4252  0.2865  0.6505
 8848TIP3    H150739   1.650   5.224   3.667  0.5834 -0.8268 -1.0030
 8848TIP3    H250740   1.659   5.102   3.755  0.4644 -1.4366 -1.8313
 8849TIP3   OH250741   6.295   4.171   3.246 -0.3428  0.0269 -0.3627
 8849TIP3    H150742   6.254   4.181   3.332 -1.6455  3.4668 -1.2018
 8849TIP3    H250743   6.382   4.136   3.264 -0.6918  0.3582  2.3187
 8850TIP3   OH250744   1.464   4.614   3.985 -0.0413 -0.0255 -0.2372
 8850TIP3    H150745   1.434   4.527   4.012  0.4010 -0.4833 -1.1956
 8850TIP3    H250746   1.396   4.644   3.924  1.3929 -1.0957 -2.4764
 8851TIP3   OH250747   2.313   1.803   0.972 -0.1140 -0.1325 -0.0950
 8851TIP3    H150748   2.227   1.844   0.960 -0.5153 -1.1867 -0.9996
 8851TIP3    H250749   2.353   1.806   0.885  1.3740  1.5594  0.5623
 8852TIP3   OH250750   1.247   0.456   4.203 -0.8407  0.1311  0.0818
 8852TIP3    H150751   1.322   0.398   4.189 -2.6674 -1.9109 -2.1397
 8852TIP3    H250752   1.260   0.528   4.141 -0.6475 -0.1409 -0.1940
 8853TIP3   OH250753   2.572   1.504   2.923  0.5873 -0.1344 -0.1160
 8853TIP3    H150754   2.618   1.487   2.841  0.0585  2.6663 -1.0829
 8853TIP3    H250755   2.544   1.595   2.917 -1.0274 -0.3607  2.4385
 8854TIP3   OH250756   3.886   6.141   3.168 -0.2015  0.3314  0.3969
 8854TIP3    H150757   3.978   6.138   3.191 -0.0531 -3.5696 -0.0306
 8854TIP3    H250758   3.839   6.131   3.251 -0.1674  0.3557  0.4190
 8855TIP3   OH250759   2.830   0.236   3.302  0.0175  0.2580 -0.1104
 8855TIP3    H150760   2.853   0.211   3.213 -0.6277 -1.1504  0.0815
 8855TIP3    H250761   2.761   0.174   3.327 -1.9963  2.5285  0.3034
 8856TIP3   OH250762   3.269   2.993   2.394  0.4813 -0.0422 -0.6039
 8856TIP3    H150763   3.284   2.899   2.383 -0.2946 -0.1627 -0.6847
 8856TIP3    H250764   3.308   3.014   2.479 -0.5747 -0.7276  0.0706
 8857TIP3   OH250765   2.191   5.068   2.669  0.4881 -0.0368 -0.1684
 8857TIP3    H150766   2.192   5.082   2.574  1.6662  0.8603 -0.0509
 8857TIP3    H250767   2.248   5.137   2.704  0.5248 -0.7005  1.1450
 8858TIP3   OH250768   3.545   0.789   3.027  0.4025  0.1865  0.1381
 8858TIP3    H150769   3.597   0.835   2.962  0.3575 -0.9295 -0.7085
 8858TIP3    H250770   3.463   0.767   2.982  1.0489 -2.1271 -0.0337
 8859TIP3   OH250771   2.017   6.377   2.730  0.2404 -0.0584  0.3399
 8859TIP3    H150772   1.968   6.411   2.656  0.1349 -1.6491 -0.3746
 8859TIP3    H250773   1.955   6.376   2.803  0.3860  1.6542  0.5082
 8860TIP3   OH250774   0.589   3.070   2.150  0.4319  0.6363 -0.1062
 8860TIP3    H150775   0.651   3.066   2.222 -0.7650  1.0038  0.9805
 8860TIP3    H250776   0.629   3.131   2.088  0.4989  2.0030  1.2333
 8861TIP3   OH250777   2.380   1.817   3.819 -0.0328  0.3711 -0.5877
 8861TIP3    H150778   2.363   1.903   3.779 -0.9360  0.2346 -0.5273
 8861TIP3    H250779   2.438   1.836   3.892 -0.5749  0.9983 -0.3076
 8862TIP3   OH250780   2.622   4.911   2.189 -0.2116 -0.4254 -0.1030
 8862TIP3    H150781   2.630   4.847   2.259 -1.6926 -0.2721  0.2485
 8862TIP3    H250782   2.639   4.862   2.109  0.4439 -0.8414  0.2851
 8863TIP3   OH250783   0.401   5.058   1.533 -0.0321  0.0945  0.4166
 8863TIP3    H150784   0.408   4.963   1.545 -1.4405 -0.0928 -0.0621
 8863TIP3    H250785   0.387   5.069   1.439 -2.0111  0.5959  0.7257
 8864TIP3   OH250786   5.096   2.172   2.900 -0.3910 -0.0763 -0.3268
 8864TIP3    H150787   5.019   2.227   2.917 -0.7909 -1.1017  1.3860
 8864TIP3    H250788   5.113   2.184   2.806 -0.7804  2.5168 -0.1524
 8865TIP3   OH250789   2.368   5.276   2.497 -0.3970  0.3456  0.6457
 8865TIP3    H150790   2.295   5.233   2.452  0.2872 -0.3938  0.2063
 8865TIP3    H250791   2.446   5.232   2.463  0.3785  2.2693 -0.1668
 8866TIP3   OH250792   0.547   2.393   2.496  0.8466  0.1773 -0.3427
 8866TIP3    H150793   0.497   2.318   2.531  2.0639 -1.1870 -1.4002
 8866TIP3    H250794   0.487   2.434   2.434  0.2233 -0.0329  0.1040
 8867TIP3   OH250795   1.755   3.655   4.187 -0.0739 -0.6271  0.2999
 8867TIP3    H150796   1.708   3.573   4.169 -0.3808 -0.5679  0.8075
 8867TIP3    H250797   1.846   3.627   4.204 -0.4692 -1.0385  1.9208
 8868TIP3   OH250798   6.052   0.634   3.955 -0.5347  0.5426  0.1326
 8868TIP3    H150799   6.089   0.657   3.870  0.8730  1.1748  0.8683
 8868TIP3    H250800   6.046   0.538   3.955  0.0516  0.5038 -0.4461
 8869TIP3   OH250801   1.035   5.830   3.481 -0.2121 -0.1553 -0.3359
 8869TIP3    H150802   1.019   5.815   3.574  1.5263 -1.7045 -0.2228
 8869TIP3    H250803   1.107   5.892   3.478  0.6376 -1.1248 -0.5846
 8870TIP3   OH250804   3.591   2.323   0.371  0.2428  0.6149  0.5939
 8870TIP3    H150805   3.619   2.311   0.462  2.0423  0.3090  0.0469
 8870TIP3    H250806   3.604   2.237   0.331 -1.7542  0.4082  0.3219
 8871TIP3   OH250807   6.337   4.690   1.894 -0.1897 -0.0665  0.2178
 8871TIP3    H150808   6.383   4.673   1.811  0.1194 -2.2132  0.7790
 8871TIP3    H250809   6.300   4.778   1.883 -0.1925 -0.3049 -2.2105
 8872TIP3   OH250810   1.358   0.434   2.825 -0.0455 -0.0613  0.1326
 8872TIP3    H150811   1.341   0.342   2.846  0.8275 -0.1811  0.3442
 8872TIP3    H250812   1.317   0.483   2.896 -1.2593 -0.2370 -0.4298
 8873TIP3   OH250813   5.767   1.055   0.688  0.2685  0.6159 -0.4928
 8873TIP3    H150814   5.689   1.058   0.632  0.6885 -0.9520 -1.2329
 8873TIP3    H250815   5.780   1.145   0.716 -1.4856  1.0029 -0.8086
 8874TIP3   OH250816   2.632   0.945   3.200  0.0699 -0.3786  0.0149
 8874TIP3    H150817   2.635   0.997   3.119  2.6568  1.6181  1.2786
 8874TIP3    H250818   2.693   0.873   3.184 -0.2158 -0.5866 -0.1589
 8875TIP3   OH250819   4.086   6.044   2.782  0.8434  0.0528 -0.3237
 8875TIP3    H150820   4.064   5.958   2.817  0.1106  0.2986 -0.1694
 8875TIP3    H250821   4.166   6.069   2.828  1.0072 -0.5018 -0.3002
 8876TIP3   OH250822   1.410   6.665   0.388 -0.1495  0.3045  0.5584
 8876TIP3    H150823   1.416   6.614   0.307 -0.3226  2.7496 -1.1131
 8876TIP3    H250824   1.340   6.623   0.438  0.8965 -2.1068  0.1337
 8877TIP3   OH250825   5.477   5.506   1.029  0.4082 -0.6860  0.2225
 8877TIP3    H150826   5.481   5.420   0.988 -1.7332 -1.3023  1.1919
 8877TIP3    H250827   5.564   5.520   1.065  1.5639 -1.2859 -2.1401
 8878TIP3   OH250828   3.460   4.617   2.689 -0.3195 -0.0750 -0.2789
 8878TIP3    H150829   3.554   4.631   2.684 -0.3493 -0.2058 -1.2587
 8878TIP3    H250830   3.426   4.648   2.605 -1.4113  1.9733  0.8289
 8879TIP3   OH250831   4.668   0.232   2.598 -0.7713 -0.1113 -0.3861
 8879TIP3    H150832   4.665   0.204   2.507 -1.4372  0.3952 -0.5261
 8879TIP3    H250833   4.604   0.303   2.604 -0.2852  0.2889  0.3277
 8880TIP3   OH250834   4.867   4.082   2.735 -0.4977  0.0576 -1.0510
 8880TIP3    H150835   4.843   4.130   2.813 -1.8702 -1.8836 -0.1934
 8880TIP3    H250836   4.791   4.028   2.715  0.6092 -1.0904 -2.4656
 8881TIP3   OH250837   1.201   2.004   0.527 -0.3413  0.0828  0.2430
 8881TIP3    H150838   1.248   1.993   0.444 -0.7889 -1.6487  0.1668
 8881TIP3    H250839   1.269   2.023   0.591  0.2035 -0.1715 -0.2522
 8882TIP3   OH250840   5.017   2.310   1.266 -0.0951 -0.2663 -0.2186
 8882TIP3    H150841   5.021   2.402   1.290  0.8856 -0.1169 -0.8888
 8882TIP3    H250842   4.996   2.264   1.348  3.7100  0.1546  1.2031
 8883TIP3   OH250843   6.239   4.928   1.730  0.0193  0.3974  0.4800
 8883TIP3    H150844   6.323   4.958   1.697  0.5046  0.8750  2.0767
 8883TIP3    H250845   6.178   4.943   1.657  1.6036 -1.7806 -1.4480
 8884TIP3   OH250846   1.301   0.050   3.236  0.2706  0.6110 -0.0295
 8884TIP3    H150847   1.362   0.124   3.238  0.0771  0.7666  0.0931
 8884TIP3    H250848   1.234   0.072   3.301 -1.0881  1.4383 -1.6386
 8885TIP3   OH250849   0.463   1.456   1.952 -0.2356  0.1645  0.3912
 8885TIP3    H150850   0.405   1.380   1.949 -0.1896 -0.1077  3.2223
 8885TIP3    H250851   0.431   1.514   1.883  1.1339 -3.2503 -3.4751
 8886TIP3   OH250852   5.932   4.684   2.720  0.2236 -0.0407 -0.1818
 8886TIP3    H150853   5.909   4.751   2.784  0.1193  1.6049 -1.8614
 8886TIP3    H250854   6.026   4.695   2.706  1.0129 -2.6489  2.0803
 8887TIP3   OH250855   1.975   2.307   0.943  0.2747  0.1863 -0.9118
 8887TIP3    H150856   1.946   2.387   0.899 -0.9378  0.0523 -0.3787
 8887TIP3    H250857   1.908   2.289   1.008  1.5065 -0.2132  0.2886
 8888TIP3   OH250858   0.867   2.847   2.500  0.1704  0.1997 -0.2613
 8888TIP3    H150859   0.796   2.789   2.527  1.3353 -1.7039 -1.0619
 8888TIP3    H250860   0.946   2.809   2.540  0.8221  2.0567  0.3354
 8889TIP3   OH250861   3.036   3.354   2.085 -0.4856 -0.5714  0.1791
 8889TIP3    H150862   3.076   3.279   2.129 -0.2455 -1.8838 -2.1083
 8889TIP3    H250863   3.092   3.369   2.008 -2.7963 -0.7330 -1.6511
 8890TIP3   OH250864   1.443   1.829   2.447 -0.3016  0.5997 -0.2025
 8890TIP3    H150865   1.430   1.746   2.400 -1.2768  1.5375 -1.6523
 8890TIP3    H250866   1.400   1.816   2.531 -0.2781 -0.4386 -0.3387
 8891TIP3   OH250867   3.261   3.176   1.028 -0.0519 -0.4115 -0.2918
 8891TIP3    H150868   3.254   3.085   0.999 -0.0370 -0.6283  0.3670
 8891TIP3    H250869   3.349   3.203   1.002 -0.3950 -0.2730 -1.3450
 8892TIP3   OH250870   5.680   2.590   1.205 -0.4672  0.0667 -0.0176
 8892TIP3    H150871   5.735   2.539   1.145 -0.7072  1.0341 -1.0955
 8892TIP3    H250872   5.657   2.669   1.155 -0.2855  1.1291  1.5186
 8893TIP3   OH250873   2.563   2.444   2.416 -0.1224 -0.0622  0.0956
 8893TIP3    H150874   2.563   2.397   2.332  0.3264 -0.2070  0.1778
 8893TIP3    H250875   2.470   2.460   2.433 -0.3154 -1.2678  0.2565
 8894TIP3   OH250876   2.574   6.003   3.988 -0.6371 -0.0547 -0.3653
 8894TIP3    H150877   2.590   5.969   3.900  0.7755 -3.6414  1.0708
 8894TIP3    H250878   2.641   6.070   4.000 -0.8200  0.4573 -1.9650
 8895TIP3   OH250879   0.517   4.060   0.915  0.1170  0.3503  0.0792
 8895TIP3    H150880   0.562   4.118   0.854  0.9253 -0.4210 -0.0748
 8895TIP3    H250881   0.533   4.098   1.001  0.5270  0.4316 -0.0322
 8896TIP3   OH250882   2.030   6.585   1.356 -0.7809 -0.6162  0.3010
 8896TIP3    H150883   1.948   6.593   1.306  0.2601  1.8693 -1.2098
 8896TIP3    H250884   2.089   6.538   1.297 -0.5404 -0.6294  0.5541
 8897TIP3   OH250885   2.245   2.670   1.520 -0.5555  0.3665 -0.0469
 8897TIP3    H150886   2.264   2.626   1.438 -1.1097  1.3242 -0.7105
 8897TIP3    H250887   2.330   2.686   1.560 -0.2025  0.9299 -0.9998
 8898TIP3   OH250888   1.508   2.151   3.619  0.2527  0.0726 -0.0632
 8898TIP3    H150889   1.581   2.153   3.681 -0.5918 -0.8482  1.0091
 8898TIP3    H250890   1.435   2.188   3.668 -0.9470 -2.5515  0.2762
 8899TIP3   OH250891   2.918   3.094   4.111 -0.1125 -0.1747  0.0167
 8899TIP3    H150892   2.904   3.154   4.038  1.0402  1.7525  1.2836
 8899TIP3    H250893   3.004   3.055   4.095 -0.0686 -0.1177  0.1166
 8900TIP3   OH250894   5.063   6.694   1.238 -0.0455  0.1572  1.3062
 8900TIP3    H150895   5.004   6.676   1.164  1.6672  0.8547 -0.3035
 8900TIP3    H250896   5.120   6.618   1.242  0.7442  0.7242  1.0135
 8901TIP3   OH250897   5.565   3.036   2.606  0.6359  0.7368 -0.4999
 8901TIP3    H150898   5.508   3.111   2.623 -0.7992 -0.1575 -1.1461
 8901TIP3    H250899   5.576   2.995   2.692  0.5700  1.1068 -0.3115
 8902TIP3   OH250900   3.785   2.385   2.506 -0.0780 -0.0572  0.6411
 8902TIP3    H150901   3.852   2.372   2.573 -0.0401 -0.3722  0.5440
 8902TIP3    H250902   3.770   2.297   2.470 -0.2519  0.0765  0.3862
 8903TIP3   OH250903   1.011   0.786   2.744  0.2587 -0.1003  0.7843
 8903TIP3    H150904   1.085   0.834   2.706  0.3308 -0.7615  0.0605
 8903TIP3    H250905   1.037   0.769   2.834  1.2518 -0.8229  0.3807
 8904TIP3   OH250906   1.450   0.073   2.832  0.0587 -0.0728 -0.4067
 8904TIP3    H150907   1.381   0.091   2.896 -0.2337 -2.1295 -0.0847
 8904TIP3    H250908   1.403   0.058   2.750  0.2046 -0.4324 -0.4246
 8905TIP3   OH250909   1.879   4.181   0.995  0.1164 -0.5634 -0.8929
 8905TIP3    H150910   1.969   4.178   0.961 -0.3400 -0.3549 -2.1450
 8905TIP3    H250911   1.824   4.161   0.920 -0.9346  0.1605 -0.3400
 8906TIP3   OH250912   4.462   1.994   2.795 -0.0418  0.2574 -0.1520
 8906TIP3    H150913   4.532   1.978   2.859 -0.0362  0.7248 -0.0372
 8906TIP3    H250914   4.471   2.087   2.773 -0.6954  0.3445 -0.0615
 8907TIP3   OH250915   4.386   3.267   3.623  0.4310 -0.1973  0.0375
 8907TIP3    H150916   4.417   3.344   3.671  2.1352 -0.4809 -0.5221
 8907TIP3    H250917   4.399   3.289   3.531  0.0767 -0.8016 -0.1657
 8908TIP3   OH250918   0.304   1.652   2.109  0.5183  0.9304  0.7530
 8908TIP3    H150919   0.278   1.616   2.194 -1.6404  0.7208  0.0512
 8908TIP3    H250920   0.363   1.586   2.073 -1.6632 -0.9972  0.4382
 8909TIP3   OH250921   1.376   4.699   2.834  0.4647  1.2037 -0.0960
 8909TIP3    H150922   1.344   4.781   2.869  1.6939  1.6788 -0.0263
 8909TIP3    H250923   1.438   4.725   2.765  1.8760  0.3926  0.8199
 8910TIP3   OH250924   0.649   4.423   2.606 -0.0909  0.6119 -0.1145
 8910TIP3    H150925   0.733   4.383   2.583  0.0271  1.0117 -0.3874
 8910TIP3    H250926   0.622   4.471   2.527 -1.0659 -0.3250 -0.3652
 8911TIP3   OH250927   2.375   3.349   1.221 -0.0170  0.0450 -0.3211
 8911TIP3    H150928   2.377   3.419   1.286  0.4369  0.3812 -0.6969
 8911TIP3    H250929   2.282   3.337   1.202 -0.1374  0.1223  0.1893
 8912TIP3   OH250930   1.256   2.276   2.825  0.1061  0.6962 -0.0302
 8912TIP3    H150931   1.223   2.207   2.883  0.2342 -0.8826 -1.7551
 8912TIP3    H250932   1.321   2.323   2.878  0.8002 -1.1910  0.8589
 8913TIP3   OH250933   5.063   2.277   1.972  0.5631  0.0351 -0.0423
 8913TIP3    H150934   5.116   2.357   1.967  1.0763 -0.1244  1.8214
 8913TIP3    H250935   4.996   2.288   1.905  0.6889  1.9966  0.0884
 8914TIP3   OH250936   4.330   5.256   3.886  0.7211 -0.1147 -0.3322
 8914TIP3    H150937   4.288   5.194   3.945 -0.7285  0.7266 -0.4289
 8914TIP3    H250938   4.381   5.314   3.944  0.2431 -0.0067 -0.0139
 8915TIP3   OH250939   6.202   4.571   2.257 -0.5437  0.1188 -0.1369
 8915TIP3    H150940   6.274   4.631   2.237  0.0879 -0.2918  0.7946
 8915TIP3    H250941   6.180   4.531   2.173  2.2036 -1.7653 -0.1240
 8916TIP3   OH250942   4.745   2.193   3.156 -0.4410  0.1248  0.8738
 8916TIP3    H150943   4.679   2.261   3.163 -0.2059  0.3051  1.3787
 8916TIP3    H250944   4.754   2.158   3.245 -2.4760 -2.4127  0.2106
 8917TIP3   OH250945   2.713   4.670   2.309 -0.0808 -0.1722  0.0403
 8917TIP3    H150946   2.734   4.603   2.244  2.0458  0.1175  0.3661
 8917TIP3    H250947   2.797   4.710   2.330 -1.2234  2.3380  0.1730
 8918TIP3   OH250948   2.152   3.227   1.572  0.5972  0.1427 -0.1422
 8918TIP3    H150949   2.150   3.134   1.547  0.2075  0.0696  0.1536
 8918TIP3    H250950   2.108   3.230   1.657 -1.3240  0.8829 -1.0937
 8919TIP3   OH250951   3.364   5.279   2.756  0.5010  0.3004  0.0462
 8919TIP3    H150952   3.347   5.263   2.664 -0.5597  0.0255  0.2736
 8919TIP3    H250953   3.398   5.369   2.760  0.6237  0.2840 -0.6055
 8920TIP3   OH250954   3.450   0.166   2.516 -0.1645 -0.1398 -0.3393
 8920TIP3    H150955   3.482   0.223   2.586  0.1970  0.7111 -1.1803
 8920TIP3    H250956   3.356   0.158   2.532 -0.2351  0.7686 -0.2686
 8921TIP3   OH250957   3.743   3.914   3.329  0.2682 -0.4122  0.2588
 8921TIP3    H150958   3.686   3.860   3.384  0.7400 -1.2724 -0.0824
 8921TIP3    H250959   3.807   3.951   3.390  0.1714 -0.5492  0.4438
 8922TIP3   OH250960   2.863   1.208   1.789  0.1772  0.1324 -0.2119
 8922TIP3    H150961   2.806   1.273   1.831  0.0556 -0.1498  0.0609
 8922TIP3    H250962   2.877   1.242   1.700 -1.5388 -0.4978 -0.7504
 8923TIP3   OH250963   4.072   0.548   1.488 -0.1897 -0.7383  0.0148
 8923TIP3    H150964   4.018   0.470   1.475 -1.0200 -0.1571 -0.1184
 8923TIP3    H250965   4.125   0.554   1.409  0.6323 -1.7354  0.4713
 8924TIP3   OH250966   3.372   2.437   0.674  0.1703 -0.1540 -1.0871
 8924TIP3    H150967   3.346   2.411   0.762 -0.0648 -0.8353 -1.3475
 8924TIP3    H250968   3.386   2.354   0.628  2.0161  0.1781 -1.1926
 8925TIP3   OH250969   5.749   1.197   1.540 -0.7037 -0.2081 -0.1169
 8925TIP3    H150970   5.741   1.241   1.625  0.9623 -0.6826  0.3173
 8925TIP3    H250971   5.735   1.267   1.475  0.8022  0.7883  0.5606
 8926TIP3   OH250972   4.316   3.227   2.616  0.1512  1.0606 -0.2776
 8926TIP3    H150973   4.237   3.175   2.631 -1.1047  3.5328  2.8798
 8926TIP3    H250974   4.298   3.273   2.534 -0.6572 -0.0456 -0.7681
 8927TIP3   OH250975   1.564   4.012   0.627 -0.0556  0.3551 -0.6853
 8927TIP3    H150976   1.644   4.039   0.583  0.7543 -1.3521 -0.3345
 8927TIP3    H250977   1.593   3.947   0.691 -1.6330  0.2766 -0.0156
 8928TIP3   OH250978   5.700   1.844   2.667 -0.3393  0.2980 -0.0208
 8928TIP3    H150979   5.711   1.762   2.618 -0.0905  0.2197  0.1599
 8928TIP3    H250980   5.769   1.901   2.632 -1.6606  1.0872 -1.4591
 8929TIP3   OH250981   5.361   3.444   1.162  0.2378  0.7499 -0.2677
 8929TIP3    H150982   5.404   3.361   1.182  0.2674  0.4696 -1.3828
 8929TIP3    H250983   5.269   3.422   1.153  0.4607  0.4172 -2.4240
 8930TIP3   OH250984   3.854   6.634   2.240  0.5028 -0.6744 -0.2569
 8930TIP3    H150985   3.768   6.651   2.278  0.4129  1.4433 -1.2521
 8930TIP3    H250986   3.886   6.557   2.286  0.1152  1.2323  3.6494
 8931TIP3   OH250987   0.785   5.580   3.493 -0.0928 -0.1182 -0.1014
 8931TIP3    H150988   0.872   5.541   3.494  0.9756  2.1347 -0.6747
 8931TIP3    H250989   0.770   5.610   3.583  0.6058  1.2919 -0.4368
 8932TIP3   OH250990   3.941   2.242   1.784 -0.0139  0.2038  0.3448
 8932TIP3    H150991   3.939   2.315   1.721 -0.5646 -0.8112 -0.8747
 8932TIP3    H250992   3.866   2.258   1.841 -0.5447  0.2481 -0.3472
 8933TIP3   OH250993   1.125   0.592   1.636  0.2527 -0.4420 -0.2955
 8933TIP3    H150994   1.066   0.532   1.682 -1.1138 -0.5659 -2.0686
 8933TIP3    H250995   1.083   0.677   1.643  1.0041 -0.1140  0.2688
 8934TIP3   OH250996   0.922   0.894   1.910  0.0251 -0.0699  0.2532
 8934TIP3    H150997   0.926   0.869   1.818  0.3697 -0.3233  0.3348
 8934TIP3    H250998   0.974   0.974   1.916  1.6596 -1.0970  0.5615
 8935TIP3   OH250999   5.769   4.105   1.279  0.6130  0.2252  0.1337
 8935TIP3    H151000   5.728   4.037   1.333 -0.9338 -0.2951 -1.5902
 8935TIP3    H251001   5.848   4.064   1.246 -1.0619 -1.4500 -2.1436
 8936TIP3   OH251002   5.326   5.501   2.234  0.1547 -0.0266  0.4679
 8936TIP3    H151003   5.385   5.433   2.266  1.4809  1.3795  1.1267
 8936TIP3    H251004   5.308   5.477   2.143 -1.1733 -2.4124  1.2889
 8937TIP3   OH251005   2.139   3.517   1.932  0.5333 -0.1401 -0.1699
 8937TIP3    H151006   2.190   3.589   1.897  1.2196 -0.9061 -0.7762
 8937TIP3    H251007   2.059   3.558   1.965  0.6240  0.8098 -1.0999
 8938TIP3   OH251008   3.408   3.509   2.169 -0.5415  0.0420  0.3142
 8938TIP3    H151009   3.497   3.535   2.191 -1.1462  0.7556  2.1640
 8938TIP3    H251010   3.415   3.418   2.142  1.0264  0.7447 -1.8508
 8939TIP3   OH251011   1.023   1.609   2.326  0.2748 -0.2590 -0.3200
 8939TIP3    H151012   1.055   1.687   2.281 -0.3862  0.0331 -0.2993
 8939TIP3    H251013   1.058   1.536   2.276  1.0893  0.0428 -0.2099
 8940TIP3   OH251014   1.720   0.887   0.940  0.1779  0.2623 -0.6952
 8940TIP3    H151015   1.673   0.968   0.918  0.2347 -0.0718 -2.2052
 8940TIP3    H251016   1.665   0.843   1.004 -0.3123  1.0696 -0.5510
 8941TIP3   OH251017   1.925   6.411   3.720 -0.0107  0.0043 -0.0168
 8941TIP3    H151018   2.017   6.395   3.743  0.1225  0.9985  0.1714
 8941TIP3    H251019   1.906   6.346   3.652  0.6505 -0.5988  0.3534
 8942TIP3   OH251020   1.137   6.601   4.540 -0.1572  0.0514  0.2002
 8942TIP3    H151021   1.166   6.542   4.470  0.3444 -0.9948  1.2540
 8942TIP3    H251022   1.122   6.685   4.496 -1.6164 -1.0145 -1.4977
 8943TIP3   OH251023   1.396   5.298   2.415  1.0354  0.2077  0.5915
 8943TIP3    H151024   1.413   5.234   2.346 -4.7828 -1.8733  0.5008
 8943TIP3    H251025   1.391   5.382   2.369  0.0545 -0.7127 -1.0969
 8944TIP3   OH251026   6.223   0.374   3.949  0.2411 -0.3073 -0.8735
 8944TIP3    H151027   6.290   0.360   3.882  0.6720  0.1947 -0.5567
 8944TIP3    H251028   6.223   0.293   4.001  0.6125 -0.3013 -0.8643
 8945TIP3   OH251029   1.254   4.123   2.858  0.5403 -0.1579 -0.0522
 8945TIP3    H151030   1.311   4.056   2.820 -0.3462 -1.2395  0.4808
 8945TIP3    H251031   1.186   4.137   2.792  0.6062  0.0827 -0.0723
 8946TIP3   OH251032   1.469   1.965   3.917 -0.4613  0.1624  0.2532
 8946TIP3    H151033   1.433   2.028   3.980  1.1102  1.2772  0.0960
 8946TIP3    H251034   1.559   1.994   3.904 -0.4577 -0.6329 -1.7791
 8947TIP3   OH251035   6.413   4.152   3.601  0.1386  0.0694 -0.1225
 8947TIP3    H151036   6.487   4.204   3.571  1.0281 -0.9575  0.2374
 8947TIP3    H251037   6.452   4.074   3.639 -1.2175 -1.9013 -2.4989
 8948TIP3   OH251038   4.494   6.438   0.513  0.2498 -0.6384  0.3675
 8948TIP3    H151039   4.433   6.364   0.511  0.2670 -0.6484 -1.0105
 8948TIP3    H251040   4.440   6.514   0.489  0.3791 -0.3178  1.0791
 8949TIP3   OH251041   1.114   6.637   1.809 -0.3331  0.0605 -0.5124
 8949TIP3    H151042   1.094   6.544   1.811  0.0620 -0.0262 -0.3908
 8949TIP3    H251043   1.052   6.674   1.746 -1.0605 -0.1420  0.0850
 8950TIP3   OH251044   1.959   6.109   3.015 -0.2844 -0.1930  0.0891
 8950TIP3    H151045   1.878   6.151   2.987 -0.3569  0.4481  1.2142
 8950TIP3    H251046   1.938   6.069   3.099  0.5524 -0.0267  0.3915
 8951TIP3   OH251047   1.300   1.634   2.624 -0.2098 -0.4881  0.2121
 8951TIP3    H151048   1.389   1.601   2.639 -0.1946 -0.8890 -0.7265
 8951TIP3    H251049   1.284   1.694   2.698  0.0334 -2.0273  1.5738
 8952TIP3   OH251050   0.186   3.094   0.948 -0.2493  0.5165  0.3448
 8952TIP3    H151051   0.244   3.019   0.964 -0.5867  0.3648  0.8560
 8952TIP3    H251052   0.225   3.138   0.872 -2.2958 -2.4924 -2.7240
 8953TIP3   OH251053   2.664   3.929   3.844 -0.4911  0.8742 -0.2546
 8953TIP3    H151054   2.666   3.891   3.932  1.5088 -1.2647 -1.1262
 8953TIP3    H251055   2.575   3.911   3.813  0.3686 -3.6737 -0.7026
 8954TIP3   OH251056   0.323   0.582   3.895  0.4675  0.0832 -0.1511
 8954TIP3    H151057   0.369   0.636   3.959 -0.5425  3.7236 -2.2321
 8954TIP3    H251058   0.236   0.570   3.931  0.4279  0.6099 -0.0694
 8955TIP3   OH251059   0.342   4.157   2.951  0.7955  0.3551 -0.4216
 8955TIP3    H151060   0.265   4.113   2.913 -1.2261  1.6595  1.8710
 8955TIP3    H251061   0.372   4.215   2.881  1.3305 -1.9290 -2.2392
 8956TIP3   OH251062   6.024   4.271   3.060 -0.2954  0.4568  0.6980
 8956TIP3    H151063   5.982   4.187   3.079  0.3973 -0.1327 -0.2554
 8956TIP3    H251064   6.097   4.276   3.122 -0.9998  0.8797  1.4966
 8957TIP3   OH251065   1.313   6.083   1.116 -0.0340  0.2642 -0.2397
 8957TIP3    H151066   1.399   6.123   1.108 -0.4165  0.8482 -1.7284
 8957TIP3    H251067   1.253   6.157   1.127 -0.2181 -0.1927  2.6594
 8958TIP3   OH251068   0.756   3.700   2.038  0.5452  0.3237  0.4970
 8958TIP3    H151069   0.709   3.745   2.108  1.5772  2.2988 -0.0186
 8958TIP3    H251070   0.718   3.736   1.957  1.8782  0.8130  0.0705
 8959TIP3   OH251071   3.534   3.114   2.167  0.1811 -0.1458 -0.5018
 8959TIP3    H151072   3.484   3.103   2.086  0.0406 -0.2275 -0.4048
 8959TIP3    H251073   3.605   3.174   2.144  0.6642 -0.8694 -0.9051
 8960TIP3   OH251074   4.433   5.255   2.707 -0.5475 -0.0874  0.5684
 8960TIP3    H151075   4.438   5.256   2.803  0.2051 -0.9015  0.5557
 8960TIP3    H251076   4.408   5.344   2.683 -0.8895  0.0833  1.5298
 8961TIP3   OH251077   2.240   0.991   2.193  0.4413  0.3096  0.4623
 8961TIP3    H151078   2.243   0.982   2.288 -0.7045 -0.8611  0.4319
 8961TIP3    H251079   2.179   1.064   2.178  1.0618  0.8656  0.6253
 8962TIP3   OH251080   1.542   5.810   1.332 -0.1400  0.1622  0.3465
 8962TIP3    H151081   1.458   5.773   1.361 -0.0411 -0.6196 -0.3352
 8962TIP3    H251082   1.555   5.887   1.388 -1.7502  0.8155 -0.1135
 8963TIP3   OH251083   6.048   3.929   1.960 -0.3686  0.6914 -0.4152
 8963TIP3    H151084   6.126   3.974   1.929 -0.6731  0.5995 -1.3455
 8963TIP3    H251085   5.995   3.998   2.001  0.8228  0.5145  1.5573
 8964TIP3   OH251086   2.650   3.276   4.477  0.3325 -0.4434  0.4001
 8964TIP3    H151087   2.704   3.213   4.430  0.2897  0.6827 -1.2425
 8964TIP3    H251088   2.709   3.317   4.539  0.6558 -1.2097  0.6088
 8965TIP3   OH251089   6.435   5.161   2.951 -0.1481 -0.5537 -0.0321
 8965TIP3    H151090   6.386   5.205   2.882 -0.9033 -1.6565 -0.2307
 8965TIP3    H251091   6.525   5.156   2.917 -0.3048 -0.2043 -0.5011
 8966TIP3   OH251092   4.462   4.168   3.453 -0.1610 -0.6707 -0.0607
 8966TIP3    H151093   4.428   4.088   3.495  0.2878 -0.4152  0.8226
 8966TIP3    H251094   4.515   4.210   3.521  0.7915 -0.3573 -0.9618
 8967TIP3   OH251095   4.231   1.157   3.965 -0.1732  0.4346 -0.0485
 8967TIP3    H151096   4.327   1.159   3.975 -0.1068  0.2707 -0.6027
 8967TIP3    H251097   4.214   1.212   3.889 -0.4865  0.1210 -0.2061
 8968TIP3   OH251098   2.165   6.053   1.589  0.2848 -0.5247 -0.4038
 8968TIP3    H151099   2.224   5.994   1.635 -1.0219 -0.1739  1.8881
 8968TIP3    H251100   2.214   6.134   1.579  1.4751 -1.3910 -2.0000
 8969TIP3   OH251101   0.250   3.419   1.379 -0.0611  0.1222  0.1949
 8969TIP3    H151102   0.278   3.384   1.295 -0.6860 -0.3244  0.1715
 8969TIP3    H251103   0.155   3.417   1.376 -0.1054 -1.0853  1.3869
 8970TIP3   OH251104   1.429   1.242   2.151  0.1767  0.5896 -0.9908
 8970TIP3    H151105   1.524   1.248   2.145  0.1700  0.3040 -1.5427
 8970TIP3    H251106   1.412   1.147   2.153 -0.0614  0.6488 -0.2152
 8971TIP3   OH251107   3.829   0.528   1.767 -0.2496 -0.7781  0.0592
 8971TIP3    H151108   3.885   0.606   1.764 -1.1278 -0.1291  0.1847
 8971TIP3    H251109   3.875   0.464   1.713  1.4411 -0.8312  1.4604
 8972TIP3   OH251110   2.648   2.913   3.289  0.3806 -0.1427  0.5498
 8972TIP3    H151111   2.726   2.877   3.330  1.3861  1.6767  0.3787
 8972TIP3    H251112   2.604   2.963   3.358 -0.2319 -0.5328  0.4544
 8973TIP3   OH251113   0.107   4.079   2.825 -0.3652 -0.2677 -0.6299
 8973TIP3    H151114   0.167   4.134   2.775 -0.3006 -0.1829 -0.4596
 8973TIP3    H251115   0.041   4.051   2.762 -1.9489  2.1609 -0.1763
 8974TIP3   OH251116   3.220   6.193   3.988 -0.1064 -0.5035  0.3287
 8974TIP3    H151117   3.258   6.163   3.905  2.0782  0.4529  0.9045
 8974TIP3    H251118   3.291   6.185   4.051 -1.3127  0.0791  1.8232
 8975TIP3   OH251119   3.109   1.808   4.008  0.2133 -0.1321 -0.4164
 8975TIP3    H151120   3.171   1.806   3.935  0.7307 -1.1986  0.0354
 8975TIP3    H251121   3.056   1.886   3.991  1.1299  0.3422 -1.2587
 8976TIP3   OH251122   1.540   1.399   2.405  0.5883 -0.2895  0.2469
 8976TIP3    H151123   1.581   1.371   2.323  1.4294  0.8866  0.2439
 8976TIP3    H251124   1.513   1.317   2.447 -0.6474 -0.8898 -1.5820
 8977TIP3   OH251125   2.581   5.174   2.362  0.1894  0.4851  0.0093
 8977TIP3    H151126   2.597   5.132   2.277 -0.6963 -0.8274  0.4550
 8977TIP3    H251127   2.632   5.254   2.359  0.4467  0.2963 -1.6354
 8978TIP3   OH251128   3.043   5.920   1.965 -0.0556 -0.5739  0.1404
 8978TIP3    H151129   3.063   5.830   1.942 -0.0496 -1.0433  1.8651
 8978TIP3    H251130   3.098   5.940   2.041  0.5778  1.1817 -0.7145
 8979TIP3   OH251131   1.964   6.434   4.117 -0.2135  0.3045  0.1000
 8979TIP3    H151132   1.939   6.400   4.031  3.1712 -1.2635 -0.4234
 8979TIP3    H251133   1.986   6.356   4.168  2.2100  1.3701  0.8170
 8980TIP3   OH251134   4.489   4.220   2.677  0.5441 -0.1393 -0.3471
 8980TIP3    H151135   4.414   4.162   2.689  0.7767 -0.6661 -1.3208
 8980TIP3    H251136   4.454   4.297   2.634  0.4211 -0.0290 -0.0500
 8981TIP3   OH251137   1.190   5.849   3.812  0.5721 -0.2762  0.0145
 8981TIP3    H151138   1.191   5.833   3.907 -2.4288 -2.2617 -0.1733
 8981TIP3    H251139   1.143   5.774   3.776  1.5396  0.4833 -3.0902
 8982TIP3   OH251140   4.553   0.151   1.793  0.3403 -0.6100 -0.0448
 8982TIP3    H151141   4.538   0.200   1.874  2.4711 -2.7396  1.7989
 8982TIP3    H251142   4.551   0.217   1.724 -0.0472  1.5394  1.9046
 8983TIP3   OH251143   3.451   4.213   3.525 -0.1837  0.5080 -0.1463
 8983TIP3    H151144   3.383   4.266   3.567  0.1184  0.1366  0.8394
 8983TIP3    H251145   3.504   4.179   3.598  1.3863  1.2122 -0.8953
 8984TIP3   OH251146   4.272   5.035   1.401 -0.4198  0.0882 -0.3120
 8984TIP3    H151147   4.186   5.074   1.385  0.2689  1.7430 -0.2547
 8984TIP3    H251148   4.305   5.014   1.313 -1.2782 -1.5362 -0.2761
 8985TIP3   OH251149   3.304   2.548   1.370  0.0735  0.3427  0.1708
 8985TIP3    H151150   3.223   2.554   1.319 -1.5338 -1.3397  2.3109
 8985TIP3    H251151   3.339   2.461   1.349  1.1326  0.9114 -0.4507
 8986TIP3   OH251152   3.701   2.205   2.818  0.1664  0.6987  0.6902
 8986TIP3    H151153   3.770   2.171   2.875 -0.2884  0.3596  1.0491
 8986TIP3    H251154   3.716   2.299   2.816  0.6801  0.6219  0.7058
 8987TIP3   OH251155   1.817   6.363   1.000 -0.2059  0.2845  0.0058
 8987TIP3    H151156   1.817   6.358   0.905  0.5745  1.5464 -0.0763
 8987TIP3    H251157   1.856   6.280   1.028 -1.3296 -0.5214 -0.7115
 8988TIP3   OH251158   4.641   6.667   1.453  0.0945 -0.0622 -0.7522
 8988TIP3    H151159   4.555   6.707   1.461  0.4475  0.3252  3.4837
 8988TIP3    H251160   4.632   6.603   1.383 -3.6281 -0.0540 -0.4522
 8989TIP3   OH251161   5.520   2.674   1.859  0.4249 -0.3261  0.7715
 8989TIP3    H151162   5.481   2.674   1.772  1.9391 -0.6257  0.0585
 8989TIP3    H251163   5.600   2.726   1.850  0.7663 -0.6197  1.9063
 8990TIP3   OH251164   3.603   0.683   3.735 -0.2643  0.4121  0.1830
 8990TIP3    H151165   3.601   0.772   3.770  3.0634  0.5188  0.4192
 8990TIP3    H251166   3.684   0.645   3.769 -0.6765 -2.1044 -1.3620
 8991TIP3   OH251167   5.703   1.707   1.819  0.9340 -0.1712  0.6401
 8991TIP3    H151168   5.712   1.774   1.752 -3.4807 -0.2390 -0.2620
 8991TIP3    H251169   5.682   1.755   1.899  1.9020 -0.3227  1.0007
 8992TIP3   OH251170   1.372   5.657   3.076 -0.1543  0.0992  0.3979
 8992TIP3    H151171   1.355   5.626   3.165 -4.5739  1.1758  0.1610
 8992TIP3    H251172   1.360   5.579   3.021  1.1018 -0.2523  0.5997
 8993TIP3   OH251173   4.843   1.196   1.520  0.3900 -0.3819 -0.4902
 8993TIP3    H151174   4.838   1.139   1.443 -1.5592  0.0203 -0.6930
 8993TIP3    H251175   4.755   1.232   1.530  1.4155  2.1995 -0.0483
 8994TIP3   OH251176   1.419   3.964   2.098  0.0982 -0.3650 -0.0549
 8994TIP3    H151177   1.486   3.917   2.149  0.7087 -0.4243 -0.8832
 8994TIP3    H251178   1.347   3.901   2.091  0.8562 -1.1521 -1.0423
 8995TIP3   OH251179   1.978   5.773   3.432 -0.0493  0.0003 -0.3224
 8995TIP3    H151180   2.040   5.833   3.391  0.4350 -0.4356 -0.2437
 8995TIP3    H251181   1.989   5.691   3.385  0.2233 -0.3899  0.3934
 8996TIP3   OH251182   2.913   1.275   0.807 -0.4564  0.4180  0.0975
 8996TIP3    H151183   2.961   1.195   0.787  0.7960  1.1541  0.0927
 8996TIP3    H251184   2.827   1.244   0.837 -0.0065 -0.9164  0.0766
 8997TIP3   OH251185   1.523   3.181   0.473 -0.5007 -0.2830  0.5135
 8997TIP3    H151186   1.490   3.268   0.497 -1.4425 -0.2242 -0.8756
 8997TIP3    H251187   1.447   3.134   0.441  0.4626 -0.6621 -1.3763
 8998TIP3   OH251188   2.094   1.552   1.718 -0.3630  0.2600 -0.5809
 8998TIP3    H151189   2.021   1.613   1.709 -1.3371 -1.1095 -2.3516
 8998TIP3    H251190   2.060   1.468   1.690  1.9490 -0.3805 -1.7129
 8999TIP3   OH251191   6.189   0.644   1.137  0.2722 -0.1384  0.4286
 8999TIP3    H151192   6.133   0.634   1.060  0.0132  0.2267  0.5719
 8999TIP3    H251193   6.177   0.563   1.186 -1.5869  0.7056  1.4262
 9000TIP3   OH251194   1.460   3.938   3.349 -0.3684 -0.3345 -0.3943
 9000TIP3    H151195   1.452   4.001   3.420 -1.1434 -1.2050  0.3177
 9000TIP3    H251196   1.553   3.939   3.326  0.0030 -0.4322  1.0102
 9001TIP3   OH251197   3.302   0.445   3.246 -1.0715 -0.1856 -0.4337
 9001TIP3    H151198   3.270   0.534   3.264  1.1813  0.2238  2.0729
 9001TIP3    H251199   3.227   0.389   3.263 -2.1547  1.1133 -0.7137
 9002TIP3   OH251200   5.391   3.052   1.306  0.3627  0.0190  0.0648
 9002TIP3    H151201   5.313   3.091   1.265  0.2458 -0.4151 -0.1275
 9002TIP3    H251202   5.461   3.115   1.287  0.2290  0.0184 -0.4682
 9003TIP3   OH251203   4.324   0.562   3.583 -0.5287 -0.2812  0.5965
 9003TIP3    H151204   4.291   0.512   3.658 -1.1327 -0.6832  0.0667
 9003TIP3    H251205   4.385   0.625   3.622 -1.5319  0.1539  1.5517
 9004TIP3   OH251206   5.857   6.296   1.290  0.3723  0.1345 -0.0420
 9004TIP3    H151207   5.786   6.235   1.270  0.2689  0.5348 -0.9483
 9004TIP3    H251208   5.937   6.246   1.277  0.2710 -0.1927  0.5580
 9005TIP3   OH251209   4.054   6.429   0.678  0.3561  0.2656  0.1478
 9005TIP3    H151210   4.085   6.519   0.675  0.8911  0.0584 -0.7869
 9005TIP3    H251211   4.044   6.410   0.772 -3.6478  2.5809  0.4488
 9006TIP3   OH251212   3.717   4.498   2.222  0.3778 -0.0238  0.1601
 9006TIP3    H151213   3.722   4.575   2.164  0.1663  0.3201  0.5880
 9006TIP3    H251214   3.793   4.506   2.279 -0.0174  0.2516  0.6607
 9007TIP3   OH251215   4.244   2.409   1.212 -0.1434  0.5201 -0.0384
 9007TIP3    H151216   4.239   2.341   1.280 -0.5270 -0.4761 -1.0231
 9007TIP3    H251217   4.335   2.406   1.183 -0.3553 -0.1806 -0.6601
 9008TIP3   OH251218   3.136   4.059   1.778 -0.0993 -0.1145  0.0572
 9008TIP3    H151219   3.226   4.056   1.810 -0.0664  0.9684  0.1113
 9008TIP3    H251220   3.082   4.043   1.855  0.0394 -0.2651  0.1219
 9009TIP3   OH251221   1.914   1.541   2.801 -0.4133  0.4164 -0.4098
 9009TIP3    H151222   1.857   1.613   2.775 -0.2229  1.4663  1.7985
 9009TIP3    H251223   2.001   1.579   2.804 -0.4008  0.3711  1.4620
 9010TIP3   OH251224   2.176   1.686   3.986  0.2130 -0.2943 -0.1611
 9010TIP3    H151225   2.249   1.704   3.927  0.1212 -0.0791 -0.2124
 9010TIP3    H251226   2.193   1.599   4.020  1.7138  0.6411  1.6136
 9011TIP3   OH251227   2.734   5.407   2.369  0.3994  0.3462 -0.2006
 9011TIP3    H151228   2.824   5.427   2.344 -0.1336  1.9956 -1.0055
 9011TIP3    H251229   2.685   5.487   2.346 -1.5799 -1.1487 -1.5087
 9012TIP3   OH251230   4.452   4.227   2.258 -0.2173  0.4324  0.0236
 9012TIP3    H151231   4.456   4.278   2.339 -1.4684 -0.2793  0.5586
 9012TIP3    H251232   4.386   4.272   2.204  1.0176  1.2363 -0.8672
 9013TIP3   OH251233   2.560   0.837   3.987  0.2313 -0.1274  0.7529
 9013TIP3    H151234   2.542   0.812   4.078  1.1464 -1.2700  0.6475
 9013TIP3    H251235   2.534   0.760   3.936  0.1670  0.3287  0.0897
 9014TIP3   OH251236   3.579   0.985   2.585 -0.0740  0.5303 -0.2937
 9014TIP3    H151237   3.594   0.947   2.499 -1.1518  0.2572 -0.3745
 9014TIP3    H251238   3.495   1.030   2.577 -0.0908  0.6702  0.5569
 9015TIP3   OH251239   6.245   1.267   0.912 -0.1591 -0.5474 -0.5182
 9015TIP3    H151240   6.306   1.233   0.846  0.7203 -0.1329  0.0634
 9015TIP3    H251241   6.230   1.358   0.887 -0.1460 -0.5060 -0.3763
 9016TIP3   OH251242   2.586   3.311   1.046 -0.5830 -0.3551  0.1567
 9016TIP3    H151243   2.506   3.320   1.099 -0.8160 -1.2511 -0.0145
 9016TIP3    H251244   2.644   3.379   1.078 -1.5483  0.5485  0.0526
 9017TIP3   OH251245   3.073   5.447   1.561 -0.1223  0.0482 -0.3755
 9017TIP3    H151246   3.048   5.538   1.544  0.5549  0.2603 -0.2355
 9017TIP3    H251247   3.160   5.453   1.600 -0.3927 -0.6150  0.3368
 9018TIP3   OH251248   4.051   4.401   0.995 -0.2677  0.4480  0.0755
 9018TIP3    H151249   4.133   4.353   0.989 -1.5974 -1.8431 -3.9370
 9018TIP3    H251250   4.021   4.388   1.085  2.0976 -1.6259  0.6640
 9019TIP3   OH251251   3.899   3.669   1.978 -0.2651 -0.6166  0.5000
 9019TIP3    H151252   3.929   3.699   1.892  1.1649 -2.3045  0.3575
 9019TIP3    H251253   3.825   3.611   1.960 -0.5063 -0.3060  0.4821
 9020TIP3   OH251254   2.708   2.201   0.732  0.1690  0.0992 -0.4220
 9020TIP3    H151255   2.740   2.158   0.653  0.4302 -0.4560 -0.0207
 9020TIP3    H251256   2.613   2.206   0.720  0.3060  0.9262 -1.2109
 9021TIP3   OH251257   3.180   1.701   2.056  0.1409  0.8903  0.1122
 9021TIP3    H151258   3.233   1.733   1.983  0.2257 -1.8480 -1.1284
 9021TIP3    H251259   3.124   1.634   2.018 -0.4925  0.0242  2.3944
 9022TIP3   OH251260   4.979   4.485   1.805  0.1597  0.5906  0.5535
 9022TIP3    H151261   4.943   4.573   1.817  1.5136  0.9979  1.9351
 9022TIP3    H251262   5.031   4.491   1.725  0.2215  1.0395  0.6251
 9023TIP3   OH251263   2.747   1.303   4.698 -0.3955 -0.1018 -0.0520
 9023TIP3    H151264   2.721   1.333   4.611 -0.3896 -1.6205 -0.6046
 9023TIP3    H251265   2.792   1.220   4.682 -0.8911 -0.6831  1.4495
 9024TIP3   OH251266   2.848   1.794   2.781 -0.6047  0.0002  0.0559
 9024TIP3    H151267   2.851   1.862   2.714 -0.4112 -0.2015 -0.1418
 9024TIP3    H251268   2.777   1.821   2.839  0.7258  1.4253  1.1057
 9025TIP3   OH251269   2.733   6.674   3.668  0.2468  0.2125  0.3469
 9025TIP3    H151270   2.783   6.614   3.612  1.6405  0.6781  1.0384
 9025TIP3    H251271   2.699   6.740   3.607 -1.0572 -1.0798 -0.3765
 9026TIP3   OH251272   5.796   4.353   2.728  0.5517 -0.2497 -0.6139
 9026TIP3    H151273   5.808   4.359   2.634 -0.3405 -0.4519 -0.7508
 9026TIP3    H251274   5.755   4.437   2.752 -1.3956 -1.0889 -0.7903
 9027TIP3   OH251275   5.490   3.964   0.786 -0.1801 -0.3074 -0.1377
 9027TIP3    H151276   5.530   3.916   0.858 -1.5777  0.1867  1.0278
 9027TIP3    H251277   5.451   4.041   0.828 -0.4385  0.3530 -1.5348
 9028TIP3   OH251278   2.875   3.625   0.634 -0.0091 -0.2614 -0.0048
 9028TIP3    H151279   2.865   3.591   0.723  2.6332  0.6218  0.7088
 9028TIP3    H251280   2.818   3.702   0.632  1.5752  1.0582  1.7671
 9029TIP3   OH251281   4.333   0.445   2.941  0.2124 -0.1324 -0.2703
 9029TIP3    H151282   4.308   0.415   2.853  1.7194  1.8653 -1.4660
 9029TIP3    H251283   4.276   0.519   2.958  0.5678  0.0812  0.0072
 9030TIP3   OH251284   0.480   0.097   0.851  0.0596  1.3235  0.6396
 9030TIP3    H151285   0.460   0.190   0.840 -1.8958  1.0979  1.7968
 9030TIP3    H251286   0.446   0.075   0.937  0.8062 -0.4003  0.5345
 9031TIP3   OH251287   1.970   3.932   3.970  0.0404 -0.5984 -0.1495
 9031TIP3    H151288   2.033   3.908   4.038 -0.3375 -2.9543 -0.5272
 9031TIP3    H251289   1.932   4.014   4.000 -1.0785 -2.1740  3.2549
 9032TIP3   OH251290   2.863   2.888   1.537  0.3574 -0.1227 -1.0297
 9032TIP3    H151291   2.864   2.916   1.629  0.2763 -1.0317 -0.7468
 9032TIP3    H251292   2.951   2.854   1.522  0.0590 -0.9086 -0.9957
 9033TIP3   OH251293   2.754   2.886   2.271  0.4471 -0.1529  0.2595
 9033TIP3    H151294   2.742   2.973   2.232  1.3537 -0.4008 -0.6085
 9033TIP3    H251295   2.729   2.825   2.201 -0.8829 -0.6060  1.1009
 9034TIP3   OH251296   3.632   4.405   3.640  0.3299  0.6526 -0.5304
 9034TIP3    H151297   3.693   4.341   3.603 -1.9046 -1.9537 -0.0260
 9034TIP3    H251298   3.629   4.384   3.734 -2.8349 -0.8253 -0.8292
 9035TIP3   OH251299   4.179   4.651   1.004  0.3460  0.2365 -0.0895
 9035TIP3    H151300   4.131   4.568   1.011  1.7005 -0.8613 -2.4007
 9035TIP3    H251301   4.271   4.624   0.999  0.9839  2.0592  1.0498
 9036TIP3   OH251302   5.270   0.372   2.633  0.2727  0.0927  0.2207
 9036TIP3    H151303   5.247   0.400   2.545 -0.4883  1.4779  0.8287
 9036TIP3    H251304   5.361   0.343   2.627 -0.0445 -0.6783 -1.1857
 9037TIP3   OH251305   5.676   4.890   2.743 -0.3819 -0.3073  0.2533
 9037TIP3    H151306   5.590   4.886   2.786 -1.0501 -2.3161 -1.1645
 9037TIP3    H251307   5.716   4.969   2.780 -2.8978  0.8404  0.8148
 9038TIP3   OH251308   3.684   2.188   2.180  0.2291 -0.0311  0.2264
 9038TIP3    H151309   3.627   2.119   2.145  1.5368 -0.0704 -2.0191
 9038TIP3    H251310   3.724   2.149   2.257 -0.2722 -1.1997 -0.0778
 9039TIP3   OH251311   2.927   4.580   3.387  0.2327  0.0890 -0.2752
 9039TIP3    H151312   3.018   4.611   3.392 -0.0020  0.7944 -0.2895
 9039TIP3    H251313   2.923   4.533   3.304 -0.0520  2.2440 -1.5681
 9040TIP3   OH251314   0.076   6.066   2.930  0.1950  0.0383  0.3003
 9040TIP3    H151315   0.095   5.974   2.949 -0.0686 -0.5889 -2.1898
 9040TIP3    H251316   0.154   6.113   2.958  0.8792 -1.1150  0.3928
 9041TIP3   OH251317   2.661   4.456   2.510 -0.4859  0.0935  0.1812
 9041TIP3    H151318   2.680   4.531   2.453 -2.0277  1.3827  1.2633
 9041TIP3    H251319   2.741   4.403   2.508  0.5415  1.6021 -0.8853
 9042TIP3   OH251320   6.020   4.206   1.817 -0.4232  0.0195  0.7011
 9042TIP3    H151321   6.035   4.296   1.791 -3.4485  0.2106 -0.7983
 9042TIP3    H251322   5.967   4.212   1.897  1.2786 -0.5156  1.9334
 9043TIP3   OH251323   6.045   4.202   2.702  0.5521  0.6872  0.1597
 9043TIP3    H151324   6.041   4.243   2.615  1.6782  0.8652  0.1704
 9043TIP3    H251325   5.969   4.237   2.748 -0.2331  0.3609 -0.8385
 9044TIP3   OH251326   6.452   6.421   2.992 -0.4496 -0.2528 -0.9711
 9044TIP3    H151327   6.468   6.380   2.907  0.7732  2.2134 -2.0194
 9044TIP3    H251328   6.460   6.515   2.976  0.1805  0.2947  1.9631
 9045TIP3   OH251329   4.156   0.809   4.481  0.3851 -0.0366 -0.1401
 9045TIP3    H151330   4.073   0.799   4.433  0.6423 -1.7732 -0.2953
 9045TIP3    H251331   4.222   0.817   4.412  0.3170  1.9589 -0.0149
 9046TIP3   OH251332   5.436   6.193   2.421  0.7072  0.0264  0.3396
 9046TIP3    H151333   5.418   6.121   2.361 -1.2257 -0.5335  1.5061
 9046TIP3    H251334   5.460   6.266   2.363  0.4596 -0.9220 -1.0151
 9047TIP3   OH251335   2.423   3.854   3.271 -0.4153  0.9244  0.1154
 9047TIP3    H151336   2.457   3.828   3.186  0.5755 -0.1022  0.7952
 9047TIP3    H251337   2.416   3.949   3.266 -2.4388  0.7431 -1.8279
 9048TIP3   OH251338   4.890   1.071   2.217  0.2681  0.0788 -0.1752
 9048TIP3    H151339   4.884   1.145   2.277  0.3525  0.0824 -0.1704
 9048TIP3    H251340   4.801   1.036   2.213  0.6373 -1.2075  1.5872
 9049TIP3   OH251341   0.064   0.919   2.856  0.0833 -0.0433 -0.3840
 9049TIP3    H151342   0.019   1.003   2.854  0.0978 -0.0202  0.0475
 9049TIP3    H251343   0.112   0.919   2.939 -1.2487 -1.1515  0.4332
 9050TIP3   OH251344   3.980   1.050   1.712  0.0270  0.3116 -0.4139
 9050TIP3    H151345   3.996   1.064   1.618  2.2668  1.2795  0.0465
 9050TIP3    H251346   3.944   0.962   1.717 -1.3791  0.7163 -2.2733
 9051TIP3   OH251347   2.305   4.092   1.992  0.6113  0.0418  0.3824
 9051TIP3    H151348   2.249   4.107   2.068 -0.3444 -2.0651  0.1932
 9051TIP3    H251349   2.266   4.145   1.922  0.1047  0.2079  0.7850
 9052TIP3   OH251350   1.600   0.619   4.170 -0.0665 -0.1853 -0.3492
 9052TIP3    H151351   1.640   0.542   4.211  0.1417 -0.8233 -1.6767
 9052TIP3    H251352   1.670   0.684   4.168 -0.5927  0.5346  1.9073
 9053TIP3   OH251353   2.199   2.550   3.394 -0.5688  0.5521  0.0695
 9053TIP3    H151354   2.129   2.551   3.329 -0.1348  0.2676 -0.3991
 9053TIP3    H251355   2.189   2.465   3.438 -0.9274  0.7870  0.4559
 9054TIP3   OH251356   2.056   5.307   4.194 -0.0099 -0.2869 -0.1466
 9054TIP3    H151357   1.996   5.378   4.216  2.4650  1.4627  1.4888
 9054TIP3    H251358   2.084   5.273   4.279  0.9875 -1.3431 -0.8701
 9055TIP3   OH251359   5.589   0.093   1.295 -0.0175 -0.4857  0.7443
 9055TIP3    H151360   5.499   0.096   1.262  0.6243  3.4072 -1.3235
 9055TIP3    H251361   5.587   0.144   1.376  0.5177  1.1279 -0.2131
 9056TIP3   OH251362   3.670   2.979   2.354 -0.0639  0.1586 -0.3302
 9056TIP3    H151363   3.603   3.016   2.297 -1.0748 -1.3124 -0.1809
 9056TIP3    H251364   3.620   2.930   2.420  1.0965  1.1757  1.3596
 9057TIP3   OH251365   0.411   3.477   2.269  0.2076  0.1010 -0.5610
 9057TIP3    H151366   0.506   3.480   2.257  0.1502 -1.5681 -1.7294
 9057TIP3    H251367   0.375   3.486   2.180 -0.6272 -1.7871 -0.4611
 9058TIP3   OH251368   1.344   5.638   1.723  0.0678 -0.1655 -0.5563
 9058TIP3    H151369   1.321   5.696   1.651  0.0111  2.4661  1.4217
 9058TIP3    H251370   1.260   5.609   1.759  0.0951 -1.3522 -1.3955
 9059TIP3   OH251371   4.472   1.225   3.101 -0.1246  0.2418  0.0230
 9059TIP3    H151372   4.450   1.134   3.081  0.6357  0.2550 -0.9584
 9059TIP3    H251373   4.559   1.221   3.140  0.4065  0.6228 -1.0726
 9060TIP3   OH251374   1.035   6.090   3.059  0.0262 -0.4270  0.1165
 9060TIP3    H151375   1.112   6.107   3.114  0.9638 -1.8442 -0.6884
 9060TIP3    H251376   0.976   6.041   3.115  0.4460 -0.7978  0.2424
 9061TIP3   OH251377   2.407   0.725   3.646  0.2689  0.2419  0.3882
 9061TIP3    H151378   2.359   0.801   3.614 -0.5909 -0.5741 -0.3594
 9061TIP3    H251379   2.496   0.736   3.611 -0.6018 -0.5434 -2.2914
 9062TIP3   OH251380   5.812   2.194   3.182 -0.0636  0.3507  0.7046
 9062TIP3    H151381   5.771   2.280   3.172 -2.5723 -0.7213  0.7512
 9062TIP3    H251382   5.894   2.210   3.227 -0.2679  2.7564  0.3138
 9063TIP3   OH251383   1.264   0.952   3.975 -0.4820 -0.1288 -0.5187
 9063TIP3    H151384   1.345   0.948   4.026 -0.6885  1.7325  0.0287
 9063TIP3    H251385   1.201   0.996   4.033 -1.8815 -1.4521 -0.9596
 9064TIP3   OH251386   1.518   0.592   3.805 -0.1032  0.5465 -0.7935
 9064TIP3    H151387   1.542   0.654   3.873 -1.3837  1.1759 -0.8840
 9064TIP3    H251388   1.508   0.645   3.726 -1.9302  0.3917 -0.7111
 9065TIP3   OH251389   3.085   2.379   2.806  0.0569 -0.1045 -0.6092
 9065TIP3    H151390   3.160   2.340   2.762 -0.4209 -0.3558 -1.2166
 9065TIP3    H251391   3.122   2.420   2.884  0.8405 -0.1196 -0.9595
 9066TIP3   OH251392   1.408   5.163   0.543  0.7098 -0.1569 -0.0629
 9066TIP3    H151393   1.340   5.098   0.526 -0.6378  1.1911 -0.0676
 9066TIP3    H251394   1.412   5.215   0.463  0.4765  0.8486  0.5542
 9067TIP3   OH251395   4.322   6.158   2.485  0.1726 -0.2476 -0.1833
 9067TIP3    H151396   4.307   6.076   2.438 -0.6248  0.1985 -0.7361
 9067TIP3    H251397   4.257   6.218   2.448 -0.2317  0.2176  1.2480
 9068TIP3   OH251398   6.517   5.478   3.420 -0.2982  0.1475  0.3863
 9068TIP3    H151399   6.517   5.450   3.328 -0.1085 -1.0897  0.7472
 9068TIP3    H251400   6.594   5.533   3.428 -0.4630  0.4819 -0.2632
 9069TIP3   OH251401   5.753   2.707   2.129 -0.3171 -0.2475  0.0873
 9069TIP3    H151402   5.759   2.641   2.060  0.5270 -0.2813  0.1876
 9069TIP3    H251403   5.839   2.707   2.170 -0.8266 -0.2809  1.1942
 9070TIP3   OH251404   5.470   0.655   2.535  0.0077  0.2410  0.4997
 9070TIP3    H151405   5.381   0.661   2.500  0.1926  0.8475  0.1136
 9070TIP3    H251406   5.493   0.563   2.526 -0.0018  0.3573 -0.8513
 9071TIP3   OH251407   4.870   5.458   2.494  0.9075 -0.4862 -0.9156
 9071TIP3    H151408   4.925   5.457   2.416  0.6960  0.6357 -1.0932
 9071TIP3    H251409   4.799   5.518   2.473  2.3423  2.1127  1.1084
 9072TIP3   OH251410   5.092   5.545   1.953 -0.1431 -0.3762  0.1793
 9072TIP3    H151411   5.129   5.458   1.969 -1.5109 -0.9128  0.5852
 9072TIP3    H251412   5.102   5.591   2.037  1.6827  0.3271 -0.3718
 9073TIP3   OH251413   2.181   5.323   1.038  0.2925  0.3707  0.8109
 9073TIP3    H151414   2.265   5.363   1.061  1.5991 -2.3399  1.0392
 9073TIP3    H251415   2.123   5.344   1.111  0.9942  1.5545  1.0494
 9074TIP3   OH251416   4.334   1.826   2.642 -0.1491  0.1069 -0.0200
 9074TIP3    H151417   4.247   1.864   2.650 -0.4415  0.3160 -3.0295
 9074TIP3    H251418   4.388   1.877   2.702 -1.5491  1.9320 -0.2215
 9075TIP3   OH251419   2.678   3.273   1.524  0.1133 -0.4109 -0.3778
 9075TIP3    H151420   2.665   3.316   1.608  0.1562 -0.1700 -0.4938
 9075TIP3    H251421   2.682   3.344   1.460 -0.1216 -0.6023 -0.6102
 9076TIP3   OH251422   5.977   0.076   1.999 -0.0912  0.0439 -0.2179
 9076TIP3    H151423   6.035   0.064   2.074 -2.0084 -0.5567  1.2602
 9076TIP3    H251424   5.937  -0.010   1.985 -1.0492  0.5642 -0.8096
 9077TIP3   OH251425   1.102   1.322   2.939 -0.3055  0.1461 -0.6042
 9077TIP3    H151426   1.139   1.310   3.026  0.5152  2.0495 -0.6449
 9077TIP3    H251427   1.175   1.305   2.879 -0.1620  1.2998 -0.7895
 9078TIP3   OH251428   5.159   0.643   2.080  0.2518 -0.7264  0.1086
 9078TIP3    H151429   5.106   0.626   2.003 -0.4271 -1.7194  0.7719
 9078TIP3    H251430   5.144   0.736   2.100 -1.3213 -1.0146  0.3366
 9079TIP3   OH251431   1.973   1.325   1.407 -0.2119  0.0971 -0.0922
 9079TIP3    H151432   1.917   1.250   1.386 -0.8757  0.2254  1.1506
 9079TIP3    H251433   2.062   1.294   1.392 -0.4829 -0.9412  0.3976
 9080TIP3   OH251434   0.013   1.680   2.252 -0.8279  0.0218  0.1830
 9080TIP3    H151435  -0.011   1.624   2.326 -0.3611 -1.4670 -0.7628
 9080TIP3    H251436  -0.001   1.626   2.175 -1.0799  1.4764 -0.8295
 9081TIP3   OH251437   0.537   2.115   3.165 -0.1794 -0.5283 -0.2278
 9081TIP3    H151438   0.618   2.105   3.215  0.3825  2.2416 -0.4381
 9081TIP3    H251439   0.469   2.076   3.221  1.2030 -2.7340  0.0263
 9082TIP3   OH251440   0.007   4.355   1.619  0.2800  0.4959  0.8391
 9082TIP3    H151441  -0.017   4.420   1.553 -0.3333 -0.0707  0.4931
 9082TIP3    H251442  -0.066   4.355   1.681  0.5771  0.5946  1.1926
 9083TIP3   OH251443   2.789   0.627   4.103  0.0635 -0.3300  0.3587
 9083TIP3    H151444   2.727   0.555   4.116 -1.0016  0.4755 -0.0629
 9083TIP3    H251445   2.761   0.667   4.021 -0.4299  1.5716  1.3896
 9084TIP3   OH251446   2.544   6.014   1.957  0.3263  0.3354  0.0199
 9084TIP3    H151447   2.612   6.061   1.909  0.8962 -0.4985 -0.0188
 9084TIP3    H251448   2.527   6.067   2.035  1.2036  0.4341  0.1495
 9085TIP3   OH251449   3.847   6.094   1.817 -0.2513 -0.5951  0.4745
 9085TIP3    H151450   3.870   6.001   1.830  0.8632 -0.3095  0.6798
 9085TIP3    H251451   3.932   6.138   1.809 -0.6434  0.7750  2.8756
 9086TIP3   OH251452   1.074   5.028   1.274  0.3274  0.1306 -0.0860
 9086TIP3    H151453   1.073   5.012   1.368  0.4592  2.4458  0.3681
 9086TIP3    H251454   0.982   5.022   1.247  0.2569 -0.2735  0.2378
 9087TIP3   OH251455   3.388   6.433   1.363  0.1048  0.0251 -0.0727
 9087TIP3    H151456   3.318   6.387   1.316  0.0046 -1.4198  1.3822
 9087TIP3    H251457   3.344   6.505   1.408 -0.6039 -1.1376  1.1939
 9088TIP3   OH251458   4.329   2.416   2.997 -0.1895 -0.5598 -0.2483
 9088TIP3    H151459   4.330   2.510   3.014  0.4521 -0.8208  1.4142
 9088TIP3    H251460   4.239   2.389   3.016  0.1738 -0.6079  1.6498
 9089TIP3   OH251461   4.685   6.068   0.730  0.4143 -0.4465  0.0981
 9089TIP3    H151462   4.781   6.062   0.734  0.4302 -0.4744 -0.2686
 9089TIP3    H251463   4.667   6.087   0.638  0.1451  0.8328  0.3949
 9090TIP3   OH251464   0.327   0.165   3.022 -0.1328 -0.3269 -0.0063
 9090TIP3    H151465   0.382   0.093   3.052  1.1451  0.4097 -0.4887
 9090TIP3    H251466   0.315   0.220   3.100 -1.3686 -1.1709  0.4417
 9091TIP3   OH251467   2.580   1.164   2.984  0.1639  0.4941 -0.0692
 9091TIP3    H151468   2.500   1.206   3.016  0.1209  0.1412  0.2977
 9091TIP3    H251469   2.553   1.121   2.902 -0.0447  0.3129  0.0912
 9092TIP3   OH251470   3.339   6.341   1.672  0.4619  0.4620 -0.7240
 9092TIP3    H151471   3.327   6.404   1.602  0.8396  2.2201  0.7321
 9092TIP3    H251472   3.430   6.354   1.701  0.2219 -0.0058  0.2914
 9093TIP3   OH251473   5.096   4.792   1.905  0.1194 -0.1988 -0.4377
 9093TIP3    H151474   5.010   4.783   1.946  0.1522 -0.8173 -0.4971
 9093TIP3    H251475   5.085   4.865   1.843  0.2575  1.2261  1.1230
 9094TIP3   OH251476   1.942   1.590   2.097  0.8515 -0.4512 -0.2462
 9094TIP3    H151477   1.858   1.590   2.051  0.6907 -1.6183  0.0280
 9094TIP3    H251478   1.954   1.681   2.124 -1.1796 -0.5601  1.2586
 9095TIP3   OH251479   5.079   1.115   0.720  0.5417 -0.0754  0.3237
 9095TIP3    H151480   5.127   1.125   0.802 -0.9383  0.8073  1.1411
 9095TIP3    H251481   5.056   1.022   0.716 -0.6833  0.1239  1.7322
 9096TIP3   OH251482   0.522   3.480   1.799 -0.4300 -0.3171 -0.3703
 9096TIP3    H151483   0.531   3.423   1.875  1.0631  0.6577  0.2288
 9096TIP3    H251484   0.597   3.458   1.743 -0.2358  0.5231 -0.4670
 9097TIP3   OH251485   3.731   3.759   1.445 -0.7489 -0.3967  0.1241
 9097TIP3    H151486   3.812   3.710   1.431 -0.0189  0.4503  1.2172
 9097TIP3    H251487   3.717   3.806   1.363 -1.8710 -2.9130 -1.2427
 9098TIP3   OH251488   0.766   2.280   1.914  0.5055  0.0651 -0.8293
 9098TIP3    H151489   0.758   2.196   1.959 -1.4940  1.2277  1.1742
 9098TIP3    H251490   0.815   2.335   1.974 -0.8026  1.1889 -0.7474
 9099TIP3   OH251491   1.607   5.624   3.562 -0.2170  0.2200 -0.6330
 9099TIP3    H151492   1.657   5.569   3.503  1.5809  0.4359  0.5950
 9099TIP3    H251493   1.641   5.713   3.546 -0.0269  0.3395  0.3496
 9100TIP3   OH251494   5.262   0.932   2.318 -0.6366  0.2053 -0.3333
 9100TIP3    H151495   5.292   1.022   2.306 -2.1611  0.6367 -1.2723
 9100TIP3    H251496   5.191   0.922   2.254  0.6217 -2.2274 -1.4863
 9101TIP3   OH251497   0.889   0.568   3.284 -0.0391  0.0987  0.1350
 9101TIP3    H151498   0.853   0.598   3.200  0.6805  1.1031  0.1686
 9101TIP3    H251499   0.911   0.649   3.331  0.1075 -0.4609  1.0629
 9102TIP3   OH251500   3.906   4.559   2.440  0.0789  0.2766 -0.3939
 9102TIP3    H151501   3.864   4.515   2.513 -0.3475  0.4295 -0.5462
 9102TIP3    H251502   3.882   4.651   2.450 -1.9158 -0.0026 -2.0181
 9103TIP3   OH251503   5.123   3.375   1.968  0.3731 -0.3379  0.5033
 9103TIP3    H151504   5.054   3.311   1.948  0.0340  0.4583 -0.9776
 9103TIP3    H251505   5.076   3.453   1.996  0.7860 -0.6629  2.2235
 9104TIP3   OH251506   5.860   0.471   1.655 -0.3701  0.5394 -0.3152
 9104TIP3    H151507   5.777   0.509   1.681  0.4614  0.9502  1.9344
 9104TIP3    H251508   5.878   0.404   1.722  0.7214 -0.1218 -1.2275
 9105TIP3   OH251509   4.221   3.355   1.899 -0.3260 -0.0510 -0.4791
 9105TIP3    H151510   4.239   3.279   1.843 -0.7708 -0.1448 -0.4957
 9105TIP3    H251511   4.199   3.425   1.838 -0.2519  0.0032 -0.4448
 9106TIP3   OH251512   1.546   5.232   2.770  0.0360  0.0767  0.0292
 9106TIP3    H151513   1.568   5.204   2.858 -0.1866 -0.5439 -0.1053
 9106TIP3    H251514   1.455   5.207   2.758 -0.8721  2.7572  0.6333
 9107TIP3   OH251515   4.914   5.906   1.087 -0.2254 -0.1967  0.6924
 9107TIP3    H151516   4.863   5.846   1.142  0.6055  0.2496  2.0162
 9107TIP3    H251517   4.940   5.854   1.012 -0.8840 -1.0193  1.0199
 9108TIP3   OH251518   1.066   3.466   2.272 -0.5179  0.0151  0.6455
 9108TIP3    H151519   1.069   3.493   2.180  1.9421  0.2318  0.7318
 9108TIP3    H251520   1.097   3.375   2.271  1.0379  0.5077  1.3777
 9109TIP3   OH251521   2.528   0.104   4.363  0.6143 -0.1760  0.0613
 9109TIP3    H151522   2.623   0.099   4.363  0.7080  0.7975  1.7738
 9109TIP3    H251523   2.508   0.183   4.312  0.8864  0.9967  1.6962
 9110TIP3   OH251524   3.981   6.660   1.028 -0.0262  0.0131 -0.6126
 9110TIP3    H151525   3.924   6.686   1.100 -1.3886 -0.4916 -1.4768
 9110TIP3    H251526   4.016   6.575   1.055  0.1938  0.2443 -0.1556
 9111TIP3   OH251527   6.506   1.973   1.646  0.3975  0.5464 -0.0822
 9111TIP3    H151528   6.474   1.883   1.642  1.0832  0.3349 -1.1456
 9111TIP3    H251529   6.434   2.022   1.686  0.0985 -0.4985  0.6932
 9112TIP3   OH251530   6.280   3.509   3.176  0.0764  0.1733 -0.5391
 9112TIP3    H151531   6.204   3.457   3.150 -0.1275  1.2931 -2.3865
 9112TIP3    H251532   6.353   3.471   3.126  0.7947 -0.8740  1.1938
 9113TIP3   OH251533   2.882   4.818   1.211 -0.3672  0.1676 -0.0824
 9113TIP3    H151534   2.834   4.735   1.217  2.0534 -1.2465  1.8038
 9113TIP3    H251535   2.938   4.808   1.134  0.4338 -0.2866  0.5448
 9114TIP3   OH251536   4.961   4.600   1.259 -0.4357  0.1974  0.2382
 9114TIP3    H151537   4.962   4.518   1.210 -0.0902 -0.2803  1.0212
 9114TIP3    H251538   4.940   4.667   1.194  0.4346 -0.3622 -0.6475
 9115TIP3   OH251539   2.716   0.310   2.821  0.0609 -0.8988  0.0493
 9115TIP3    H151540   2.638   0.310   2.765 -0.8667 -1.3635  1.3024
 9115TIP3    H251541   2.728   0.401   2.846  1.4699 -0.3870 -2.1582
 9116TIP3   OH251542   3.318   4.369   1.128  0.2185  0.5460 -0.0602
 9116TIP3    H151543   3.364   4.425   1.191 -1.1678  2.1700 -0.4091
 9116TIP3    H251544   3.275   4.431   1.069 -3.4384 -0.7574  0.9532
 9117TIP3   OH251545   1.893   3.595   3.667  0.3303 -0.8806  0.1566
 9117TIP3    H151546   1.968   3.614   3.724 -0.0043 -1.5888  0.8483
 9117TIP3    H251547   1.817   3.596   3.726 -0.4245  1.1421 -0.7328
 9118TIP3   OH251548   4.115   5.124   3.723  0.1100 -0.1868 -0.1874
 9118TIP3    H151549   4.170   5.179   3.778 -1.2208 -0.2498  1.2598
 9118TIP3    H251550   4.159   5.040   3.722  0.5168  0.0169  0.2017
 9119TIP3   OH251551   2.452   6.003   3.525  0.1293  0.2839  0.1026
 9119TIP3    H151552   2.385   6.066   3.498 -0.6265 -1.3009 -2.0735
 9119TIP3    H251553   2.492   5.974   3.443  0.5906 -1.8628  1.0020
 9120TIP3   OH251554   0.103   0.182   2.868 -0.7497  0.5118  0.0730
 9120TIP3    H151555   0.107   0.265   2.821 -0.5887  0.7999  0.5870
 9120TIP3    H251556   0.179   0.184   2.926 -1.2262  0.3872  0.7119
 9121TIP3   OH251557   4.581   4.786   1.938  0.3409 -0.2552  0.4502
 9121TIP3    H151558   4.526   4.729   1.992 -0.4184  1.0217  1.0799
 9121TIP3    H251559   4.533   4.796   1.856  1.3545 -1.9562 -0.4154
 9122TIP3   OH251560   5.395   2.416   3.385 -0.1326  0.4589 -0.6340
 9122TIP3    H151561   5.339   2.470   3.328  0.9338  0.7251 -1.4588
 9122TIP3    H251562   5.333   2.368   3.440 -1.1544  1.4213 -0.8871
 9123TIP3   OH251563   6.673   3.021   0.792  0.5997  0.4992  0.8573
 9123TIP3    H151564   6.768   3.017   0.790  0.6222 -0.1391  2.1234
 9123TIP3    H251565   6.647   2.955   0.857 -0.7666 -0.1835 -0.3205
 9124TIP3   OH251566   3.573   5.162   0.680  0.5606  0.2863  0.0528
 9124TIP3    H151567   3.657   5.120   0.701 -0.3690 -0.9821  1.4769
 9124TIP3    H251568   3.543   5.117   0.600 -0.0065 -1.2481  1.0719
 9125TIP3   OH251569   1.730   4.447   0.855  0.1271  0.3978  0.0211
 9125TIP3    H151570   1.746   4.363   0.812  0.6435 -0.1663  1.2576
 9125TIP3    H251571   1.638   4.465   0.839 -0.4902 -1.3661  1.3301
 9126TIP3   OH251572   1.993   1.253   3.138 -0.4042  0.0815  0.0235
 9126TIP3    H151573   1.962   1.273   3.050 -0.4045 -0.1187 -0.0223
 9126TIP3    H251574   1.969   1.329   3.190  1.4365  1.1400 -0.5785
 9127TIP3   OH251575   1.370   5.954   3.296 -0.2801  0.3033 -0.2331
 9127TIP3    H151576   1.412   5.912   3.220 -1.0934 -1.0143  0.0145
 9127TIP3    H251577   1.310   6.018   3.257  1.0303  1.3481 -0.6170
 9128TIP3   OH251578   4.082   0.972   1.064  0.7490 -0.4523 -0.0840
 9128TIP3    H151579   3.995   1.003   1.090  0.6661 -0.1577 -0.6955
 9128TIP3    H251580   4.116   0.929   1.142  0.1295 -0.4050  0.2197
 9129TIP3   OH251581   1.025   4.660   0.800 -0.1662  0.2553 -0.0437
 9129TIP3    H151582   1.104   4.652   0.853  0.4494 -0.2210 -0.9970
 9129TIP3    H251583   0.957   4.615   0.850 -0.0259  1.2878  1.1238
 9130TIP3   OH251584   5.014   2.969   3.216  0.2982  0.1049 -0.2110
 9130TIP3    H151585   4.960   3.012   3.149 -0.6246 -1.3836 -0.4772
 9130TIP3    H251586   4.955   2.955   3.290  0.3564 -1.3175 -0.4046
 9131TIP3   OH251587   3.692   2.873   2.098 -0.3953  0.6629 -0.6199
 9131TIP3    H151588   3.691   2.895   2.191  0.1914  0.5319 -0.5787
 9131TIP3    H251589   3.664   2.953   2.054 -0.1333  0.8956 -0.3653
 9132TIP3   OH251590   0.395   1.052   2.006 -0.1812  0.1088  0.1885
 9132TIP3    H151591   0.477   1.089   2.039  0.2405 -0.0628 -0.6376
 9132TIP3    H251592   0.346   1.128   1.975 -0.3951  0.2253  0.8017
 9133TIP3   OH251593   0.032   6.337   1.315  0.4819  0.0750  0.1412
 9133TIP3    H151594   0.038   6.269   1.381  0.0954 -0.1743 -0.0762
 9133TIP3    H251595  -0.056   6.374   1.325  0.8432  0.8457  0.5498
 9134TIP3   OH251596   5.311   6.666   2.624 -0.0386 -0.2036 -0.1272
 9134TIP3    H151597   5.227   6.628   2.650 -0.5453  0.8158 -0.2355
 9134TIP3    H251598   5.337   6.614   2.548  1.3094 -3.0210  2.0580
 9135TIP3   OH251599   4.911   3.693   2.901 -0.9794 -0.9048 -0.1735
 9135TIP3    H151600   4.843   3.633   2.872 -0.4129 -0.7583 -1.9650
 9135TIP3    H251601   4.871   3.780   2.896 -1.7327 -1.0448  2.2171
 9136TIP3   OH251602   6.646   3.235   1.538 -0.2051  0.1742 -0.3753
 9136TIP3    H151603   6.559   3.239   1.577  0.0368 -1.0057  0.3625
 9136TIP3    H251604   6.695   3.177   1.596  1.0951  0.8662 -0.7443
 9137TIP3   OH251605   0.590   6.034   1.856 -0.2334  0.1080 -0.1485
 9137TIP3    H151606   0.648   5.964   1.886 -0.4402 -0.5125 -1.1417
 9137TIP3    H251607   0.594   6.029   1.761 -1.9547  0.0128 -0.2467
 9138TIP3   OH251608   0.668   0.045   2.575  0.2310  0.2966 -0.3898
 9138TIP3    H151609   0.669  -0.050   2.566  1.1263  0.2709 -0.0633
 9138TIP3    H251610   0.590   0.063   2.628  0.1933 -0.2707 -0.2428
 9139TIP3   OH251611   6.373   6.174   2.776 -0.4992 -0.0241  0.3301
 9139TIP3    H151612   6.279   6.190   2.768 -0.3915  0.1334 -0.8482
 9139TIP3    H251613   6.412   6.230   2.709  0.3775 -0.6059  0.3394
 9140TIP3   OH251614   0.379   6.546   1.666  0.9847 -0.1991  0.0419
 9140TIP3    H151615   0.410   6.473   1.719  1.6119 -1.3512 -1.8171
 9140TIP3    H251616   0.358   6.507   1.581 -1.5083  1.2826 -0.1285
 9141TIP3   OH251617   6.052   5.975   2.219  0.0381  0.1298  0.3128
 9141TIP3    H151618   6.043   5.880   2.219  1.2603 -0.0181  1.5436
 9141TIP3    H251619   5.963   6.009   2.211 -0.5262 -1.1156  1.1300
 9142TIP3   OH251620   1.287   6.418   2.175 -0.2824  0.6884  0.4840
 9142TIP3    H151621   1.374   6.418   2.135 -0.5427 -2.4392 -0.3381
 9142TIP3    H251622   1.234   6.473   2.117  0.4791  0.2266 -0.6799
 9143TIP3   OH251623   1.878   3.191   2.511  0.0688 -0.5839  0.2033
 9143TIP3    H151624   1.894   3.110   2.558  1.0074 -1.2582 -1.2061
 9143TIP3    H251625   1.920   3.259   2.563 -0.1413 -1.0863  1.0417
 9144TIP3   OH251626   3.547   4.828   1.337 -0.1224 -0.0228 -0.2049
 9144TIP3    H151627   3.591   4.756   1.383  0.5159 -1.2659 -2.6401
 9144TIP3    H251628   3.529   4.794   1.250 -1.6212  2.1229 -0.8123
 9145TIP3   OH251629   3.123   3.997   0.370 -0.1627  0.3921  0.0062
 9145TIP3    H151630   3.147   3.909   0.399 -0.8263 -0.0707 -0.8104
 9145TIP3    H251631   3.201   4.030   0.326 -0.5895 -0.6449 -1.6026
 9146TIP3   OH251632   4.782   0.751   2.060  0.4501 -0.2746  0.2621
 9146TIP3    H151633   4.794   0.735   2.153  0.2773 -0.4531  0.2547
 9146TIP3    H251634   4.870   0.744   2.022  0.4734 -0.5318  0.3615
 9147TIP3   OH251635   2.190   1.558   0.706  0.0131  0.0825 -0.3620
 9147TIP3    H151636   2.155   1.646   0.692 -1.2857 -0.6928 -2.4991
 9147TIP3    H251637   2.208   1.525   0.617 -1.4668 -2.5478  0.2136
 9148TIP3   OH251638   2.122   6.473   0.821  0.0049 -0.0222  0.7561
 9148TIP3    H151639   2.107   6.553   0.770  0.9003  0.8620  1.8399
 9148TIP3    H251640   2.105   6.402   0.759 -3.6513  0.8923  0.5252
 9149TIP3   OH251641   2.493   1.238   2.338 -0.3110 -0.1098 -0.5716
 9149TIP3    H151642   2.400   1.237   2.312  0.1955 -0.4296 -2.5152
 9149TIP3    H251643   2.530   1.312   2.290  0.7432 -0.9047 -1.0144
 9150TIP3   OH251644   2.868   4.830   4.192 -0.9545 -0.9080  0.0860
 9150TIP3    H151645   2.827   4.806   4.275 -1.3263 -0.0973  0.1505
 9150TIP3    H251646   2.836   4.765   4.130 -2.0024 -0.5553  0.2296
 9151TIP3   OH251647   0.649   3.880   2.413 -0.3072  0.3892  0.1877
 9151TIP3    H151648   0.656   3.785   2.399 -0.4715  0.4272 -0.1510
 9151TIP3    H251649   0.629   3.916   2.326  3.5788  1.1436 -0.5863
 9152TIP3   OH251650   6.466   6.351   3.598 -0.2450  0.0521 -0.0747
 9152TIP3    H151651   6.558   6.378   3.600 -0.4050  0.5563  1.3308
 9152TIP3    H251652   6.463   6.279   3.535  1.1093  0.0303 -0.1315
 9153TIP3   OH251653   0.418   2.902   2.629 -0.0358  0.3016 -0.0197
 9153TIP3    H151654   0.378   2.989   2.623  0.1384  0.3079 -1.6440
 9153TIP3    H251655   0.385   2.855   2.552 -0.7383 -1.3674  1.2292
 9154TIP3   OH251656   4.675   0.931   1.430  0.0119  0.0973  0.3332
 9154TIP3    H151657   4.678   0.892   1.343 -0.2620  0.3422  0.2104
 9154TIP3    H251658   4.766   0.941   1.456  0.1050 -2.3624  1.1680
 9155TIP3   OH251659   0.810   3.341   1.123  0.2573 -0.7342 -0.1551
 9155TIP3    H151660   0.848   3.429   1.134 -0.9275 -0.2310 -0.0122
 9155TIP3    H251661   0.785   3.314   1.211  1.8040 -1.8055  0.0102
 9156TIP3   OH251662   1.272   0.232   1.924 -0.3727 -0.4532  0.3758
 9156TIP3    H151663   1.334   0.301   1.945  0.7865 -1.1830 -0.5525
 9156TIP3    H251664   1.320   0.151   1.936 -1.3383 -1.0651  0.2477
 9157TIP3   OH251665   0.182   3.378   3.327  0.5826  0.0614 -0.2290
 9157TIP3    H151666   0.211   3.465   3.357  2.6386  0.0221 -1.8369
 9157TIP3    H251667   0.207   3.319   3.398  0.4519  0.5987  0.2757
 9158TIP3   OH251668   6.445   0.394   3.449  0.2548  0.4837  0.0633
 9158TIP3    H151669   6.540   0.405   3.437  0.2129  1.3934  0.4572
 9158TIP3    H251670   6.420   0.329   3.384  1.1336  0.3356 -0.1376
 9159TIP3   OH251671   3.153   6.328   1.866  0.1258 -0.2342  0.1823
 9159TIP3    H151672   3.202   6.251   1.894  0.7022 -0.2158 -0.7278
 9159TIP3    H251673   3.208   6.368   1.798 -0.0852  1.0809  0.7644
 9160TIP3   OH251674   2.045   6.524   4.650 -0.2876 -0.2823  0.1361
 9160TIP3    H151675   2.035   6.594   4.586 -0.5513 -0.4187  0.0258
 9160TIP3    H251676   1.976   6.461   4.627 -0.2742 -0.4107  0.4474
 9161TIP3   OH251677   3.823   6.481   2.985  0.0408 -0.2752 -0.1334
 9161TIP3    H151678   3.781   6.471   3.071  2.0551  0.4612  0.9898
 9161TIP3    H251679   3.870   6.398   2.972  0.4754 -0.0321 -0.1070
 9162TIP3   OH251680   2.667   4.376   2.866  0.2398 -0.0562 -0.3572
 9162TIP3    H151681   2.749   4.332   2.843 -0.7961 -1.6446 -1.2030
 9162TIP3    H251682   2.640   4.334   2.948 -0.1872 -0.1951 -0.5670
 9163TIP3   OH251683   5.466   1.436   1.136  0.5472  0.0545  0.8801
 9163TIP3    H151684   5.383   1.482   1.150  0.7955  0.5307  0.8382
 9163TIP3    H251685   5.513   1.491   1.073  0.8854 -0.2201  0.8893
 9164TIP3   OH251686   0.750   2.024   1.510  0.1911  0.1171 -0.3001
 9164TIP3    H151687   0.773   2.113   1.483 -1.6554  0.1766 -1.9312
 9164TIP3    H251688   0.799   1.967   1.451 -1.7359  0.2025 -2.1153
 9165TIP3   OH251689   4.402   1.443   3.272 -0.1071 -0.6920 -0.2206
 9165TIP3    H151690   4.415   1.372   3.208 -0.0653 -0.3603 -0.5799
 9165TIP3    H251691   4.459   1.513   3.242 -1.0288 -0.0592 -0.5426
 9166TIP3   OH251692   1.438   2.123   2.627 -0.7091  0.1832 -0.3079
 9166TIP3    H151693   1.468   2.211   2.601  0.8440 -0.4286 -0.7252
 9166TIP3    H251694   1.377   2.138   2.699  0.0753  1.5830  0.1031
 9167TIP3   OH251695   2.070   6.490   5.002 -0.0203 -0.3456 -0.0193
 9167TIP3    H151696   2.004   6.421   5.008  0.9081 -1.1705  1.0220
 9167TIP3    H251697   2.071   6.530   5.088  0.3180  0.1608 -0.2561
 9168TIP3   OH251698   0.701   4.939   1.787  0.5529  0.0157  0.1126
 9168TIP3    H151699   0.633   5.004   1.806  0.5697  0.1029 -0.1180
 9168TIP3    H251700   0.663   4.855   1.814  0.3242  0.0543 -0.0904
 9169TIP3   OH251701   1.082   1.045   4.152 -0.7412  0.3872 -0.0172
 9169TIP3    H151702   0.993   1.015   4.171 -0.8148 -0.7599 -1.9341
 9169TIP3    H251703   1.094   1.121   4.208 -2.0331 -0.8722  2.1038
 9170TIP3   OH251704   0.306   5.299   0.776  0.5635  0.1880  0.1876
 9170TIP3    H151705   0.369   5.357   0.819 -1.1001  0.9874  1.7295
 9170TIP3    H251706   0.307   5.326   0.684  1.2302  1.3436  0.5134
 9171TIP3   OH251707   4.145   6.071   0.658 -0.1252  0.3258  0.1803
 9171TIP3    H151708   4.196   5.993   0.636 -0.8981 -0.7825  2.0010
 9171TIP3    H251709   4.169   6.090   0.749 -2.0081  0.4780  0.6964
 9172TIP3   OH251710   1.749   1.989   1.999  0.2538  0.1168  0.3543
 9172TIP3    H151711   1.797   2.070   1.986 -0.5834  0.6422  0.4635
 9172TIP3    H251712   1.813   1.929   2.039  1.2748  0.2528 -0.9852
 9173TIP3   OH251713   0.322   1.226   2.338  0.1984 -0.2175 -0.5837
 9173TIP3    H151714   0.412   1.204   2.363  0.4375  0.2295 -1.0246
 9173TIP3    H251715   0.270   1.151   2.367  0.5317  0.0374  0.7352
 9174TIP3   OH251716   4.325   4.734   2.386 -0.0701 -0.1890  1.1475
 9174TIP3    H151717   4.382   4.708   2.459  0.0135 -1.1314  0.7656
 9174TIP3    H251718   4.273   4.655   2.369  1.0995 -0.5663 -0.9328
 9175TIP3   OH251719   5.482   3.403   2.823 -0.4991 -0.0624 -0.5147
 9175TIP3    H151720   5.544   3.459   2.870  0.2276 -1.1156 -0.1936
 9175TIP3    H251721   5.404   3.401   2.879  0.2924 -1.1635  0.5946
 9176TIP3   OH251722   6.531   3.828   3.036  0.5030  0.2271  0.9080
 9176TIP3    H151723   6.616   3.787   3.027 -0.3484 -1.7157  1.2088
 9176TIP3    H251724   6.550   3.921   3.048  2.5535 -0.1543  0.9476
 9177TIP3   OH251725   4.452   5.573   3.230 -0.0303 -0.5795 -0.4495
 9177TIP3    H151726   4.495   5.656   3.211 -0.4785 -0.3653 -0.5340
 9177TIP3    H251727   4.457   5.565   3.326  0.1111 -0.5092 -0.4510
 9178TIP3   OH251728   1.758   0.008   2.367  0.2199 -0.5052  0.4134
 9178TIP3    H151729   1.835  -0.048   2.378  0.1328 -1.0297 -1.2406
 9178TIP3    H251730   1.749   0.016   2.272 -0.7081  1.0424  0.6041
 9179TIP3   OH251731   6.251   1.765   2.386  0.2849  0.2385 -0.1563
 9179TIP3    H151732   6.344   1.773   2.366  0.7875  0.4459  1.9908
 9179TIP3    H251733   6.240   1.675   2.416 -0.5697 -0.2711 -1.8622
 9180TIP3   OH251734   0.260   3.661   2.843 -0.1261 -0.0216 -0.3237
 9180TIP3    H151735   0.314   3.702   2.909 -0.5423 -1.2970  0.8554
 9180TIP3    H251736   0.271   3.716   2.765  1.0868  0.9854  0.5231
 9181TIP3   OH251737   1.125   6.659   1.382 -0.2038 -0.2760  0.0052
 9181TIP3    H151738   1.174   6.671   1.301  0.4113 -1.0084  0.2520
 9181TIP3    H251739   1.066   6.734   1.386  0.6538  0.4439 -0.4790
 9182TIP3   OH251740   0.601   1.853   1.137  0.1702 -0.5744  0.5137
 9182TIP3    H151741   0.693   1.861   1.111 -0.5645 -1.6578 -2.8844
 9182TIP3    H251742   0.600   1.778   1.196  1.2636 -2.0317 -1.1843
 9183TIP3   OH251743   2.665   5.985   1.575  0.0224 -0.0824 -0.2345
 9183TIP3    H151744   2.748   5.967   1.618 -0.5628 -1.1896  0.4520
 9183TIP3    H251745   2.606   6.010   1.646 -0.8473 -1.5559 -0.4032
 9184TIP3   OH251746   1.559   0.299   2.964 -1.5688 -0.1427  0.1463
 9184TIP3    H151747   1.508   0.368   2.923  0.8824  0.9529 -1.2977
 9184TIP3    H251748   1.539   0.221   2.913 -0.0734  0.7925 -2.0140
 9185TIP3   OH251749   5.470   0.671   2.196 -0.2052  0.0885  0.5114
 9185TIP3    H151750   5.414   0.675   2.273  1.0351  1.4432  1.3930
 9185TIP3    H251751   5.464   0.757   2.156  0.6641  0.0273  0.2111
 9186TIP3   OH251752   2.212   0.707   2.107 -0.1011 -0.3403  0.5506
 9186TIP3    H151753   2.143   0.714   2.041 -1.2164  1.6375  1.8197
 9186TIP3    H251754   2.235   0.798   2.128  3.4132 -0.8971 -0.2502
 9187TIP3   OH251755   2.836   4.710   3.770 -0.0709 -0.4550 -0.3119
 9187TIP3    H151756   2.819   4.768   3.697 -0.8087  0.2375  0.3903
 9187TIP3    H251757   2.931   4.715   3.783 -0.0051 -0.1710 -0.8748
 9188TIP3   OH251758   4.570   0.174   3.252  0.0250 -0.1005 -0.0754
 9188TIP3    H151759   4.590   0.241   3.317  1.5937 -0.3910 -0.2214
 9188TIP3    H251760   4.486   0.201   3.214 -0.6839  0.3290  1.7039
 9189TIP3   OH251761   2.392   3.105   2.948  0.5567 -0.0745  0.1063
 9189TIP3    H151762   2.331   3.161   2.997  1.1354  1.0916 -0.4851
 9189TIP3    H251763   2.395   3.024   2.999  0.3830  0.7492  1.4790
 9190TIP3   OH251764   3.789   1.003   0.823  0.3669 -0.7655  0.3840
 9190TIP3    H151765   3.824   0.979   0.908 -0.6567 -1.0761  0.7382
 9190TIP3    H251766   3.863   1.042   0.776  0.4583  1.4442  2.1774
 9191TIP3   OH251767   0.737   3.376   1.654  0.1270 -0.0627 -0.5059
 9191TIP3    H151768   0.734   3.401   1.561 -2.6129 -0.8326 -0.7345
 9191TIP3    H251769   0.754   3.282   1.653 -0.5483 -0.1966 -0.3061
 9192TIP3   OH251770   0.194   6.174   1.169 -0.2858  0.2699  0.3306
 9192TIP3    H151771   0.137   6.240   1.208 -0.5385  0.9050 -1.0647
 9192TIP3    H251772   0.133   6.105   1.140  0.0026 -0.8040  2.1118
 9193TIP3   OH251773   6.202   5.110   0.841 -0.2722 -0.2735  0.1277
 9193TIP3    H151774   6.216   5.139   0.931 -1.5414 -0.5307  0.4325
 9193TIP3    H251775   6.289   5.094   0.807  0.3227  1.4077  0.7806
 9194TIP3   OH251776   2.013   5.564   2.031  0.6283  0.0564 -0.4015
 9194TIP3    H151777   1.932   5.576   1.981 -0.1236  0.1451  0.7795
 9194TIP3    H251778   2.027   5.648   2.074  0.6342 -0.3318  0.3848
 9195TIP3   OH251779   2.407   1.127   2.014  0.1021  0.6830 -0.1383
 9195TIP3    H151780   2.499   1.118   2.039  0.0391 -1.3769 -0.4950
 9195TIP3    H251781   2.360   1.077   2.081 -0.7095  1.2367 -0.2897
 9196TIP3   OH251782   1.544   6.376   0.555 -0.4281  0.0206 -0.4408
 9196TIP3    H151783   1.553   6.467   0.526  0.2833  0.4993  1.1174
 9196TIP3    H251784   1.456   6.370   0.590 -0.8188 -0.1828 -1.4332
 9197TIP3   OH251785   5.986   5.389   3.832 -0.1278  0.2939  0.4995
 9197TIP3    H151786   6.075   5.370   3.862 -1.2121 -1.7845  2.8404
 9197TIP3    H251787   5.963   5.471   3.877 -0.3083 -0.6593  2.2379
 9198TIP3   OH251788   5.508   5.733   2.006  0.7047  0.9186 -0.0334
 9198TIP3    H151789   5.464   5.667   1.952 -0.0860  0.8142  0.7053
 9198TIP3    H251790   5.467   5.815   1.980  2.2595  1.2665 -1.5363
 9199TIP3   OH251791   6.057   3.356   3.131 -0.2563  0.1161  0.6888
 9199TIP3    H151792   6.009   3.348   3.213 -1.2956  0.7798  0.1730
 9199TIP3    H251793   5.992   3.390   3.069  0.9619  1.3699  0.0445
 9200TIP3   OH251794   2.492   1.463   3.184  0.2324  0.4621  0.1428
 9200TIP3    H151795   2.492   1.381   3.234  0.3451  0.5151  0.2328
 9200TIP3    H251796   2.537   1.442   3.103 -0.2278  0.2975 -0.0699
 9201TIP3   OH251797   5.729   5.040   3.168 -0.1774  0.3965 -0.9385
 9201TIP3    H151798   5.647   5.056   3.122 -0.1582 -2.1406 -2.0456
 9201TIP3    H251799   5.738   4.945   3.167  1.3495  0.4267  1.7423
 9202TIP3   OH251800   1.327   6.110   2.242 -0.0792  0.0815  0.0944
 9202TIP3    H151801   1.316   6.172   2.315 -0.1748 -0.3946  0.4945
 9202TIP3    H251802   1.239   6.101   2.205  0.3930  2.3541 -1.8077
 9203TIP3   OH251803   0.113   2.282   0.474  0.4022  0.4141  0.2587
 9203TIP3    H151804   0.189   2.259   0.419  0.7552  0.1134  0.8591
 9203TIP3    H251805   0.128   2.235   0.556  0.5474  1.8603  1.1060
 9204TIP3   OH251806   0.028   3.527   2.294  0.4305  0.0615 -0.3775
 9204TIP3    H151807   0.025   3.434   2.270  0.9963  0.1703 -0.8975
 9204TIP3    H251808  -0.048   3.566   2.252  0.6260 -0.0215 -0.8062
 9205TIP3   OH251809   0.620   0.674   2.067  0.3196 -0.3834 -0.6152
 9205TIP3    H151810   0.535   0.694   2.106 -0.1424 -1.4824 -1.0083
 9205TIP3    H251811   0.684   0.711   2.128 -0.4284  0.0132 -0.0549
 9206TIP3   OH251812   5.884   1.802   1.420 -0.1794 -0.1049  0.0260
 9206TIP3    H151813   5.917   1.796   1.510  0.2513 -0.0206 -0.1233
 9206TIP3    H251814   5.901   1.893   1.395 -1.2381  0.1507  0.2132
 9207TIP3   OH251815   0.396   4.509   3.818  0.1730  0.1137 -0.4184
 9207TIP3    H151816   0.342   4.546   3.748 -1.3066 -0.1104  0.5441
 9207TIP3    H251817   0.358   4.422   3.833  0.0805  0.3711  1.0162
 9208TIP3   OH251818   3.709   6.055   3.833  0.0931 -0.2281  0.0457
 9208TIP3    H151819   3.652   5.981   3.812  0.7931 -0.5643 -0.7298
 9208TIP3    H251820   3.671   6.092   3.913 -1.0451 -0.6035 -0.2999
 9209TIP3   OH251821   3.238   4.617   2.213 -0.0842 -0.0823  0.0457
 9209TIP3    H151822   3.319   4.568   2.228  1.9702  2.5917 -1.4609
 9209TIP3    H251823   3.196   4.621   2.299  1.7861 -0.8880  1.0545
 9210TIP3   OH251824   1.247   5.708   4.054  0.3685  0.2283  0.0037
 9210TIP3    H151825   1.162   5.707   4.098  1.0123  1.9086  1.4074
 9210TIP3    H251826   1.300   5.645   4.103  1.4870  3.0221  2.7243
 9211TIP3   OH251827   3.583   1.661   2.841  0.2137 -0.1587 -0.1416
 9211TIP3    H151828   3.589   1.755   2.829  0.8981  0.1053  1.9218
 9211TIP3    H251829   3.491   1.640   2.822  0.0766  0.8880 -0.6904
 9212TIP3   OH251830   0.733   5.790   1.988  0.3088  0.4544  0.8223
 9212TIP3    H151831   0.744   5.774   2.082  2.2573 -0.4567  0.4976
 9212TIP3    H251832   0.685   5.714   1.956 -0.3524  0.7629  1.0601
 9213TIP3   OH251833   0.939   0.121   2.501 -0.0537 -0.0308 -0.1318
 9213TIP3    H151834   0.933   0.202   2.552 -0.5690  1.3156 -2.2142
 9213TIP3    H251835   0.856   0.076   2.518  0.2343 -0.1824  1.0281
 9214TIP3   OH251836   4.618   3.141   2.551  0.0390  0.1016 -0.1783
 9214TIP3    H151837   4.528   3.172   2.558 -0.1667 -0.0892 -1.6749
 9214TIP3    H251838   4.610   3.053   2.514  0.9084  1.1046 -3.0157
 9215TIP3   OH251839   3.344   4.987   2.368 -0.1543  0.3601 -0.2528
 9215TIP3    H151840   3.340   5.078   2.399  1.2067  0.3521  0.0283
 9215TIP3    H251841   3.438   4.968   2.363 -0.4152 -0.8849 -0.7556
 9216TIP3   OH251842   2.911   3.974   3.896 -0.1207 -0.0819 -0.3435
 9216TIP3    H151843   2.820   3.945   3.890 -1.0041  2.2819  0.4667
 9216TIP3    H251844   2.955   3.905   3.945 -1.2743 -1.6311 -1.3969
 9217TIP3   OH251845   6.387   1.748   0.878  0.0231 -0.4592  0.5073
 9217TIP3    H151846   6.452   1.788   0.935  0.9133  1.2768 -1.6230
 9217TIP3    H251847   6.308   1.743   0.932  0.9893  0.4765  2.0777
 9218TIP3   OH251848   4.924   0.346   2.533  0.2875 -0.2060 -0.1063
 9218TIP3    H151849   4.983   0.311   2.601 -1.2953 -0.8186  1.0191
 9218TIP3    H251850   4.841   0.300   2.548 -0.7922  1.3771 -0.9710
 9219TIP3   OH251851   2.723   3.695   2.216 -0.3262  1.0374  0.2124
 9219TIP3    H151852   2.759   3.615   2.254 -1.7447  0.8499  1.1980
 9219TIP3    H251853   2.755   3.694   2.125  0.6065 -0.0465  0.5209
 9220TIP3   OH251854   6.130   6.620   2.178 -0.2976  0.6661 -0.8408
 9220TIP3    H151855   6.110   6.635   2.270  0.2263  0.2932 -0.6656
 9220TIP3    H251856   6.219   6.584   2.178 -0.5242  0.0838 -1.4424
 9221TIP3   OH251857   2.741   2.654   1.422  0.7220 -0.6752  0.2750
 9221TIP3    H151858   2.762   2.743   1.449 -2.7270 -0.2122  2.0291
 9221TIP3    H251859   2.759   2.600   1.499 -1.0862 -0.7593  0.6811
 9222TIP3   OH251860   6.496   3.341   3.114 -0.1184  0.0424  0.1410
 9222TIP3    H151861   6.474   3.250   3.136 -0.5975 -0.2211 -1.3437
 9222TIP3    H251862   6.591   3.345   3.127 -0.0566 -0.7353  0.0375
 9223TIP3   OH251863   5.930   0.574   2.631  0.1734  0.0219  0.0367
 9223TIP3    H151864   5.909   0.668   2.631 -0.4883 -0.1190 -0.2359
 9223TIP3    H251865   5.899   0.542   2.546  1.0102 -0.3183 -0.1491
 9224TIP3   OH251866   3.422   1.705   2.493 -0.1306  0.2150 -0.1447
 9224TIP3    H151867   3.351   1.705   2.428  0.1480 -0.9528 -0.4866
 9224TIP3    H251868   3.464   1.790   2.483 -0.0281  0.0241 -1.5924
 9225TIP3   OH251869   3.006   2.998   0.905 -0.5995 -0.6479 -0.6809
 9225TIP3    H151870   2.934   2.943   0.936 -1.5078  0.2402 -1.1262
 9225TIP3    H251871   3.081   2.972   0.958 -1.4234 -1.1022  0.3130
 9226TIP3   OH251872   0.013   6.099   2.250 -0.0214 -0.4808 -0.0805
 9226TIP3    H151873   0.063   6.022   2.276  2.0784  0.7628 -0.1797
 9226TIP3    H251874   0.079   6.169   2.244 -1.7285  1.1501 -0.6944
 9227TIP3   OH251875   3.901   0.835   3.067 -0.1495  0.6361 -0.5484
 9227TIP3    H151876   3.927   0.908   3.011  0.4771  0.2299 -0.8057
 9227TIP3    H251877   3.929   0.860   3.155  0.4103  0.5573 -0.6948
 9228TIP3   OH251878   0.325   0.225   2.225  0.4329 -0.4344 -0.2269
 9228TIP3    H151879   0.315   0.320   2.227  1.5895 -0.3081  0.2757
 9228TIP3    H251880   0.418   0.210   2.241 -0.0551 -1.7176  1.8527
 9229TIP3   OH251881   3.842   5.285   3.183  0.0546 -0.5471 -0.5503
 9229TIP3    H151882   3.815   5.216   3.123  0.1064 -0.0834 -1.1124
 9229TIP3    H251883   3.934   5.268   3.199 -0.3634 -1.6967  0.7870
 9230TIP3   OH251884   3.928   4.691   1.195  0.6422  0.1205 -0.6360
 9230TIP3    H151885   3.930   4.678   1.100  1.0968  0.2973 -0.6521
 9230TIP3    H251886   3.874   4.769   1.207 -1.9645 -1.5829 -0.5462
 9231TIP3   OH251887   6.301   2.887   1.921 -0.0650  0.2920  0.1618
 9231TIP3    H151888   6.371   2.909   1.983  0.2614  1.1126 -0.4790
 9231TIP3    H251889   6.321   2.797   1.895  0.8521  0.5596 -0.1227
 9232TIP3   OH251890   4.956   2.000   1.673  0.0905 -0.2185 -0.3525
 9232TIP3    H151891   5.048   2.002   1.699  0.1583 -0.4250 -0.5608
 9232TIP3    H251892   4.916   1.933   1.729 -0.2269  0.7608  0.6261
 9233TIP3   OH251893   4.329   2.055   2.125  0.1603  0.0339 -0.0557
 9233TIP3    H151894   4.237   2.029   2.128  0.0041  0.6447  1.1360
 9233TIP3    H251895   4.332   2.124   2.058 -0.9859  2.4875  2.2082
 9234TIP3   OH251896   2.564   6.075   2.437 -0.0458 -0.1053  0.0233
 9234TIP3    H151897   2.599   5.986   2.434  0.8060  0.0502  2.7439
 9234TIP3    H251898   2.640   6.130   2.455 -0.7712  1.0180 -0.2327
 9235TIP3   OH251899   3.556   2.637   1.733 -0.4229 -0.1406  0.4588
 9235TIP3    H151900   3.623   2.651   1.800 -0.5424  2.2764  0.1561
 9235TIP3    H251901   3.602   2.653   1.650 -0.9527 -0.2881  0.1351
 9236TIP3   OH251902   1.211   2.908   4.365  0.1582 -0.5546  0.3004
 9236TIP3    H151903   1.264   2.829   4.376 -0.6892 -1.1900 -0.0587
 9236TIP3    H251904   1.234   2.940   4.278 -0.4146 -1.1126 -0.0578
 9237TIP3   OH251905   5.855   2.092   2.551 -0.0688 -0.1575 -0.3548
 9237TIP3    H151906   5.772   2.131   2.523 -0.4891 -0.4574  0.4230
 9237TIP3    H251907   5.905   2.082   2.471 -1.4923 -1.6454 -1.1118
 9238TIP3   OH251908   3.622   1.996   1.898  0.0030 -0.1531  0.4294
 9238TIP3    H151909   3.579   1.978   1.981  0.7841 -0.5807  0.7520
 9238TIP3    H251910   3.562   2.055   1.852 -0.7129 -0.3868  1.0429
 9239TIP3   OH251911   5.941   5.830   2.461  0.5088 -0.1754 -0.1903
 9239TIP3    H151912   5.872   5.766   2.449  0.5264 -0.2084 -0.1189
 9239TIP3    H251913   5.896   5.914   2.472  0.3257 -0.5283  2.3690
 9240TIP3   OH251914   1.722   5.301   1.226 -0.1495 -0.5646 -0.2611
 9240TIP3    H151915   1.717   5.382   1.277 -0.8670 -0.2446 -0.8292
 9240TIP3    H251916   1.754   5.328   1.140 -3.7169 -0.2522 -1.6592
 9241TIP3   OH251917   5.638   5.241   0.928 -0.1424 -0.0696 -0.1409
 9241TIP3    H151918   5.650   5.289   1.010 -1.2190 -1.8853  1.1557
 9241TIP3    H251919   5.543   5.224   0.924  0.0519 -1.0411 -1.1394
 9242TIP3   OH251920   5.963   1.969   2.853  0.2876 -0.1963  0.2278
 9242TIP3    H151921   5.982   1.986   2.761 -0.2284 -0.1586  0.1297
 9242TIP3    H251922   6.002   1.884   2.871 -0.7060 -0.7799 -0.3532
 9243TIP3   OH251923   1.954   1.858   2.106  0.0456  0.3026 -0.0596
 9243TIP3    H151924   2.010   1.841   2.030  0.7027 -3.2402  1.0482
 9243TIP3    H251925   2.012   1.905   2.167  1.2302 -1.3959  0.2055
 9244TIP3   OH251926   2.232   0.737   3.150  0.5631  0.5395  0.2127
 9244TIP3    H151927   2.310   0.749   3.095 -0.5943 -1.7362 -2.1681
 9244TIP3    H251928   2.190   0.823   3.150  1.7472  1.1580 -0.6212
 9245TIP3   OH251929   1.814   0.043   0.979 -0.6462 -0.2493  0.3304
 9245TIP3    H151930   1.826   0.137   0.968  1.3353 -0.1806  2.3480
 9245TIP3    H251931   1.757   0.017   0.907  0.0388  2.2203 -1.2077
 9246TIP3   OH251932   6.377   6.364   2.490  0.4129  0.5440 -0.2540
 9246TIP3    H151933   6.426   6.374   2.571  0.8290  0.5466 -0.5041
 9246TIP3    H251934   6.311   6.298   2.510  1.4669 -0.5633 -0.3461
 9247TIP3   OH251935   4.875   1.508   2.714  0.1636  0.2596 -0.2860
 9247TIP3    H151936   4.919   1.526   2.631 -0.0984 -0.6920 -0.6495
 9247TIP3    H251937   4.809   1.442   2.692 -0.3387  0.4632  0.5600
 9248TIP3   OH251938   3.797   1.693   0.426 -0.3007 -0.2048  0.2651
 9248TIP3    H151939   3.879   1.645   0.412  0.1282 -0.9520  4.0708
 9248TIP3    H251940   3.733   1.647   0.372  1.0146 -2.2956  0.3370
 9249TIP3   OH251941   6.270   1.558   2.163  0.4743 -0.2038  0.5204
 9249TIP3    H151942   6.280   1.650   2.139 -1.1411 -0.4306 -1.3160
 9249TIP3    H251943   6.311   1.510   2.090 -1.0084 -0.9135  0.1156
 9250TIP3   OH251944   0.140   0.258   1.089  0.1698  0.4430  0.0893
 9250TIP3    H151945   0.074   0.207   1.136  1.3657 -1.7044 -0.4368
 9250TIP3    H251946   0.097   0.341   1.070 -3.1100 -1.5227 -1.9522
 9251TIP3   OH251947   6.071   3.635   0.892 -0.5658 -0.0683  0.2777
 9251TIP3    H151948   6.142   3.607   0.950  1.6329  1.1346 -1.6486
 9251TIP3    H251949   6.085   3.585   0.811 -2.3690 -0.2956  0.0630
 9252TIP3   OH251950   0.225   4.590   1.355  0.2410  0.3685  0.3325
 9252TIP3    H151951   0.274   4.511   1.376 -0.1699 -0.0305 -0.1565
 9252TIP3    H251952   0.242   4.604   1.262 -0.7204  0.1044  0.1037
 9253TIP3   OH251953   0.243   0.715   0.460  0.5043  0.4303  1.1255
 9253TIP3    H151954   0.188   0.669   0.397  1.3840  0.3056  0.4290
 9253TIP3    H251955   0.195   0.708   0.543 -0.7252  0.7087  0.4622
 9254TIP3   OH251956   5.256   3.835   1.968 -0.2110  0.1252  0.0453
 9254TIP3    H151957   5.335   3.874   2.006 -1.0662  1.4348  0.5242
 9254TIP3    H251958   5.185   3.895   1.991 -1.2526 -0.6559 -0.9792
 9255TIP3   OH251959   1.833   2.445   1.352 -0.1934 -0.5713 -0.0562
 9255TIP3    H151960   1.741   2.469   1.364  0.1894  0.6053  0.6907
 9255TIP3    H251961   1.830   2.364   1.302 -1.6581 -0.9731  0.6235
 9256TIP3   OH251962   2.399   1.018   1.355  0.2557  0.4808  0.0557
 9256TIP3    H151963   2.379   1.088   1.416 -0.6277 -0.2986  0.7025
 9256TIP3    H251964   2.438   1.062   1.279 -1.5747  1.8428 -0.1705
 9257TIP3   OH251965   2.629   0.510   3.392  0.6182  0.0472 -0.1817
 9257TIP3    H151966   2.722   0.533   3.393  0.8200 -0.7558  0.1168
 9257TIP3    H251967   2.584   0.593   3.375  1.3388  0.6265  0.6554
 9258TIP3   OH251968   3.472   2.604   2.764 -1.0060 -0.1568  0.4512
 9258TIP3    H151969   3.413   2.629   2.835 -1.6047 -0.2190 -0.0112
 9258TIP3    H251970   3.553   2.579   2.807 -1.1828  0.3211  1.0743
 9259TIP3   OH251971   6.587   2.740   1.768  0.2356  0.1226 -0.3921
 9259TIP3    H151972   6.681   2.752   1.756 -0.0179  1.5010 -1.3180
 9259TIP3    H251973   6.548   2.812   1.718 -1.2463  1.2563  2.2146
 9260TIP3   OH251974   5.576   5.483   3.238 -0.0184  0.7727 -0.2102
 9260TIP3    H151975   5.581   5.501   3.332 -0.0459  1.3543 -0.3177
 9260TIP3    H251976   5.667   5.479   3.210 -0.0193  1.1197 -0.2579
 9261TIP3   OH251977   4.266   2.288   2.295  0.1821  0.2218 -0.3922
 9261TIP3    H151978   4.335   2.229   2.323  0.2450  0.2934 -0.3949
 9261TIP3    H251979   4.212   2.235   2.235 -1.3706 -0.6930  1.6921
 9262TIP3   OH251980   0.787   6.639   0.532 -0.0091  0.3018 -0.1053
 9262TIP3    H151981   0.697   6.643   0.564 -0.0461 -2.1978  0.2671
 9262TIP3    H251982   0.782   6.587   0.452  1.2277 -0.8176  0.5117
 9263TIP3   OH251983   0.943   2.408   2.079 -0.4735 -0.4946 -0.3872
 9263TIP3    H151984   1.039   2.400   2.076 -0.5351 -1.5334 -0.1421
 9263TIP3    H251985   0.924   2.426   2.171 -0.5960 -1.9128 -0.1121
 9264TIP3   OH251986   3.594   1.458   1.865 -0.2183  0.2402 -0.3893
 9264TIP3    H151987   3.643   1.494   1.791  0.6200 -0.4100 -0.1669
 9264TIP3    H251988   3.576   1.533   1.921  2.4418  0.2268  0.6020
 9265TIP3   OH251989   3.039   4.213   1.095 -0.1496 -0.4583 -0.1437
 9265TIP3    H151990   2.950   4.190   1.069 -0.3396 -1.4605  1.3345
 9265TIP3    H251991   3.092   4.139   1.066 -0.0514 -0.6178  0.4355
 9266TIP3   OH251992   1.472   0.399   1.938  0.1994  0.1403 -0.2617
 9266TIP3    H151993   1.504   0.388   1.849  4.9973 -1.2421  1.3015
 9266TIP3    H251994   1.474   0.493   1.954 -0.4866  0.3777 -1.5123
 9267TIP3   OH251995   4.958   5.715   2.187  0.8773 -0.1223  0.2464
 9267TIP3    H151996   4.963   5.727   2.282 -0.0483 -1.9557  0.5772
 9267TIP3    H251997   4.988   5.798   2.150  0.4595  0.9152  2.1398
 9268TIP3   OH251998   2.725   2.885   2.874 -0.1565 -0.3033 -0.1967
 9268TIP3    H151999   2.684   2.956   2.825 -0.4929 -0.4691 -0.1597
 9268TIP3    H252000   2.674   2.879   2.954  2.3992  2.2248  1.8352
 9269TIP3   OH252001   6.258   4.799   2.982  0.1279  0.1377  0.1810
 9269TIP3    H152002   6.164   4.806   2.996  0.1291  0.3993  0.0685
 9269TIP3    H252003   6.297   4.851   3.052  0.2254 -0.7678  0.8143
 9270TIP3   OH252004   2.962   6.625   3.171  0.1857 -0.1034 -0.2639
 9270TIP3    H152005   2.922   6.707   3.142  0.4284  1.1670  2.6820
 9270TIP3    H252006   2.948   6.564   3.098 -1.4418  2.0755 -1.8866
 9271TIP3   OH252007   5.202   6.172   1.939  0.1005  0.7744  0.3410
 9271TIP3    H152008   5.144   6.113   1.891  1.0731  0.0654 -0.0004
 9271TIP3    H252009   5.156   6.256   1.939  0.0023  0.7911 -1.7797
 9272TIP3   OH252010   3.226   6.605   2.382  0.2658  0.0317  0.8331
 9272TIP3    H152011   3.251   6.528   2.434  1.3950 -0.2704 -0.1060
 9272TIP3    H252012   3.225   6.573   2.292 -1.3104  0.6373  0.6107
 9273TIP3   OH252013   3.835   5.299   1.945 -0.3714 -0.2469  0.2499
 9273TIP3    H152014   3.836   5.338   2.033  1.2802  0.2699  0.0356
 9273TIP3    H252015   3.859   5.370   1.887 -0.4197 -0.8435 -0.5145
 9274TIP3   OH252016   5.654   4.084   2.738 -0.1867  0.0129  0.0874
 9274TIP3    H152017   5.730   4.028   2.722  0.3643  0.3646  1.3763
 9274TIP3    H252018   5.690   4.173   2.736 -0.5822  0.1845  0.6314
 9275TIP3   OH252019   6.392   2.122   1.154 -0.0838  0.0078 -0.2521
 9275TIP3    H152020   6.406   2.206   1.197  3.1451 -0.4307 -0.2040
 9275TIP3    H252021   6.437   2.059   1.209 -1.1336 -1.5242 -1.0899
 9276TIP3   OH252022   5.509   1.040   1.939  0.5203 -0.1616  0.3464
 9276TIP3    H152023   5.448   0.969   1.917  0.5722  0.4089 -1.8577
 9276TIP3    H252024   5.462   1.120   1.915  1.0991  0.4642  1.2416
 9277TIP3   OH252025   4.988   0.108   1.476  0.8106 -0.3152 -0.2421
 9277TIP3    H152026   4.968   0.065   1.393 -1.9278  2.6353 -1.3243
 9277TIP3    H252027   5.083   0.101   1.485  1.0056 -2.1567 -2.7550
 9278TIP3   OH252028   1.420   4.421   2.367  0.3582 -0.2386  0.3819
 9278TIP3    H152029   1.416   4.345   2.308  1.4284 -0.0602  0.0461
 9278TIP3    H252030   1.456   4.386   2.448  1.3796 -0.0108  0.0460
 9279TIP3   OH252031   1.783   0.712   2.007  0.0699  0.5496 -0.1121
 9279TIP3    H152032   1.778   0.747   1.918 -1.2722  1.4037  0.2613
 9279TIP3    H252033   1.812   0.622   1.996 -1.0639  0.3179 -1.5138
 9280TIP3   OH252034   5.480   0.513   2.981  0.1372  0.2344 -0.3622
 9280TIP3    H152035   5.545   0.468   2.927  0.2288  1.9445 -1.7754
 9280TIP3    H252036   5.527   0.589   3.016 -0.4119  0.0911  0.7095
 9281TIP3   OH252037   4.213   2.421   2.604 -0.2013  0.0895  0.0802
 9281TIP3    H152038   4.195   2.444   2.513 -0.6690  0.7781  0.3452
 9281TIP3    H252039   4.128   2.393   2.639 -0.4430  1.6915  0.8470
 9282TIP3   OH252040   3.069   6.417   2.202  0.2875 -0.0427 -0.1074
 9282TIP3    H152041   3.023   6.458   2.275  1.1104 -0.0929  0.4592
 9282TIP3    H252042   3.000   6.381   2.146 -0.3804  0.6336  0.2635
 9283TIP3   OH252043   5.922   0.195   3.434  0.7341  0.6007 -0.0851
 9283TIP3    H152044   5.959   0.128   3.491 -1.4782 -0.1323  0.5935
 9283TIP3    H252045   5.876   0.255   3.493  2.1598  2.4181 -0.7320
 9284TIP3   OH252046   1.543   1.276   0.774 -0.4820  0.8415 -0.0392
 9284TIP3    H152047   1.513   1.249   0.861 -0.9739  0.5952 -0.2798
 9284TIP3    H252048   1.535   1.196   0.721 -0.8489  1.1641 -0.4762
 9285TIP3   OH252049   3.137   1.880   4.411 -0.0130 -0.1275 -0.3516
 9285TIP3    H152050   3.189   1.903   4.488 -0.6166 -1.2932  0.4475
 9285TIP3    H252051   3.149   1.953   4.350  0.0926  1.0632  1.0401
 9286TIP3   OH252052   6.078   1.388   1.931 -0.1312 -0.0599  0.3409
 9286TIP3    H152053   6.022   1.403   2.007 -1.2301 -0.6011 -0.3388
 9286TIP3    H252054   6.055   1.458   1.870  0.1799 -0.0917  0.1831
 9287TIP3   OH252055   1.879   1.170   1.078 -0.6014  0.2910  0.0690
 9287TIP3    H152056   1.930   1.138   1.003 -1.5158 -0.5800 -0.2128
 9287TIP3    H252057   1.856   1.259   1.054  0.2075  0.4686 -0.0967
 9288TIP3   OH252058   3.478   3.390   0.976  0.4569  0.0081  0.3288
 9288TIP3    H152059   3.402   3.443   0.951  1.6651  1.8553  0.4488
 9288TIP3    H252060   3.508   3.427   1.058  0.8568 -1.4270  0.8661
 9289TIP3   OH252061   4.709   2.357   1.460  0.1954  0.6370 -0.2075
 9289TIP3    H152062   4.671   2.271   1.479 -1.1163  1.5727  1.7042
 9289TIP3    H252063   4.678   2.378   1.372  0.3734 -0.7267 -0.6228
 9290TIP3   OH252064   1.456   2.093   0.375 -0.1859  0.2775  0.1294
 9290TIP3    H152065   1.463   2.188   0.386  0.5496  0.3653 -0.9157
 9290TIP3    H252066   1.458   2.080   0.280 -1.0196 -0.7409  0.2330
 9291TIP3   OH252067   3.910   4.849   0.950  0.3339 -0.3370  0.1543
 9291TIP3    H152068   3.935   4.938   0.971  0.8734 -0.5199  0.2994
 9291TIP3    H252069   3.985   4.812   0.904  0.6539 -1.1359  1.2785
 9292TIP3   OH252070   2.202   5.482   2.730  0.5136 -0.4334  0.2608
 9292TIP3    H152071   2.193   5.570   2.693 -0.0779  0.5420  2.5690
 9292TIP3    H252072   2.132   5.431   2.689  0.6344  0.2348 -0.8233
 9293TIP3   OH252073   6.282   5.240   3.295  0.2787 -0.2717 -0.4154
 9293TIP3    H152074   6.335   5.317   3.272 -1.0355  1.1640  1.1317
 9293TIP3    H252075   6.200   5.253   3.248 -1.1333  0.9562  2.1966
 9294TIP3   OH252076   0.240   2.834   1.464  0.3630 -0.3653 -0.0493
 9294TIP3    H152077   0.157   2.787   1.463  0.3218 -0.3958 -2.3031
 9294TIP3    H252078   0.298   2.781   1.409  1.5363  0.2232  0.5896
 9295TIP3   OH252079   4.703   4.384   1.588 -0.1276 -0.3224  0.6354
 9295TIP3    H152080   4.792   4.399   1.619  0.0592  0.8267 -0.3806
 9295TIP3    H252081   4.703   4.294   1.557  0.5216 -0.5116  1.1777
 9296TIP3   OH252082   0.667   1.755   2.368 -0.6635 -0.0049  0.0902
 9296TIP3    H152083   0.743   1.754   2.426 -0.2376  1.2383 -0.4182
 9296TIP3    H252084   0.593   1.733   2.425  0.1766 -2.4400  0.3615
 9297TIP3   OH252085   2.460   2.037   1.614  0.5028 -0.0930  0.3292
 9297TIP3    H152086   2.462   2.056   1.708  1.3871 -1.0073  0.5202
 9297TIP3    H252087   2.552   2.031   1.589  0.2737  0.0351 -0.5760
 9298TIP3   OH252088   2.443   4.726   2.968 -0.3166 -0.0636 -0.2922
 9298TIP3    H152089   2.365   4.757   2.923 -0.6763  0.7705  0.8721
 9298TIP3    H252090   2.504   4.705   2.897 -0.1400  3.0360 -1.2375
 9299TIP3   OH252091   6.153   0.066   2.453  0.8246  0.4669 -0.0510
 9299TIP3    H152092   6.172   0.159   2.438  3.4606  0.1938  0.9064
 9299TIP3    H252093   6.220   0.039   2.517  0.6392 -2.2757 -0.9006
 9300TIP3   OH252094   2.847   4.197   0.686 -0.1656 -0.5836 -0.0276
 9300TIP3    H152095   2.817   4.133   0.621  0.9577  0.0984 -1.2513
 9300TIP3    H252096   2.931   4.162   0.717 -0.1569 -0.3381  0.2292
 9301TIP3   OH252097   4.392   1.785   3.398  0.3761  0.3250 -0.1348
 9301TIP3    H152098   4.320   1.781   3.336  1.2489  0.3445 -1.1793
 9301TIP3    H252099   4.410   1.878   3.407 -0.7939  0.4402  1.4309
 9302TIP3   OH252100   5.556   6.478   2.114  0.1868 -0.3632  0.0616
 9302TIP3    H152101   5.624   6.544   2.098 -0.4350 -0.1635 -2.0303
 9302TIP3    H252102   5.477   6.515   2.075 -0.2812 -2.1189 -0.7350
 9303TIP3   OH252103   3.970   6.240   2.906  0.1129 -0.2452 -0.7215
 9303TIP3    H152104   4.002   6.175   2.843 -1.0407 -1.3921 -0.1646
 9303TIP3    H252105   3.928   6.188   2.975  0.2577  1.0409  0.3792
 9304TIP3   OH252106   0.054   1.631   0.643 -0.4015  0.2069  0.2316
 9304TIP3    H152107  -0.020   1.571   0.651  0.5050 -1.0159 -0.2462
 9304TIP3    H252108   0.129   1.574   0.629  0.7562  1.3873  1.4399
 9305TIP3   OH252109   0.027   0.863   3.311  0.4042  0.1007 -0.6376
 9305TIP3    H152110   0.072   0.779   3.311 -1.0643 -0.7174 -0.4223
 9305TIP3    H252111   0.096   0.928   3.298  1.6938 -1.0615  0.2566
 9306TIP3   OH252112   2.707   3.313   2.906  0.0701  0.2712 -0.5368
 9306TIP3    H152113   2.791   3.346   2.875 -1.1689  2.2977 -1.9063
 9306TIP3    H252114   2.684   3.243   2.845  0.6044 -0.0997 -0.3205
 9307TIP3   OH252115   2.051   1.146   1.975  0.6048  0.8079 -0.4730
 9307TIP3    H152116   2.111   1.148   1.900  1.1463  0.0930 -0.0695
 9307TIP3    H252117   1.978   1.090   1.946  0.3084  1.3628 -0.8226
 9308TIP3   OH252118   3.204   5.617   2.581 -0.0194 -0.2364  0.5937
 9308TIP3    H152119   3.276   5.588   2.637  2.6063 -1.2638 -2.9158
 9308TIP3    H252120   3.241   5.692   2.533 -2.0975  0.5885  0.2033
 9309TIP3   OH252121   1.584   6.045   0.902 -0.2876 -0.3113 -0.2722
 9309TIP3    H152122   1.677   6.032   0.880  0.2591  1.4844  0.7895
 9309TIP3    H252123   1.559   5.964   0.947  1.1251 -0.3419  0.5229
 9310TIP3   OH252124   4.152   5.524   3.317  0.0959 -0.0199  0.0429
 9310TIP3    H152125   4.121   5.589   3.380  0.6878  0.6401 -0.3351
 9310TIP3    H252126   4.235   5.558   3.286 -0.2705 -0.2398 -1.2347
 9311TIP3   OH252127   1.802   0.888   3.247 -0.4981 -0.1452 -0.4390
 9311TIP3    H152128   1.719   0.857   3.285  0.3051  0.4740  2.0338
 9311TIP3    H252129   1.784   0.898   3.154 -3.1066 -0.3667 -0.0284
 9312TIP3   OH252130   3.524   0.595   3.490  0.0327  0.2042 -0.0644
 9312TIP3    H152131   3.569   0.626   3.568  0.3901  0.6663 -0.4400
 9312TIP3    H252132   3.591   0.544   3.443 -0.1950 -0.1178 -0.0390
 9313TIP3   OH252133   6.226   1.576   2.586  0.5136  0.2024 -0.0710
 9313TIP3    H152134   6.224   1.565   2.681 -0.2754  1.3050  0.0644
 9313TIP3    H252135   6.290   1.513   2.555 -0.4041 -1.3252  1.0417
 9314TIP3   OH252136   6.199   5.513   1.584  0.4779  0.5247 -0.1728
 9314TIP3    H152137   6.129   5.500   1.519  1.1658 -1.3905 -0.5959
 9314TIP3    H252138   6.153   5.548   1.660 -1.4344 -2.7095  0.3499
 9315TIP3   OH252139   4.964   2.832   1.728  0.4039  0.4688 -0.1621
 9315TIP3    H152140   4.888   2.816   1.785  1.3156 -1.2971  0.6436
 9315TIP3    H252141   5.038   2.842   1.789  1.4261 -1.6020 -0.9497
 9316TIP3   OH252142   1.279   3.870   3.040 -0.2803  0.0760  0.6018
 9316TIP3    H152143   1.192   3.868   3.080 -1.1388  0.4257 -1.1364
 9316TIP3    H252144   1.279   3.949   2.986  0.3121 -1.0148 -1.0898
 9317TIP3   OH252145   2.818   6.675   4.605 -0.0310  0.0884 -0.0297
 9317TIP3    H152146   2.829   6.710   4.517 -1.0499  0.5500  0.0150
 9317TIP3    H252147   2.745   6.614   4.598 -0.9321  1.0484  0.7370
 9318TIP3   OH252148   2.525   4.123   1.321  0.6671 -0.5298 -0.2533
 9318TIP3    H152149   2.465   4.159   1.386  0.0694  0.0485 -1.1030
 9318TIP3    H252150   2.609   4.118   1.366  1.0196  2.7592 -0.2916
 9319TIP3   OH252151   3.070   2.188   1.373 -0.0237 -0.2830 -0.3513
 9319TIP3    H152152   2.991   2.205   1.321  1.0183  0.1978 -1.8682
 9319TIP3    H252153   3.038   2.170   1.461 -1.7551  1.1159 -0.6338
 9320TIP3   OH252154   1.855   3.173   2.207  0.0640  0.2845  0.1730
 9320TIP3    H152155   1.948   3.151   2.205  0.0911  0.4169 -0.6673
 9320TIP3    H252156   1.838   3.201   2.296  1.5239  3.1826 -0.3423
 9321TIP3   OH252157   2.210   3.812   0.707 -0.0918  0.0192  0.3679
 9321TIP3    H152158   2.124   3.819   0.666  0.3975 -2.6908 -1.3716
 9321TIP3    H252159   2.198   3.750   0.778 -0.4244  3.0348  3.2069
 9322TIP3   OH252160   5.912   5.084   1.324 -0.3186  0.1346  0.1560
 9322TIP3    H152161   5.822   5.094   1.356  0.5157  0.7028  2.4866
 9322TIP3    H252162   5.940   5.173   1.302 -0.3486 -0.0606 -0.7097
 9323TIP3   OH252163   2.825   3.206   0.611  0.2254  0.0672  0.2394
 9323TIP3    H152164   2.877   3.222   0.689  1.1308  2.6963 -0.7769
 9323TIP3    H252165   2.751   3.154   0.641  1.7012 -0.9697  2.3579
 9324TIP3   OH252166   3.755   5.009   0.788 -0.3035  0.2653 -0.6660
 9324TIP3    H152167   3.803   4.935   0.826  0.4321  1.5721  1.0684
 9324TIP3    H252168   3.820   5.053   0.733 -0.2682  0.5622 -0.3842
 9325TIP3   OH252169   5.649   3.186   0.826 -0.3590 -0.5019 -0.5074
 9325TIP3    H152170   5.625   3.258   0.768 -0.5381  0.9955  1.3374
 9325TIP3    H252171   5.565   3.151   0.855 -0.3024  0.3771  0.7548
 9326TIP3   OH252172   6.523   0.881   1.575 -0.4700 -0.0714 -0.3805
 9326TIP3    H152173   6.500   0.800   1.620 -2.3716  0.7829  0.2793
 9326TIP3    H252174   6.440   0.927   1.564  0.3532  1.1231 -2.1038
 9327TIP3   OH252175   5.545   5.565   2.684  0.4232  0.1213 -0.1059
 9327TIP3    H152176   5.510   5.637   2.632 -0.1941 -1.1225 -1.4855
 9327TIP3    H252177   5.638   5.562   2.662  0.5361  0.7107  0.2561
 9328TIP3   OH252178   1.668   5.180   1.482  0.0821 -0.3966  0.1518
 9328TIP3    H152179   1.620   5.105   1.516 -0.8904  0.9360  1.9012
 9328TIP3    H252180   1.662   5.172   1.387  1.7335 -3.5739  0.1726
 9329TIP3   OH252181   1.632   3.720   1.215 -0.3178 -0.0642 -0.1207
 9329TIP3    H152182   1.618   3.660   1.142  0.3939  0.4492 -0.6848
 9329TIP3    H252183   1.663   3.801   1.175 -0.7505  0.5145  0.6761
 9330TIP3   OH252184   6.475   0.945   2.077  0.0749  0.3519 -0.0684
 9330TIP3    H152185   6.454   1.035   2.103 -1.6183  0.5150 -1.7264
 9330TIP3    H252186   6.518   0.954   1.992 -0.4683 -0.4071 -0.4354
 9331TIP3   OH252187   0.848   6.085   1.015  0.4098 -0.5215  0.4057
 9331TIP3    H152188   0.778   6.137   0.977  0.9219 -0.3835 -0.3816
 9331TIP3    H252189   0.920   6.148   1.028  1.4267 -1.1880 -1.5811
 9332TIP3   OH252190   4.203   0.296   1.821 -0.1144 -0.1709 -0.6365
 9332TIP3    H152191   4.129   0.274   1.766 -1.9994 -1.8672  2.2900
 9332TIP3    H252192   4.245   0.212   1.840 -0.3816  0.1038  1.4697
 9333TIP3   OH252193   1.669   1.419   1.491 -0.0388 -0.5591 -0.2909
 9333TIP3    H152194   1.660   1.398   1.584  1.8774 -1.4733 -0.2698
 9333TIP3    H252195   1.719   1.346   1.455  0.4793  0.4767 -1.7558
 9334TIP3   OH252196   0.610   5.739   1.593 -0.3199  0.0517 -0.7718
 9334TIP3    H152197   0.520   5.736   1.625 -0.4367 -0.1771 -1.1131
 9334TIP3    H252198   0.627   5.832   1.578  0.6709  0.4963  2.4921
 9335TIP3   OH252199   6.430   0.108   1.693 -0.1223 -0.2369  0.6025
 9335TIP3    H152200   6.339   0.097   1.718 -0.5639  0.5139 -0.6078
 9335TIP3    H252201   6.480   0.079   1.770 -1.2946 -2.9124  0.4336
 9336TIP3   OH252202   5.213   4.218   2.481  0.1140 -0.2808 -0.5848
 9336TIP3    H152203   5.153   4.156   2.523 -0.3662  1.0294  0.7216
 9336TIP3    H252204   5.287   4.224   2.541  0.5400 -0.2010 -1.1128
 9337TIP3   OH252205   6.091   4.200   1.312 -0.0008 -0.9391 -0.5276
 9337TIP3    H152206   6.177   4.184   1.272 -0.1005  1.2555 -1.7863
 9337TIP3    H252207   6.102   4.174   1.403  1.6651 -1.7204 -0.9091
 9338TIP3   OH252208   5.870   0.266   0.858  0.1985 -0.2587 -0.0844
 9338TIP3    H152209   5.810   0.228   0.793  0.0649 -0.2673  0.0428
 9338TIP3    H252210   5.815   0.328   0.906 -0.1073 -1.3684  1.0426
 9339TIP3   OH252211   4.477   3.025   2.883  1.1991  0.2343  0.1259
 9339TIP3    H152212   4.409   3.087   2.910  0.7612  0.4121 -1.3265
 9339TIP3    H252213   4.544   3.079   2.841  1.2025 -0.1842 -0.4121
 9340TIP3   OH252214   0.020   2.395   1.627 -0.1305 -0.0333  0.6142
 9340TIP3    H152215   0.090   2.338   1.661 -0.5558 -0.8933  0.0810
 9340TIP3    H252216  -0.040   2.405   1.701  0.2312  0.1816  0.8813
 9341TIP3   OH252217   6.495   6.019   3.484  0.5278  0.2254 -0.4768
 9341TIP3    H152218   6.566   5.955   3.475  0.0777 -0.8734  2.6215
 9341TIP3    H252219   6.496   6.043   3.577 -3.7545 -0.6093 -0.0107
 9342TIP3   OH252220   5.502   6.467   1.759  0.4872  0.7617  0.0152
 9342TIP3    H152221   5.503   6.552   1.716  2.1495  1.2000  0.8551
 9342TIP3    H252222   5.542   6.482   1.845  1.5638 -0.9952 -0.1187
 9343TIP3   OH252223   0.723   6.094   2.860  0.3274 -0.0962 -0.2589
 9343TIP3    H152224   0.775   6.132   2.789  0.6354  0.0570  0.0470
 9343TIP3    H252225   0.780   6.028   2.900  0.8679  1.0995  1.0338
 9344TIP3   OH252226   6.368   2.341   1.983  0.5953 -0.0310 -0.0222
 9344TIP3    H152227   6.432   2.314   1.918  0.2729 -0.1167 -0.3083
 9344TIP3    H252228   6.320   2.261   2.005  1.6666 -0.3112  1.4271
 9345TIP3   OH252229   2.011   5.599   0.903  0.4439 -0.0665  0.1957
 9345TIP3    H152230   1.994   5.668   0.968  1.3137 -0.1983  0.5824
 9345TIP3    H252231   1.938   5.606   0.841 -1.1625 -0.8046  1.9025
 9346TIP3   OH252232   1.197   6.225   1.461  0.4464  0.8296 -0.0389
 9346TIP3    H152233   1.257   6.269   1.521  0.4716 -0.9744  1.3427
 9346TIP3    H252234   1.215   6.131   1.473 -1.0187  0.3392 -1.3268
 9347TIP3   OH252235   2.885   0.221   2.210  0.3111  0.0189 -0.0098
 9347TIP3    H152236   2.867   0.312   2.230  0.7398 -0.0789  0.8487
 9347TIP3    H252237   2.973   0.222   2.170  0.9163 -0.1594  1.2770
 9348TIP3   OH252238   0.098   1.564   1.848 -0.3107  0.4779  0.8946
 9348TIP3    H152239   0.127   1.518   1.770 -0.3251  1.2364  0.4287
 9348TIP3    H252240   0.049   1.499   1.899  0.3372 -0.2234  0.6408
 9349TIP3   OH252241   3.066   5.877   1.078  0.0711  0.0962 -0.1300
 9349TIP3    H152242   3.000   5.925   1.128  0.9785  0.4720  0.7348
 9349TIP3    H252243   3.150   5.908   1.112  0.6936 -1.2281 -0.3868
 9350TIP3   OH252244   5.745   1.558   2.760 -0.1717 -0.0222  0.2420
 9350TIP3    H152245   5.687   1.493   2.720  0.4044 -0.9957  0.9486
 9350TIP3    H252246   5.823   1.558   2.705  1.3431 -2.6040  2.1766
 9351TIP3   OH252247   2.485   3.844   1.648  0.5922  0.4374  0.0286
 9351TIP3    H152248   2.509   3.849   1.740  0.9733  0.6183 -0.0784
 9351TIP3    H252249   2.445   3.758   1.638  0.5238  0.4294  0.3677
 9352TIP3   OH252250   0.085   1.326   2.572 -0.7057 -0.0412  0.1022
 9352TIP3    H152251   0.124   1.402   2.615 -1.6728  1.0468 -0.8654
 9352TIP3    H252252   0.070   1.263   2.643  0.7074  0.3746  0.8212
 9353TIP3   OH252253   3.508   5.456   2.403  0.1154  0.4095  0.0143
 9353TIP3    H152254   3.448   5.530   2.416  1.7593  1.8585 -0.3187
 9353TIP3    H252255   3.569   5.486   2.336  1.3105 -0.9543  0.4407
 9354TIP3   OH252256   5.284   2.029   0.579 -0.2091 -0.0415  0.1698
 9354TIP3    H152257   5.191   2.037   0.557  0.3531 -1.0367 -3.1794
 9354TIP3    H252258   5.305   2.110   0.625 -2.1981  1.4810 -1.4028
 9355TIP3   OH252259   0.828   4.815   3.893  0.2824 -1.2086  0.3668
 9355TIP3    H152260   0.744   4.858   3.878  0.9645 -0.0833 -0.3814
 9355TIP3    H252261   0.885   4.883   3.929  1.1708 -1.6771 -0.0940
 9356TIP3   OH252262   4.710   0.612   0.860 -0.1101  0.1287  0.0567
 9356TIP3    H152263   4.772   0.566   0.803  0.7844  0.9485  0.3489
 9356TIP3    H252264   4.657   0.542   0.899  0.4289 -0.5632 -0.4193
 9357TIP3   OH252265   6.443   5.456   1.485  0.2047 -0.4142  0.0723
 9357TIP3    H152266   6.410   5.405   1.412  1.1535  0.3527 -0.9181
 9357TIP3    H252267   6.365   5.492   1.526 -0.3673 -1.2682 -0.2357
 9358TIP3   OH252268   2.466   1.773   2.929 -0.1410  0.1093  0.3672
 9358TIP3    H152269   2.417   1.848   2.896  0.3446  0.5333  0.5943
 9358TIP3    H252270   2.557   1.803   2.932  0.1080 -0.5993  0.1410
 9359TIP3   OH252271   6.565   5.943   2.783 -0.5694 -0.3458 -0.4109
 9359TIP3    H152272   6.535   6.023   2.740  0.3371 -0.7323 -1.8203
 9359TIP3    H252273   6.642   5.969   2.832 -1.7550  0.1526  1.3032
 9360TIP3   OH252274   4.026   6.625   3.413 -0.1379  0.5150  0.5596
 9360TIP3    H152275   4.067   6.634   3.327 -0.2169  1.5002  0.6087
 9360TIP3    H252276   4.017   6.531   3.426  0.0627  0.3510 -0.4210
 9361TIP3   OH252277   2.243   6.597   4.839 -0.2532  0.6238 -0.1101
 9361TIP3    H152278   2.174   6.616   4.775 -0.4805  3.5782  0.8413
 9361TIP3    H252279   2.198   6.550   4.909 -1.3085  2.1976  0.3342
 9362TIP3   OH252280   4.490   3.411   1.913  0.6331  0.8755  0.0777
 9362TIP3    H152281   4.518   3.367   1.993 -2.0723  0.6542  1.0056
 9362TIP3    H252282   4.404   3.448   1.934 -0.2553  0.7193 -2.7269
 9363TIP3   OH252283   5.108   0.158   3.050 -0.4523 -0.8934 -0.3630
 9363TIP3    H152284   5.126   0.244   3.088  0.4783 -0.1931 -2.2681
 9363TIP3    H252285   5.014   0.146   3.062 -0.3684 -0.2377  1.1577
 9364TIP3   OH252286   0.108   6.599   1.676 -0.2547  0.1796 -0.3872
 9364TIP3    H152287   0.198   6.578   1.652 -0.2388 -1.5972  0.9443
 9364TIP3    H252288   0.115   6.667   1.742  0.0312  0.8884 -1.1444
 9365TIP3   OH252289   4.961   1.767   2.218  0.1546  0.2539 -0.1609
 9365TIP3    H152290   5.029   1.815   2.264  1.3030 -1.1135 -0.3450
 9365TIP3    H252291   4.958   1.807   2.131  0.9364  0.1535 -0.2412
 9366TIP3   OH252292   4.197   5.560   1.462  0.0878  0.1325 -0.1373
 9366TIP3    H152293   4.111   5.568   1.504 -0.4136  0.2445 -1.1584
 9366TIP3    H252294   4.254   5.527   1.531 -0.3372  1.8439  1.1026
 9367TIP3   OH252295   0.469   4.556   2.083 -0.5393  0.2798  0.2652
 9367TIP3    H152296   0.519   4.633   2.055  1.7190 -1.4767 -0.9364
 9367TIP3    H252297   0.415   4.534   2.007  0.5723 -0.6008 -0.3107
 9368TIP3   OH252298   0.304   5.758   1.401  0.0543  0.2785  0.1022
 9368TIP3    H152299   0.320   5.728   1.491  0.2556  0.6442  0.1913
 9368TIP3    H252300   0.319   5.853   1.405 -0.8537  0.4425 -0.1014
 9369TIP3   OH252301   2.444   1.923   3.501 -0.1969  0.1144  0.1176
 9369TIP3    H152302   2.447   1.987   3.572  0.4864 -0.6408  0.7879
 9369TIP3    H252303   2.397   1.967   3.431 -3.7996 -0.1801  2.1185
 9370TIP3   OH252304   0.886   1.177   2.650  0.5293 -0.0976  0.4261
 9370TIP3    H152305   0.794   1.177   2.676  0.5590 -1.3005  0.6073
 9370TIP3    H252306   0.924   1.102   2.697  1.7369  0.7237  0.8065
 9371TIP3   OH252307   5.954   3.418   2.570 -0.6677 -0.0167 -0.6269
 9371TIP3    H152308   5.994   3.350   2.516 -1.0925  0.2054 -1.2266
 9371TIP3    H252309   5.860   3.400   2.565 -0.6740 -0.4941  0.7046
 9372TIP3   OH252310   1.992   5.001   3.778  0.2835 -0.1832 -0.3453
 9372TIP3    H152311   1.957   5.012   3.867 -1.0852  0.3495 -0.9278
 9372TIP3    H252312   2.011   4.907   3.771 -0.8716 -0.4592  0.0600
 9373TIP3   OH252313   4.457   3.362   1.338  0.0765  0.8441  0.0011
 9373TIP3    H152314   4.447   3.274   1.376 -0.7465  0.8983 -0.0719
 9373TIP3    H252315   4.470   3.345   1.244  0.9391  0.7598  0.1336
 9374TIP3   OH252316   6.634   3.160   2.141  0.9878 -0.1447 -0.0680
 9374TIP3    H152317   6.603   3.205   2.219 -0.7834 -2.2412  0.5670
 9374TIP3    H252318   6.622   3.067   2.161 -1.1461 -0.7675 -3.3617
 9375TIP3   OH252319   3.983   5.747   1.239 -0.2479  0.4788  0.9043
 9375TIP3    H152320   3.912   5.682   1.238 -0.0496  0.2653  0.2742
 9375TIP3    H252321   3.963   5.802   1.315  0.7440 -1.6068  2.7994
 9376TIP3   OH252322   5.632   1.697   1.320  0.9475  0.3773  0.1937
 9376TIP3    H152323   5.688   1.739   1.385 -0.8878  2.2250  0.6998
 9376TIP3    H252324   5.550   1.747   1.323 -0.5877 -1.9008 -0.8126
 9377TIP3   OH252325   4.998   4.203   2.246  0.8283  0.3637  0.0940
 9377TIP3    H152326   4.988   4.257   2.168 -0.8427  4.0111  2.5971
 9377TIP3    H252327   5.058   4.252   2.302 -0.8525 -0.2644  2.5805
 9378TIP3   OH252328   6.420   5.778   2.942  0.1414 -0.4206  0.3646
 9378TIP3    H152329   6.342   5.830   2.958 -0.1603 -0.2386 -1.5379
 9378TIP3    H252330   6.474   5.832   2.885  2.1173 -0.1605  2.3388
 9379TIP3   OH252331   0.034   5.754   0.965 -0.5650 -0.1421 -0.2003
 9379TIP3    H152332   0.093   5.702   1.020  1.4677  0.6640 -1.4854
 9379TIP3    H252333   0.056   5.729   0.875 -1.9600  0.4641 -0.7417
 9380TIP3   OH252334   1.843   0.368   2.980 -0.0904  0.2431  0.3380
 9380TIP3    H152335   1.902   0.331   2.913 -0.2763 -0.8583  0.7521
 9380TIP3    H252336   1.759   0.325   2.963  0.5446 -2.4018  3.0717
 9381TIP3   OH252337   5.284   4.065   3.110 -0.3320  0.7368  0.0724
 9381TIP3    H152338   5.319   3.984   3.147 -2.5315 -0.2576  0.0923
 9381TIP3    H252339   5.216   4.093   3.172 -1.2191  1.3071 -1.1243
 9382TIP3   OH252340   5.417   5.769   0.983  0.1226 -0.5954  0.9247
 9382TIP3    H152341   5.329   5.797   1.012  0.3832 -1.1499  2.3294
 9382TIP3    H252342   5.418   5.675   0.998  0.6233 -0.7496 -0.0403
 9383TIP3   OH252343   1.891   5.707   2.825 -0.2056 -0.0528 -0.0055
 9383TIP3    H152344   1.951   5.693   2.898  0.9493 -0.8305 -1.0601
 9383TIP3    H252345   1.933   5.663   2.751 -1.2149  0.9350 -1.2055
 9384TIP3   OH252346   2.893   3.398   0.440 -0.1609 -0.2972 -0.3745
 9384TIP3    H152347   2.864   3.323   0.493 -0.7714  0.1820 -0.0062
 9384TIP3    H252348   2.888   3.472   0.500 -0.2936  0.1596 -0.9403
 9385TIP3   OH252349   3.171   4.963   4.130 -0.6977  0.0723  0.3246
 9385TIP3    H152350   3.234   5.035   4.136 -0.8542  0.3180 -0.7608
 9385TIP3    H252351   3.145   4.962   4.038 -1.6064 -0.6034  0.5798
 9386TIP3   OH252352   2.341   1.788   2.134 -0.0170  0.5573  0.0964
 9386TIP3    H152353   2.285   1.837   2.074 -1.0016 -1.2421 -0.5091
 9386TIP3    H252354   2.381   1.720   2.080 -1.5163 -1.5877  1.5061
 9387TIP3   OH252355   5.566   1.673   2.296 -0.0567 -0.2277 -0.1007
 9387TIP3    H152356   5.504   1.617   2.343  0.5523 -1.9809 -1.2781
 9387TIP3    H252357   5.652   1.639   2.321  0.4853  1.9015  1.1871
 9388TIP3   OH252358   3.949   1.153   3.275 -0.1154 -0.2076 -0.4630
 9388TIP3    H152359   3.990   1.074   3.311  0.2203  0.1018 -0.1669
 9388TIP3    H252360   3.911   1.124   3.192 -0.0260 -0.6910 -0.3358
 9389TIP3   OH252361   6.512   2.892   1.540  0.4040  0.0924 -0.2887
 9389TIP3    H152362   6.484   2.969   1.491 -2.6926 -1.1832 -0.7509
 9389TIP3    H252363   6.588   2.859   1.492  1.0838  2.1275 -0.7372
 9390TIP3   OH252364   3.273   5.467   1.774  0.1035 -0.2637 -0.2942
 9390TIP3    H152365   3.251   5.376   1.791 -0.2654 -0.7963 -3.1179
 9390TIP3    H252366   3.362   5.464   1.738  0.1528  0.5227 -0.2699
 9391TIP3   OH252367   6.632   4.283   1.948  0.1159 -0.5736  0.0496
 9391TIP3    H152368   6.680   4.210   1.910 -0.2955  0.5269 -2.8174
 9391TIP3    H252369   6.554   4.292   1.894 -1.7817 -0.3036  2.6405
 9392TIP3   OH252370   4.950   0.507   0.723 -0.0977  0.1746  0.4060
 9392TIP3    H152371   5.045   0.517   0.736 -0.0128 -0.2331  0.1132
 9392TIP3    H252372   4.924   0.437   0.783 -0.1170 -0.0832  0.0991
 9393TIP3   OH252373   0.984   5.189   0.885  0.0132  0.4437 -0.1301
 9393TIP3    H152374   1.030   5.106   0.896  0.7743  0.9925  1.0055
 9393TIP3    H252375   1.029   5.231   0.812 -0.0961  0.0534 -0.4280
 9394TIP3   OH252376   5.901   5.972   3.385 -0.0282  0.1029 -0.7666
 9394TIP3    H152377   5.815   5.989   3.345  0.7680  0.0857 -2.5930
 9394TIP3    H252378   5.887   5.893   3.437 -0.8301 -0.7100 -2.1336
 9395TIP3   OH252379   0.504   6.231   2.931 -0.6031 -0.0521  0.1615
 9395TIP3    H152380   0.585   6.181   2.917  0.4074  0.4913  3.2410
 9395TIP3    H252381   0.437   6.163   2.940 -0.1397 -0.6116 -0.4346
 9396TIP3   OH252382   2.621   1.221   3.629  0.0559  0.0660  0.4152
 9396TIP3    H152383   2.585   1.181   3.708  0.3649  2.4711  1.8561
 9396TIP3    H252384   2.657   1.147   3.580 -1.7964 -1.7318  1.5890
 9397TIP3   OH252385   3.131   0.171   2.084  0.3674 -0.6538 -0.1332
 9397TIP3    H152386   3.190   0.214   2.146 -0.3317 -0.8615  0.7047
 9397TIP3    H252387   3.159   0.079   2.084  0.1642 -0.7154  0.1179
 9398TIP3   OH252388   1.438   5.344   1.264 -0.5763  0.3954 -0.0060
 9398TIP3    H152389   1.431   5.290   1.184  0.6132 -0.1861  0.2638
 9398TIP3    H252390   1.523   5.387   1.256  0.2425 -0.8188  1.6231
 9399TIP3   OH252391   3.219   2.604   3.427  0.1638  0.0859 -0.0112
 9399TIP3    H152392   3.279   2.541   3.467 -0.1344  0.6178  1.3253
 9399TIP3    H252393   3.153   2.550   3.383 -1.4238 -0.6777  3.0414
 9400TIP3   OH252394   0.594   5.564   1.332  0.3940 -0.1013 -0.3469
 9400TIP3    H152395   0.664   5.504   1.355 -0.1761 -0.3940  0.6875
 9400TIP3    H252396   0.602   5.636   1.394  1.2751  1.0896 -1.7823
 9401TIP3   OH252397   2.802   2.720   3.561 -0.0952  0.6777  0.1777
 9401TIP3    H152398   2.757   2.636   3.548  0.7385 -0.0150  1.4457
 9401TIP3    H252399   2.868   2.700   3.628  1.6955  1.7854 -1.1849
 9402TIP3   OH252400   1.517   3.377   1.501 -0.8872  0.0700  0.1768
 9402TIP3    H152401   1.597   3.427   1.489 -1.4062  1.0642  0.7443
 9402TIP3    H252402   1.507   3.327   1.420  2.7089 -3.6606  1.7006
 9403TIP3   OH252403   1.869   1.759   2.437  0.3465 -0.1269 -0.0918
 9403TIP3    H152404   1.811   1.789   2.366 -0.4457  0.2171  0.6861
 9403TIP3    H252405   1.930   1.699   2.394 -1.4027 -1.5392 -0.6985
 9404TIP3   OH252406   5.282   0.410   0.599 -0.4132  0.3305  0.2263
 9404TIP3    H152407   5.268   0.453   0.683 -1.1099 -1.4076  1.0394
 9404TIP3    H252408   5.194   0.387   0.569 -0.1144  0.2265 -0.5899
 9405TIP3   OH252409   2.779   5.653   1.948 -0.1899 -0.1892 -0.5935
 9405TIP3    H152410   2.778   5.574   2.002 -0.8034 -0.0329 -0.3701
 9405TIP3    H252411   2.825   5.718   2.000  0.8025 -0.5419 -0.9984
 9406TIP3   OH252412   2.893   6.086   3.040  0.3924 -0.6425  0.0762
 9406TIP3    H152413   2.935   6.107   3.123  0.5880  2.3525 -0.6501
 9406TIP3    H252414   2.961   6.039   2.990  0.1530 -2.7887  1.6372
 9407TIP3   OH252415   0.269   0.246   0.475  0.4686  0.2566  0.2924
 9407TIP3    H152416   0.211   0.171   0.489  1.2167 -0.1689  1.1417
 9407TIP3    H252417   0.242   0.309   0.542 -3.0346  2.6060 -2.9052
 9408TIP3   OH252418   2.804   0.398   2.425 -0.1529  0.2467  1.0529
 9408TIP3    H152419   2.726   0.345   2.447 -0.4049  1.1521  2.5119
 9408TIP3    H252420   2.778   0.488   2.445  0.2628  0.9658 -1.4149
 9409TIP3   OH252421   2.438   2.185   0.861 -0.8114  0.5766  0.0647
 9409TIP3    H152422   2.484   2.243   0.922  0.3318 -1.8927  1.7223
 9409TIP3    H252423   2.348   2.182   0.894 -0.0456 -1.3245  2.3008
 9410TIP3   OH252424   0.523   3.914   2.177 -0.0773 -0.1897 -0.0572
 9410TIP3    H152425   0.449   3.975   2.175  1.4365  1.7239 -0.6822
 9410TIP3    H252426   0.493   3.837   2.129 -1.2402  1.0708 -1.4171
 9411TIP3   OH252427   5.222   0.443   2.902  0.0194 -0.4074  0.4424
 9411TIP3    H152428   5.221   0.417   2.809 -0.6666 -0.2268  0.3875
 9411TIP3    H252429   5.307   0.486   2.914 -1.2447  2.9348 -1.0954
 9412TIP3   OH252430   2.434   4.186   3.505 -0.0229 -0.4149  0.1390
 9412TIP3    H152431   2.391   4.120   3.561  2.0027 -1.1819  0.8711
 9412TIP3    H252432   2.394   4.269   3.531 -1.3302 -1.1259  0.4975
 9413TIP3   OH252433   0.953   4.873   3.661 -0.2243  0.2655 -0.2425
 9413TIP3    H152434   0.908   4.859   3.744  0.7022 -0.5362  0.1457
 9413TIP3    H252435   1.010   4.796   3.651 -0.7885  0.0198 -1.9399
 9414TIP3   OH252436   1.865   0.681   0.638  0.0565 -0.0580  0.4563
 9414TIP3    H152437   1.822   0.642   0.562 -0.9204  0.0045  0.9517
 9414TIP3    H252438   1.830   0.631   0.712 -0.1935  0.8845  0.9870
 9415TIP3   OH252439   4.377   2.727   2.396  0.2290  0.1279 -0.1909
 9415TIP3    H152440   4.290   2.689   2.403 -0.2470  0.8923 -1.4760
 9415TIP3    H252441   4.362   2.820   2.381  1.3236  0.5540  1.1433
 9416TIP3   OH252442   4.322   5.195   1.624  0.3040 -0.2817  0.1089
 9416TIP3    H152443   4.309   5.139   1.548 -0.5898 -1.3929  1.0316
 9416TIP3    H252444   4.308   5.137   1.699  1.7648  0.6339  1.1444
 9417TIP3   OH252445   3.345   3.362   1.234  0.2536  0.6641 -0.3083
 9417TIP3    H152446   3.320   3.272   1.210 -2.5735  1.3094 -0.2174
 9417TIP3    H252447   3.291   3.417   1.177  3.0091  2.3970 -1.4219
 9418TIP3   OH252448   3.042   2.662   0.855 -0.5229 -0.2283 -0.5471
 9418TIP3    H152449   3.124   2.710   0.864 -1.4473  1.1723  0.9814
 9418TIP3    H252450   3.059   2.577   0.895 -0.0574  0.3656  0.5462
 9419TIP3   OH252451   4.637   3.319   1.100 -0.4751 -0.5577  0.1873
 9419TIP3    H152452   4.560   3.327   1.043 -1.0641 -2.4209  0.6376
 9419TIP3    H252453   4.712   3.331   1.041 -1.1024  0.2450 -0.4543
 9420TIP3   OH252454   4.966   1.543   0.424  0.6615  0.6662 -0.1004
 9420TIP3    H152455   4.929   1.493   0.497 -0.4915 -1.8509 -2.2829
 9420TIP3    H252456   5.060   1.535   0.435  0.4965 -0.8416  0.3644
 9421TIP3   OH252457   1.294   5.934   1.565 -0.1888  0.2582  0.2435
 9421TIP3    H152458   1.256   5.872   1.503  1.8840 -0.4798 -0.3940
 9421TIP3    H252459   1.244   5.922   1.645 -0.5040 -1.5327 -0.1787
 9422TIP3   OH252460   4.948   6.700   0.986  0.2329  0.2887  0.2760
 9422TIP3    H152461   4.960   6.647   0.908 -1.4229  1.6971 -1.0061
 9422TIP3    H252462   4.858   6.681   1.014 -0.4470  2.4129 -0.2820
 9423TIP3   OH252463   3.669   6.607   1.909  0.2445 -0.5720  0.6609
 9423TIP3    H152464   3.617   6.527   1.919 -0.2485 -0.6649 -1.9450
 9423TIP3    H252465   3.635   6.665   1.977 -0.6993 -1.9199  1.4065
 9424TIP3   OH252466   3.930   4.833   3.626  0.3412 -0.3219  0.2634
 9424TIP3    H152467   3.922   4.759   3.566 -0.5354  0.2169 -0.3152
 9424TIP3    H252468   4.018   4.825   3.663  0.0516 -1.9854  0.6850
 9425TIP3   OH252469   1.572   1.524   2.663 -0.3360 -0.0340  0.0646
 9425TIP3    H152470   1.624   1.603   2.683 -0.8607 -0.0047  1.3791
 9425TIP3    H252471   1.602   1.498   2.576 -0.6251  2.0041 -0.7120
 9426TIP3   OH252472   1.395   0.974   2.128 -0.0722 -0.3585 -0.3849
 9426TIP3    H152473   1.460   0.915   2.165 -0.5824 -0.1987  0.8197
 9426TIP3    H252474   1.316   0.921   2.119 -0.6635  0.2008  1.1207
 9427TIP3   OH252475   6.659   1.708   1.068 -0.4251 -0.6376 -0.0142
 9427TIP3    H152476   6.607   1.632   1.093 -0.7521 -0.2602  0.4669
 9427TIP3    H252477   6.748   1.674   1.056 -0.4167 -0.9673  0.9232
 9428TIP3   OH252478   3.732   5.996   0.893 -0.4374  0.4072  0.2287
 9428TIP3    H152479   3.816   5.952   0.885 -0.5847  0.1620  0.0186
 9428TIP3    H252480   3.754   6.090   0.895 -0.1499  0.3372  0.3419
 9429TIP3   OH252481   5.827   4.301   0.694  0.4961  0.1950  0.0510
 9429TIP3    H152482   5.846   4.391   0.718 -0.8350  0.2601  0.9692
 9429TIP3    H252483   5.911   4.265   0.666  1.0358  1.7163 -0.3803
 9430TIP3   OH252484   1.426   0.257   4.117  0.1065 -0.5334 -0.1187
 9430TIP3    H152485   1.407   0.163   4.118  0.7012 -0.6550  0.5348
 9430TIP3    H252486   1.425   0.281   4.025  0.4678 -1.2904 -0.3210
 9431TIP3   OH252487   2.744   3.863   1.267  0.0473 -0.0289  0.5837
 9431TIP3    H152488   2.671   3.907   1.224  0.1069  0.4681  0.9936
 9431TIP3    H252489   2.755   3.908   1.351 -0.7699 -1.6625  1.6276
 9432TIP3   OH252490   3.386   2.382   3.489  0.4162 -0.3656 -0.6145
 9432TIP3    H152491   3.407   2.371   3.396 -0.3951 -1.9022 -0.6569
 9432TIP3    H252492   3.464   2.423   3.527  0.8752  0.0149 -1.9101
 9433TIP3   OH252493   2.971   6.445   1.274  0.0453  0.1677  0.3248
 9433TIP3    H152494   2.971   6.485   1.361  0.5160  0.8356  0.0228
 9433TIP3    H252495   2.903   6.492   1.226 -0.7541 -0.7199  0.5511
 9434TIP3   OH252496   5.307   6.508   2.400 -0.4124 -0.4700  0.4776
 9434TIP3    H152497   5.397   6.479   2.386 -0.2107 -0.8796  2.3678
 9434TIP3    H252498   5.265   6.496   2.315  1.9024  2.1441 -1.2350
 9435TIP3   OH252499   1.463   2.435   1.982 -0.3024 -0.6566 -0.0165
 9435TIP3    H152500   1.491   2.353   2.024  1.7620  0.2157  0.4394
 9435TIP3    H252501   1.541   2.491   1.986 -0.7872  0.3458 -2.8296
 9436TIP3   OH252502   2.566   0.803   4.248 -0.5058 -0.2847 -0.6021
 9436TIP3    H152503   2.642   0.826   4.302 -1.8107  1.4332  0.6067
 9436TIP3    H252504   2.519   0.737   4.299 -1.2809  0.7104  0.0085
 9437TIP3   OH252505   1.966   4.344   3.127  0.0609  0.1141 -0.4955
 9437TIP3    H152506   2.036   4.404   3.151  0.0958  0.0246 -0.3726
 9437TIP3    H252507   1.988   4.315   3.039  1.5693 -1.8971  0.4628
 9438TIP3   OH252508   6.622   1.457   2.102 -0.0413  0.2161  0.1789
 9438TIP3    H152509   6.619   1.414   2.187  0.0861  0.6257  0.3970
 9438TIP3    H252510   6.539   1.433   2.060 -0.2865  0.3398  0.5831
 9439TIP3   OH252511   2.089   1.896   2.777  0.2244 -0.1356  0.2593
 9439TIP3    H152512   2.159   1.956   2.799 -0.0589  0.4798 -0.4487
 9439TIP3    H252513   2.010   1.951   2.773 -0.1300 -0.6436  0.1168
 9440TIP3   OH252514   1.816   0.530   2.614 -0.4546 -0.1970 -0.3887
 9440TIP3    H152515   1.901   0.488   2.626  0.2377  1.5415  1.1516
 9440TIP3    H252516   1.753   0.458   2.618  0.8465 -1.3745 -0.4109
 9441TIP3   OH252517   0.102   4.086   1.845  0.4095 -0.1856  0.0062
 9441TIP3    H152518   0.194   4.066   1.864  0.9358  1.2762 -0.8338
 9441TIP3    H252519   0.074   4.015   1.788  1.3420 -0.1311 -0.5555
 9442TIP3   OH252520   3.366   5.050   1.250 -0.4204  0.1701  0.3775
 9442TIP3    H152521   3.420   4.973   1.234  1.5804  1.5341  0.0692
 9442TIP3    H252522   3.399   5.086   1.332  1.3820  2.7109 -1.2969
 9443TIP3   OH252523   3.604   6.555   3.490  0.5949 -0.0932  0.0415
 9443TIP3    H152524   3.527   6.500   3.477  1.2460 -1.3369  1.1607
 9443TIP3    H252525   3.652   6.513   3.561  0.9106  2.1949  1.2971
 9444TIP3   OH252526   3.439   6.179   2.677 -0.3550  0.2134  0.1652
 9444TIP3    H152527   3.439   6.084   2.687  3.1503 -0.1450 -1.7289
 9444TIP3    H252528   3.442   6.212   2.767 -1.9524 -1.3812  0.8771
 9445TIP3   OH252529   2.155   5.961   0.658 -0.8408 -0.3632 -0.4799
 9445TIP3    H152530   2.142   5.881   0.607 -0.5548 -0.5424 -0.2773
 9445TIP3    H252531   2.174   5.930   0.747 -1.1099 -0.0612 -0.3147
 9446TIP3   OH252532   0.419   1.699   2.443  0.3872 -0.3804  0.1104
 9446TIP3    H152533   0.366   1.719   2.521 -1.7446 -1.9023 -0.8334
 9446TIP3    H252534   0.362   1.643   2.390  1.1025  1.8752 -3.3220
 9447TIP3   OH252535   6.556   3.628   2.106 -0.3834  0.8710 -0.0558
 9447TIP3    H152536   6.537   3.547   2.059  1.3948  1.3798 -1.8184
 9447TIP3    H252537   6.470   3.667   2.122 -1.3510 -1.6296  1.5143
 9448TIP3   OH252538   2.316   2.651   3.141 -0.4297  0.1682  0.1691
 9448TIP3    H152539   2.294   2.592   3.214  1.8514  0.5664  1.2770
 9448TIP3    H252540   2.254   2.724   3.150 -1.8843 -1.0124  0.0825
 9449TIP3   OH252541   4.141   0.861   1.914 -0.1051  0.0846  0.3220
 9449TIP3    H152542   4.236   0.864   1.900 -0.1145 -1.0620 -0.0316
 9449TIP3    H252543   4.128   0.908   1.997  0.9903 -1.3653  1.3816
 9450TIP3   OH252544   4.331   1.256   3.459  0.2043  0.2077 -0.7503
 9450TIP3    H152545   4.351   1.170   3.423 -0.0961 -0.4804  0.6659
 9450TIP3    H252546   4.375   1.318   3.400  1.4702 -0.9668 -1.0802
 9451TIP3   OH252547   0.586   1.404   2.491  0.7085  0.5227  0.3948
 9451TIP3    H152548   0.538   1.357   2.560  1.3810 -0.5277  0.1700
 9451TIP3    H252549   0.549   1.492   2.492  0.5616  0.4732  1.9625
 9452TIP3   OH252550   4.663   5.249   2.294  0.3332 -0.1708  0.3437
 9452TIP3    H152551   4.687   5.209   2.377  0.9119  0.4655  0.4904
 9452TIP3    H252552   4.676   5.343   2.308  0.1673 -0.0351 -0.3762
 9453TIP3   OH252553   4.515   1.050   1.639  0.0873  0.1892  0.0689
 9453TIP3    H152554   4.545   1.001   1.562 -1.6999 -0.4945 -0.2325
 9453TIP3    H252555   4.567   1.014   1.711 -0.3101 -1.3232 -0.3498
 9454TIP3   OH252556   2.094   3.295   0.424 -0.4376  0.5690  0.1911
 9454TIP3    H152557   2.004   3.273   0.400 -0.4717  1.2470 -0.3339
 9454TIP3    H252558   2.128   3.216   0.467 -0.8259 -0.1885 -0.8694
 9455TIP3   OH252559   5.286   1.144   1.675 -0.2745 -0.0614 -0.3341
 9455TIP3    H152560   5.322   1.167   1.589  0.7797  0.8855  0.3329
 9455TIP3    H252561   5.320   1.212   1.734 -3.8708  1.4685  0.2327
 9456TIP3   OH252562   6.170   1.971   2.618  0.0909 -0.2305 -0.4203
 9456TIP3    H152563   6.180   1.902   2.553 -0.4758 -0.2885 -0.4481
 9456TIP3    H252564   6.147   2.049   2.568  0.4161 -0.0953 -0.3603
 9457TIP3   OH252565   1.387   4.711   3.440 -0.1577  0.1632 -0.1781
 9457TIP3    H152566   1.378   4.617   3.455 -0.0931  0.2632  0.5054
 9457TIP3    H252567   1.363   4.723   3.348 -0.7466 -0.4358 -0.1069
 9458TIP3   OH252568   4.975   3.183   1.846 -0.0061 -0.0962 -0.0939
 9458TIP3    H152569   4.917   3.118   1.806  0.1853 -0.3317  0.0099
 9458TIP3    H252570   5.061   3.166   1.808  0.0258  0.1563 -0.1356
 9459TIP3   OH252571   4.892   2.685   0.602  1.0171 -0.1548 -0.3023
 9459TIP3    H152572   4.842   2.607   0.622  1.9324 -0.4099  1.1805
 9459TIP3    H252573   4.849   2.755   0.652 -1.6618  1.0518 -3.9436
 9460TIP3   OH252574   2.738   5.088   1.266 -0.3633 -0.3740  0.2461
 9460TIP3    H152575   2.809   5.149   1.286  0.1934 -0.4972 -1.2397
 9460TIP3    H252576   2.783   5.010   1.233 -1.1869 -0.0433 -1.7935
 9461TIP3   OH252577   5.301   4.744   1.065 -0.3012 -0.7755  0.1459
 9461TIP3    H152578   5.297   4.742   1.160  0.1695  2.7623  0.3888
 9461TIP3    H252579   5.393   4.759   1.045 -0.9000  2.9875 -0.4824
 9462TIP3   OH252580   4.273   4.629   3.018 -0.1195 -0.2053  0.8421
 9462TIP3    H152581   4.185   4.602   3.046 -0.1022  0.1459  1.2564
 9462TIP3    H252582   4.332   4.568   3.062 -0.0030  1.2133  2.8017
 9463TIP3   OH252583   3.657   2.270   1.728  0.9895 -0.1735  0.1750
 9463TIP3    H152584   3.673   2.298   1.818 -1.9815  0.2715  0.6716
 9463TIP3    H252585   3.690   2.342   1.674  0.3814  0.8072  1.0754
 9464TIP3   OH252586   3.207   1.147   1.561  0.2781  0.1157  0.2611
 9464TIP3    H152587   3.148   1.093   1.508  0.9092 -0.7429  0.4122
 9464TIP3    H252588   3.291   1.100   1.558  0.0193 -0.6842  3.0617
 9465TIP3   OH252589   0.979   3.215   3.194  0.4520  1.2594 -0.0818
 9465TIP3    H152590   1.062   3.173   3.170 -0.5482 -1.8107  1.2258
 9465TIP3    H252591   0.948   3.256   3.114  1.2089 -1.2736 -1.7885
 9466TIP3   OH252592   3.357   4.695   3.981  0.0279 -0.2407  0.4837
 9466TIP3    H152593   3.385   4.654   4.063  0.4950 -0.6144  0.1505
 9466TIP3    H252594   3.363   4.624   3.916  2.1820  0.6247 -0.3864
 9467TIP3   OH252595   2.767   4.070   1.438  0.4734  0.7052 -0.1051
 9467TIP3    H152596   2.793   4.162   1.440  1.9366  0.3357 -0.9467
 9467TIP3    H252597   2.801   4.034   1.520 -2.3166  1.4018  1.5126
 9468TIP3   OH252598   5.352   5.746   4.108  0.0949 -0.3524 -0.2113
 9468TIP3    H152599   5.396   5.662   4.120 -0.5525 -0.7291 -0.3892
 9468TIP3    H252600   5.259   5.726   4.126 -0.0465  0.3444 -0.1607
 9469TIP3   OH252601   4.886   5.556   1.789 -0.1047 -0.1184 -0.0060
 9469TIP3    H152602   4.821   5.588   1.851 -1.4900 -1.5545 -0.6505
 9469TIP3    H252603   4.958   5.525   1.844 -0.2274  0.8712  0.7468
 9470TIP3   OH252604   0.230   3.286   2.400 -0.0774  0.0799  0.0096
 9470TIP3    H152605   0.306   3.262   2.346 -0.3337 -2.7042  0.7149
 9470TIP3    H252606   0.251   3.372   2.435  2.2611 -0.1423 -0.6800
 9471TIP3   OH252607   1.235   1.790   1.555  0.2194 -0.0065  0.1971
 9471TIP3    H152608   1.325   1.770   1.531 -0.1995 -1.0681 -0.5513
 9471TIP3    H252609   1.204   1.848   1.485  1.0977  2.6021  1.8118
 9472TIP3   OH252610   4.128   3.272   0.855  0.0228  0.6850  0.3433
 9472TIP3    H152611   4.048   3.285   0.805  1.1165  0.9106 -1.4702
 9472TIP3    H252612   4.150   3.180   0.841 -0.1317  0.5163  1.1804
 9473TIP3   OH252613   5.947   3.941   1.712  0.4078 -0.3226 -0.9766
 9473TIP3    H152614   5.926   4.030   1.741 -0.7703 -0.4574 -1.3592
 9473TIP3    H252615   6.000   3.905   1.782 -1.2224 -0.1641  0.3960
 9474TIP3   OH252616   0.028   2.246   1.383 -0.9894 -0.4311 -0.2996
 9474TIP3    H152617  -0.058   2.205   1.376  0.0821 -3.1632  1.0671
 9474TIP3    H252618   0.027   2.287   1.470 -0.5679 -1.5025  0.2358
 9475TIP3   OH252619   0.911   5.178   3.801 -0.3362  0.4498  0.0159
 9475TIP3    H152620   0.829   5.162   3.754 -0.1202  2.0683 -1.0002
 9475TIP3    H252621   0.968   5.104   3.777 -0.9718  0.1316 -0.5366
 9476TIP3   OH252622   1.878   2.573   0.875 -0.8056  0.2272 -0.1409
 9476TIP3    H152623   1.952   2.626   0.903 -0.2608  0.2770 -1.6016
 9476TIP3    H252624   1.842   2.620   0.799 -1.4203 -0.5745 -0.3584
 9477TIP3   OH252625   2.604   0.332   1.214  0.3574  0.3044  0.2493
 9477TIP3    H152626   2.551   0.409   1.237  0.2396  0.0331  0.9188
 9477TIP3    H252627   2.641   0.303   1.298  0.9967  0.0700 -0.1087
 9478TIP3   OH252628   4.672   6.676   2.040 -0.2459  0.2963  0.0163
 9478TIP3    H152629   4.694   6.760   2.001 -0.7543 -0.2195 -1.4553
 9478TIP3    H252630   4.580   6.683   2.063 -0.9357 -0.5933 -2.2507
 9479TIP3   OH252631   6.433   1.477   1.711  0.1705 -0.1415 -0.3122
 9479TIP3    H152632   6.433   1.502   1.619 -1.7267 -1.4661 -0.7373
 9479TIP3    H252633   6.440   1.560   1.759 -0.5600  0.7175 -1.6445
 9480TIP3   OH252634   3.661   3.817   2.148 -0.4532 -0.2899  0.1535
 9480TIP3    H152635   3.650   3.895   2.203 -1.8561 -0.4389  0.1125
 9480TIP3    H252636   3.667   3.851   2.059 -1.3388 -0.2253  0.1080
 9481TIP3   OH252637   0.394   4.382   2.753  0.2491 -0.4471 -0.2596
 9481TIP3    H152638   0.356   4.315   2.696 -2.1531  1.2999 -0.8490
 9481TIP3    H252639   0.475   4.408   2.709 -0.2359 -0.9806 -1.4981
 9482TIP3   OH252640   6.205   3.239   1.997  0.2357 -0.1403 -0.2842
 9482TIP3    H152641   6.211   3.207   1.907  0.3216 -1.0901  0.0523
 9482TIP3    H252642   6.125   3.293   1.997  2.0516  2.8002 -1.7789
 9483TIP3   OH252643   1.490   3.309   2.011  0.2653 -0.6486  0.1857
 9483TIP3    H152644   1.455   3.260   2.086 -0.5052  0.2083  0.4121
 9483TIP3    H252645   1.463   3.258   1.934  2.8060 -2.6453  0.5008
 9484TIP3   OH252646   0.238   1.620   3.053 -0.3186 -0.4180 -0.6700
 9484TIP3    H152647   0.146   1.621   3.077  0.0969 -0.4935  1.0523
 9484TIP3    H252648   0.273   1.702   3.087  0.5872 -1.1402  0.1911
 9485TIP3   OH252649   4.274   6.050   1.348 -0.2524 -0.0857 -0.1702
 9485TIP3    H152650   4.200   6.046   1.288 -1.0795  0.8783  0.7656
 9485TIP3    H252651   4.285   5.960   1.379 -0.5087 -0.3802 -0.9190
 9486TIP3   OH252652   4.781   0.592   3.462 -0.0047 -0.1362  0.3063
 9486TIP3    H152653   4.819   0.513   3.425 -2.3380 -1.0295 -0.3186
 9486TIP3    H252654   4.777   0.576   3.556  0.6431 -0.2188  0.3279
 9487TIP3   OH252655   2.909   1.360   3.455 -0.1364 -0.1253  0.3935
 9487TIP3    H152656   2.826   1.387   3.496 -0.9522 -0.8857 -0.6842
 9487TIP3    H252657   2.900   1.388   3.364  2.5634  3.5958  1.0315
 9488TIP3   OH252658   3.729   2.401   3.373  0.2407  0.5636  0.3345
 9488TIP3    H152659   3.819   2.432   3.370  0.6925 -0.3997  2.3427
 9488TIP3    H252660   3.735   2.312   3.409 -1.2436 -0.8400 -2.5791
 9489TIP3   OH252661   5.335   2.581   2.680  0.2905  0.5113  0.5376
 9489TIP3    H152662   5.359   2.538   2.597  0.1798 -0.0745  0.8046
 9489TIP3    H252663   5.274   2.650   2.655 -1.8827 -1.3499  0.3680
 9490TIP3   OH252664   5.184   1.018   2.597  0.2363  0.0711  0.0038
 9490TIP3    H152665   5.211   0.993   2.508  1.4993  1.6064 -0.0919
 9490TIP3    H252666   5.261   0.999   2.651 -0.6854 -1.2924  0.8825
 9491TIP3   OH252667   3.797   6.110   1.267  0.3797 -0.0181 -0.1779
 9491TIP3    H152668   3.811   6.095   1.361 -0.5421  0.5015  0.0483
 9491TIP3    H252669   3.704   6.091   1.253 -0.2870  2.9258 -0.3474
 9492TIP3   OH252670   2.542   5.730   3.667  0.5311  0.5163 -0.3092
 9492TIP3    H152671   2.633   5.749   3.688  0.6533 -0.2332 -0.1066
 9492TIP3    H252672   2.493   5.806   3.699  0.9786  0.4613  0.5371
 9493TIP3   OH252673   5.783   0.900   2.103 -0.1389  0.1993 -0.6675
 9493TIP3    H152674   5.712   0.848   2.065  0.9614 -1.3554 -0.6619
 9493TIP3    H252675   5.801   0.967   2.037  0.1943 -1.0482 -1.8886
 9494TIP3   OH252676   1.321   0.355   1.075  0.0438  0.0626  0.0344
 9494TIP3    H152677   1.303   0.291   1.006  1.8849  0.5726 -0.9947
 9494TIP3    H252678   1.357   0.302   1.146  0.1607 -0.2239 -0.2321
 9495TIP3   OH252679   2.723   3.298   3.200 -0.5845 -0.2509 -0.3465
 9495TIP3    H152680   2.712   3.331   3.111 -0.2777  0.5640 -0.1007
 9495TIP3    H252681   2.779   3.221   3.191  1.5066  1.2140 -0.6500
 9496TIP3   OH252682   5.498   2.840   1.111 -0.2445  0.1936 -0.0223
 9496TIP3    H152683   5.423   2.786   1.087  0.3635 -0.9349  0.5209
 9496TIP3    H252684   5.479   2.869   1.200  0.4636 -1.0677  0.5687
 9497TIP3   OH252685   6.284   5.184   2.204 -0.2896 -0.4784 -0.2196
 9497TIP3    H152686   6.207   5.219   2.159  0.1221 -0.5944 -1.0370
 9497TIP3    H252687   6.257   5.097   2.232  0.3042 -1.5886 -2.7604
 9498TIP3   OH252688   0.514   4.572   2.380 -0.0574 -0.1831 -0.3049
 9498TIP3    H152689   0.529   4.479   2.365 -1.5557 -0.8847  2.0301
 9498TIP3    H252690   0.468   4.602   2.302 -1.5147 -1.9688 -0.2131
 9499TIP3   OH252691   0.382   0.807   2.152  0.1872 -0.2876  0.3484
 9499TIP3    H152692   0.418   0.836   2.236  0.5081 -0.9641  0.4531
 9499TIP3    H252693   0.349   0.887   2.112 -0.2586 -0.0015  1.2551
 9500TIP3   OH252694   4.799   5.315   1.882  0.2456  0.2537  0.6266
 9500TIP3    H152695   4.833   5.348   1.799  2.5843 -0.9018  1.0442
 9500TIP3    H252696   4.722   5.264   1.858 -0.2035  1.4321 -0.5947
 9501TIP3   OH252697   3.944   5.209   3.525 -0.0472  0.4334  0.1847
 9501TIP3    H152698   3.895   5.291   3.531  0.7536  0.8850  0.7568
 9501TIP3    H252699   3.945   5.175   3.615  2.7175  1.6695  0.7199
 9502TIP3   OH252700   5.118   3.011   2.070  0.0040 -0.2653  0.5120
 9502TIP3    H152701   5.062   3.020   2.147  2.7008 -1.4557  2.7781
 9502TIP3    H252702   5.147   3.100   2.051 -0.0947 -0.0491  1.3417
 9503TIP3   OH252703   3.494   6.467   2.267 -0.1041 -0.3174 -0.4760
 9503TIP3    H152704   3.516   6.548   2.313 -1.2316 -0.8279  1.0741
 9503TIP3    H252705   3.434   6.421   2.327  0.6957 -2.4234 -1.1744
 9504TIP3   OH252706   0.394   1.655   1.750  0.0873 -0.0793  0.3259
 9504TIP3    H152707   0.313   1.637   1.798  1.1462  0.4023  2.4357
 9504TIP3    H252708   0.369   1.721   1.685 -0.9959  1.0990  1.8397
 9505TIP3   OH252709   2.606   6.290   1.177  0.2439 -0.1962 -0.3241
 9505TIP3    H152710   2.631   6.360   1.116  1.5283 -0.9940 -0.7548
 9505TIP3    H252711   2.687   6.241   1.191 -0.7169 -1.8478 -0.3560
 9506TIP3   OH252712   4.543   1.520   2.444  0.6888  0.0912 -0.4871
 9506TIP3    H152713   4.637   1.533   2.430  0.7234 -0.0485 -0.3942
 9506TIP3    H252714   4.530   1.426   2.430  0.2931  0.3445 -2.0200
 9507TIP3   OH252715   2.875   2.606   3.178 -0.1155 -0.1945 -0.1772
 9507TIP3    H152716   2.879   2.676   3.244 -0.4424  1.9486 -2.3093
 9507TIP3    H252717   2.837   2.532   3.225  1.0593  0.7327  2.4287
 9508TIP3   OH252718   2.967   3.788   1.141  0.1413 -0.0342  0.7660
 9508TIP3    H152719   2.989   3.709   1.190 -0.1711  0.1473  1.2001
 9508TIP3    H252720   2.893   3.826   1.188 -0.9096 -0.4623 -0.4903
 9509TIP3   OH252721   2.504   3.990   0.811  0.0176 -0.3239  0.1218
 9509TIP3    H152722   2.426   3.965   0.760  0.6203 -0.2474 -0.8675
 9509TIP3    H252723   2.492   3.946   0.895  0.3586 -2.8638 -1.0681
 9510TIP3   OH252724   0.416   3.032   1.356 -0.2349 -0.5274 -0.2077
 9510TIP3    H152725   0.491   2.975   1.340 -0.8886 -1.0968 -1.3346
 9510TIP3    H252726   0.357   2.979   1.409 -0.1079 -0.2783  0.1913
 9511TIP3   OH252727   1.445   4.402   0.864  0.1639  0.8661  0.4598
 9511TIP3    H152728   1.458   4.447   0.948  1.2332  0.0714  0.7360
 9511TIP3    H252729   1.402   4.319   0.887 -0.2662  0.9866  0.1238
 9512TIP3   OH252730   4.257   0.049   1.984 -0.0972  0.1693 -0.0472
 9512TIP3    H152731   4.313  -0.006   2.039  0.1047  0.4422  0.0246
 9512TIP3    H252732   4.168   0.033   2.016 -0.2531 -1.4572 -1.1793
 9513TIP3   OH252733   6.693   0.130   0.579 -0.6762 -0.0173 -0.2096
 9513TIP3    H152734   6.600   0.149   0.594 -0.4618  0.0841  1.1175
 9513TIP3    H252735   6.692   0.050   0.526 -1.5370 -0.5957  0.6215
 9514TIP3   OH252736   4.513   0.789   0.768  0.1921 -0.3336  0.1371
 9514TIP3    H152737   4.569   0.719   0.803 -0.3465 -0.5575  0.5665
 9514TIP3    H252738   4.545   0.869   0.810  0.7880 -0.3241 -0.3281
 9515TIP3   OH252739   2.983   0.571   0.826  0.0650  0.4443 -0.9488
 9515TIP3    H152740   3.010   0.660   0.846 -1.2370  0.8537 -0.8847
 9515TIP3    H252741   3.024   0.517   0.894 -0.1473  1.1668 -0.2229
 9516TIP3   OH252742   1.518   4.974   3.777  0.1931  0.2709 -0.2236
 9516TIP3    H152743   1.424   4.978   3.795  0.4712  0.8488  1.2817
 9516TIP3    H252744   1.525   4.927   3.694 -1.3576 -1.0518  0.3474
 9517TIP3   OH252745   0.420   1.619   0.852 -0.1308  0.5158 -0.0257
 9517TIP3    H152746   0.398   1.611   0.945  1.6959 -0.7839  0.3432
 9517TIP3    H252747   0.473   1.698   0.846 -3.2254  2.7267 -0.6547
 9518TIP3   OH252748   6.260   6.699   0.673 -0.4665 -0.0603 -0.4476
 9518TIP3    H152749   6.169   6.699   0.642  0.3299  0.7977 -3.0953
 9518TIP3    H252750   6.293   6.613   0.648 -0.5344 -0.3756  0.5251
 9519TIP3   OH252751   0.990   5.366   3.518  0.0551 -0.3381  0.4841
 9519TIP3    H152752   1.016   5.280   3.550 -0.6214 -0.8091 -0.1756
 9519TIP3    H252753   0.895   5.360   3.507  0.3655 -0.8844 -3.3204
 9520TIP3   OH252754   6.541   6.578   0.753 -0.2809  0.1487 -0.3887
 9520TIP3    H152755   6.596   6.500   0.745  0.1278  0.4145 -0.2541
 9520TIP3    H252756   6.463   6.559   0.702 -1.5244 -1.5267  1.9867
 9521TIP3   OH252757   5.168   1.257   2.352 -0.7150  0.0226  0.1921
 9521TIP3    H152758   5.245   1.247   2.408 -0.6989 -2.5703 -0.1889
 9521TIP3    H252759   5.094   1.232   2.407 -1.0773  0.6047 -0.0170
 9522TIP3   OH252760   6.497   0.968   3.384  0.5565  0.4695  0.1864
 9522TIP3    H152761   6.563   0.904   3.360 -0.5646 -0.6603  0.0370
 9522TIP3    H252762   6.515   1.043   3.326  0.8834 -0.3280 -0.7790
 9523TIP3   OH252763   5.829   2.782   0.822 -0.5051  0.1808 -0.1095
 9523TIP3    H152764   5.767   2.830   0.876 -1.3489 -1.0738  0.0958
 9523TIP3    H252765   5.896   2.751   0.883  0.0934  1.1382 -0.2577
 9524TIP3   OH252766   6.042   3.186   2.433  0.5257 -0.2182 -0.6240
 9524TIP3    H152767   6.105   3.179   2.362 -1.6268  0.7743 -2.7830
 9524TIP3    H252768   5.999   3.100   2.436  0.4084 -0.1643 -0.7439
 9525TIP3   OH252769   1.636   5.843   1.696 -0.0683  0.3113 -0.1460
 9525TIP3    H152770   1.596   5.756   1.689 -0.5736  0.5567 -0.2754
 9525TIP3    H252771   1.592   5.884   1.771  0.6957  0.1801  0.3978
 9526TIP3   OH252772   4.354   6.294   2.993 -0.5409  0.2257 -0.3432
 9526TIP3    H152773   4.420   6.283   2.924 -0.2447 -2.9122  0.3021
 9526TIP3    H252774   4.405   6.316   3.071 -0.3754 -0.6628 -0.1869
 9527TIP3   OH252775   2.408   4.430   2.074  0.6729  0.1081 -0.1049
 9527TIP3    H152776   2.498   4.460   2.071 -0.2216  3.1270 -0.4158
 9527TIP3    H252777   2.399   4.389   2.160  2.4219 -0.6251 -0.2440
 9528TIP3   OH252778   1.719   5.469   3.932 -0.4342  0.0496 -0.1609
 9528TIP3    H152779   1.718   5.472   4.028  0.3125  1.6336 -0.1831
 9528TIP3    H252780   1.689   5.555   3.905  1.9952  0.6035 -1.3070
 9529TIP3   OH252781   3.211   5.498   3.280  0.1492 -0.4738  0.1386
 9529TIP3    H152782   3.116   5.505   3.276  0.2012  0.1354 -0.0813
 9529TIP3    H252783   3.239   5.496   3.188  0.4129  0.3035  0.1998
 9530TIP3   OH252784   5.270   5.170   2.822 -0.4718 -0.0285  0.2020
 9530TIP3    H152785   5.302   5.251   2.862 -1.9132  0.3249  0.6924
 9530TIP3    H252786   5.233   5.197   2.738 -1.5050 -0.0809  0.6375
 9531TIP3   OH252787   3.972   1.160   1.469 -0.3047 -0.0861 -0.1911
 9531TIP3    H152788   4.062   1.193   1.463 -0.4934  0.2801 -1.0452
 9531TIP3    H252789   3.945   1.146   1.379 -2.3303  3.1333 -0.2319
 9532TIP3   OH252790   5.176   0.923   3.290 -0.3855 -0.3876 -0.5650
 9532TIP3    H152791   5.228   0.847   3.266 -0.9787 -0.5599 -1.3204
 9532TIP3    H252792   5.154   0.909   3.383  0.5413 -0.5168 -0.3605
 9533TIP3   OH252793   5.134   0.944   1.762 -0.1428 -0.3945  0.2378
 9533TIP3    H152794   5.041   0.966   1.761 -0.2268 -0.7309  0.4617
 9533TIP3    H252795   5.178   1.024   1.732 -0.4531  0.0195  0.8526
 9534TIP3   OH252796   2.507   2.541   0.781 -0.2514 -0.4186 -0.7417
 9534TIP3    H152797   2.455   2.469   0.746 -0.6465 -0.5414  0.0750
 9534TIP3    H252798   2.546   2.506   0.861  0.4270 -0.0648 -0.9095
 9535TIP3   OH252799   2.792   3.400   2.164 -0.2774 -0.4567  0.2297
 9535TIP3    H152800   2.874   3.367   2.126  0.0983  0.8952 -0.2022
 9535TIP3    H252801   2.803   3.388   2.258  0.7927  0.4554  0.2463
 9536TIP3   OH252802   2.087   1.269   0.678  0.3800 -0.5424 -0.4960
 9536TIP3    H152803   1.996   1.263   0.648  0.3870 -2.3362 -0.2511
 9536TIP3    H252804   2.085   1.332   0.750 -0.5761 -0.1868 -0.8228
 9537TIP3   OH252805   4.853   0.299   4.280 -0.5760 -0.3076 -0.0700
 9537TIP3    H152806   4.878   0.207   4.289  0.2352 -0.2816 -1.7035
 9537TIP3    H252807   4.760   0.301   4.303 -1.3006 -2.0169 -2.4472
 9538TIP3   OH252808   5.080   0.905   2.108 -0.5058 -0.1632  0.2323
 9538TIP3    H152809   5.004   0.951   2.142 -2.1286 -1.0616 -1.9224
 9538TIP3    H252810   5.092   0.941   2.020 -0.7619 -2.5516 -0.8606
 9539TIP3   OH252811   1.372   5.937   4.189  0.1702  0.7906  0.6431
 9539TIP3    H152812   1.304   5.933   4.256  0.6637  1.9620  1.2372
 9539TIP3    H252813   1.364   5.854   4.141 -1.1710  0.5917  1.1795
 9540TIP3   OH252814   1.176   3.838   3.819  0.3909  0.6478 -0.2232
 9540TIP3    H152815   1.178   3.924   3.861  1.3645  0.1158  0.8686
 9540TIP3    H252816   1.197   3.856   3.727  0.6134  1.5741 -0.0076
 9541TIP3   OH252817   5.916   4.197   2.080 -0.3599  0.1844 -0.2614
 9541TIP3    H152818   5.934   4.172   2.171 -0.6331 -0.8472 -0.4748
 9541TIP3    H252819   5.842   4.258   2.086 -1.3424 -0.9987  0.1291
 9542TIP3   OH252820   6.461   4.957   3.863  0.2311  0.0983 -0.4123
 9542TIP3    H152821   6.408   4.999   3.795  0.3330  0.2503 -0.3985
 9542TIP3    H252822   6.408   4.963   3.942  0.4351  0.6045 -0.3117
 9543TIP3   OH252823   2.073   0.801   0.921  0.1728 -0.4344  0.1489
 9543TIP3    H152824   1.988   0.802   0.876  0.2523  1.4423 -0.0452
 9543TIP3    H252825   2.057   0.752   1.002 -0.4289 -2.3081 -1.0312
 9544TIP3   OH252826   0.796   1.523   3.656  0.0442  0.4964 -0.0112
 9544TIP3    H152827   0.808   1.445   3.710  0.3011  0.6727  0.1910
 9544TIP3    H252828   0.701   1.533   3.649  0.0059  0.4449  0.3711
 9545TIP3   OH252829   6.229   1.584   3.353 -0.2287 -0.3891 -0.3879
 9545TIP3    H152830   6.322   1.597   3.372 -0.4705  1.2091 -0.1584
 9545TIP3    H252831   6.225   1.501   3.306  1.5380  0.3622 -1.9539
 9546TIP3   OH252832   3.076   4.902   3.875 -0.1903  0.2968 -0.3301
 9546TIP3    H152833   3.032   4.966   3.820  0.9938  0.6819 -0.8534
 9546TIP3    H252834   3.082   4.823   3.821 -0.4229  0.1737 -0.1798
 9547TIP3   OH252835   6.483   3.082   1.311 -0.4284  0.2343 -0.1930
 9547TIP3    H152836   6.519   3.169   1.330  1.7057 -0.9166  1.4731
 9547TIP3    H252837   6.549   3.040   1.257 -1.1143 -0.6029 -0.3938
 9548TIP3   OH252838   5.276   6.539   1.179  0.4806 -0.5130  0.1564
 9548TIP3    H152839   5.247   6.495   1.099  2.6033 -1.4495 -0.1713
 9548TIP3    H252840   5.371   6.527   1.179  0.9085  2.2761  1.1799
 9549TIP3   OH252841   2.571   5.109   1.990 -0.4997 -0.1750  0.3491
 9549TIP3    H152842   2.568   5.059   1.909 -1.4411  0.6132 -0.1267
 9549TIP3    H252843   2.575   5.043   2.060  0.9526 -0.8538 -0.3336
 9550TIP3   OH252844   1.770   0.893   3.666 -0.6692 -0.0400 -0.5874
 9550TIP3    H152845   1.786   0.861   3.754  2.1699  1.0706 -0.5957
 9550TIP3    H252846   1.814   0.978   3.663 -0.7880  0.0148 -3.0386
 9551TIP3   OH252847   2.886   0.895   3.707  0.1236  0.4732  0.1252
 9551TIP3    H152848   2.849   0.926   3.624 -0.3941  0.9167  0.5132
 9551TIP3    H252849   2.973   0.933   3.711  0.2753  0.1836 -0.3663
 9552TIP3   OH252850   4.706   2.560   2.947 -0.4377  0.7124 -0.3515
 9552TIP3    H152851   4.617   2.594   2.948 -0.9009 -0.3753 -1.4639
 9552TIP3    H252852   4.760   2.634   2.975 -1.6421  1.5046 -0.0248
 9553TIP3   OH252853   2.102   0.367   2.296 -0.2798  0.4840  0.4288
 9553TIP3    H152854   2.130   0.449   2.336  0.6105  0.4990 -0.1976
 9553TIP3    H252855   2.023   0.342   2.345 -1.0819  2.1587  0.0367
 9554TIP3   OH252856   0.005   3.852   3.380  0.2307  0.1159 -0.1619
 9554TIP3    H152857  -0.067   3.900   3.340 -0.8014 -0.5282  0.8739
 9554TIP3    H252858  -0.007   3.762   3.350  1.2538  0.1972 -0.8562
 9555TIP3   OH252859   5.384   0.421   1.698  0.0849  0.5528 -0.2907
 9555TIP3    H152860   5.302   0.397   1.655  0.8201 -0.8157 -0.9885
 9555TIP3    H252861   5.361   0.430   1.790 -1.0136  1.0514 -0.5984
 9556TIP3   OH252862   1.949   4.115   1.259 -0.0474 -0.2090  0.2509
 9556TIP3    H152863   1.952   4.182   1.327  1.3938  0.3571 -0.3210
 9556TIP3    H252864   1.893   4.151   1.191 -1.6429 -0.8545  1.1858
 9557TIP3   OH252865   3.403   5.946   3.530 -1.2376  0.3309 -0.4656
 9557TIP3    H152866   3.377   5.877   3.468  1.7367 -0.4984 -0.9512
 9557TIP3    H252867   3.418   6.023   3.475  1.1025 -0.3222 -0.8591
 9558TIP3   OH252868   5.619   3.837   1.817  0.2595 -0.2012 -0.2632
 9558TIP3    H152869   5.598   3.878   1.733  0.2699 -0.0282 -0.1803
 9558TIP3    H252870   5.680   3.766   1.794 -2.6790 -2.7588 -0.9466
 9559TIP3   OH252871   4.655   0.475   1.636 -0.6665  0.4699  0.2739
 9559TIP3    H152872   4.685   0.389   1.664  0.4978  0.8265  0.1757
 9559TIP3    H252873   4.650   0.526   1.716 -1.7868  0.2000  0.3899
 9560TIP3   OH252874   5.182   6.440   1.434 -0.7378  0.5379 -0.0393
 9560TIP3    H152875   5.202   6.508   1.371 -2.7940  1.1883 -0.0611
 9560TIP3    H252876   5.100   6.401   1.403 -1.2789  0.2053  1.6770
 9561TIP3   OH252877   4.999   5.973   3.904  0.2945 -0.8179 -0.2301
 9561TIP3    H152878   5.002   6.047   3.843 -1.3539 -0.6962 -0.2135
 9561TIP3    H252879   5.021   5.897   3.851  1.8593 -0.3658 -0.2843
 9562TIP3   OH252880   5.818   3.649   1.028 -0.0709 -0.3110 -0.3321
 9562TIP3    H152881   5.901   3.650   0.980  0.2569 -1.9168  0.1486
 9562TIP3    H252882   5.786   3.739   1.022  1.8316  0.4069 -0.2990
 9563TIP3   OH252883   4.419   0.230   1.122  0.3521  0.0704  0.4848
 9563TIP3    H152884   4.336   0.277   1.131 -0.3928 -0.8960 -1.0545
 9563TIP3    H252885   4.402   0.163   1.057  2.2015 -0.5219  0.5588
 9564TIP3   OH252886   0.524   4.808   0.734 -1.0391 -0.4080  0.1716
 9564TIP3    H152887   0.579   4.732   0.718  0.8048  0.9657 -0.4795
 9564TIP3    H252888   0.538   4.864   0.657 -1.2577  1.1698  1.2208
 9565TIP3   OH252889   1.081   0.726   3.012 -0.5678  0.0644 -0.2338
 9565TIP3    H152890   1.138   0.648   3.016  0.1672  0.5363 -1.0712
 9565TIP3    H252891   1.137   0.797   3.043 -0.9369  0.4149 -0.3815
 9566TIP3   OH252892   3.035   4.277   1.972  0.2533  0.2432 -0.2084
 9566TIP3    H152893   3.069   4.233   2.049  0.8153  0.9805 -0.0160
 9566TIP3    H252894   3.103   4.342   1.950 -0.6261  1.1395 -0.3569
 9567TIP3   OH252895   6.512   2.740   3.706  0.0919  0.0556  0.3218
 9567TIP3    H152896   6.462   2.710   3.630  1.0816 -1.1327  0.1129
 9567TIP3    H252897   6.486   2.679   3.776 -0.8109  1.1364  0.9590
 9568TIP3   OH252898   6.507   2.111   1.406  0.3679  0.3531 -0.0186
 9568TIP3    H152899   6.450   2.187   1.421 -0.8564 -0.8135  1.4704
 9568TIP3    H252900   6.490   2.053   1.479  2.9573 -0.4025  0.0664
 9569TIP3   OH252901   3.362   3.096   1.959  0.4474 -0.0472 -0.0310
 9569TIP3    H152902   3.289   3.094   2.021  0.3975 -1.6821 -0.0824
 9569TIP3    H252903   3.359   3.010   1.916  1.2940  0.5477 -1.3434
 9570TIP3   OH252904   3.935   3.009   1.920  0.3346 -0.3723 -0.2599
 9570TIP3    H152905   3.844   3.026   1.896  0.5234  0.6803 -0.2601
 9570TIP3    H252906   3.938   2.915   1.938 -0.4642 -0.6574 -1.5032
 9571TIP3   OH252907   4.294   0.949   0.723 -0.3946  0.1024  0.1950
 9571TIP3    H152908   4.354   0.874   0.729 -2.1167 -1.3139  0.6983
 9571TIP3    H252909   4.268   0.967   0.814 -1.2385  0.2284 -0.0562
 9572TIP3   OH252910   0.478   3.117   1.067  0.7784 -0.0693 -0.4511
 9572TIP3    H152911   0.425   3.190   1.098  1.7381  0.4143  0.0879
 9572TIP3    H252912   0.449   3.042   1.119 -0.2267 -0.1001 -1.0241
 9573TIP3   OH252913   2.312   6.284   1.647  0.0516  0.5884 -0.1006
 9573TIP3    H152914   2.360   6.344   1.704  0.1882  1.4185 -1.0505
 9573TIP3    H252915   2.361   6.284   1.565  0.0608 -0.8548 -0.1264
 9574TIP3   OH252916   4.749   3.504   1.258  0.2474 -0.2884 -0.2418
 9574TIP3    H152917   4.681   3.449   1.218 -1.1776 -1.3530  3.2354
 9574TIP3    H252918   4.830   3.455   1.245 -0.6101 -2.0323  0.5434
 9575TIP3   OH252919   4.434   4.015   3.814  0.3459 -0.0433 -0.2921
 9575TIP3    H152920   4.354   4.026   3.865  0.5068 -0.0923 -0.0251
 9575TIP3    H252921   4.466   4.104   3.800 -0.1893  0.0341 -1.1109
 9576TIP3   OH252922   4.042   1.854   1.371 -0.4347  0.1060  0.3020
 9576TIP3    H152923   4.006   1.780   1.323  0.6077 -0.0441 -0.2658
 9576TIP3    H252924   4.016   1.931   1.320  0.6476 -0.0517 -0.5059
 9577TIP3   OH252925   1.921   4.539   0.597  0.4796 -0.2220 -0.0264
 9577TIP3    H152926   1.930   4.594   0.675 -1.8337  0.9401 -0.4621
 9577TIP3    H252927   1.827   4.543   0.576  0.5686 -2.7541 -1.2735
 9578TIP3   OH252928   2.988   4.975   2.412 -0.0681  0.4417 -0.2188
 9578TIP3    H152929   3.047   4.952   2.484 -1.0718  1.8311  1.1039
 9578TIP3    H252930   2.912   4.919   2.424  0.4329 -0.4792 -1.1997
 9579TIP3   OH252931   1.174   3.963   1.292  0.4247  0.3890 -0.3981
 9579TIP3    H152932   1.239   3.951   1.223  0.5574 -0.4971 -0.1305
 9579TIP3    H252933   1.100   3.907   1.265 -0.8157  2.4158 -1.4018
 9580TIP3   OH252934   3.027   1.477   2.640 -0.0557 -0.0684 -0.2890
 9580TIP3    H152935   3.070   1.416   2.581 -1.3998  0.4004 -1.8233
 9580TIP3    H252936   3.058   1.563   2.613  0.0845  0.0873  0.3533
 9581TIP3   OH252937   3.932   4.032   2.469 -0.6137  0.2414  0.3616
 9581TIP3    H152938   3.958   3.941   2.488  0.6144  0.4307 -0.2933
 9581TIP3    H252939   3.922   4.072   2.556  0.0834 -0.1916  0.6538
 9582TIP3   OH252940   1.597   6.488   3.371  0.1148  0.6647  0.2896
 9582TIP3    H152941   1.615   6.571   3.327  1.3798 -0.5335 -1.5835
 9582TIP3    H252942   1.610   6.421   3.303 -2.3608 -1.0014  1.3197
 9583TIP3   OH252943   3.672   0.165   0.681  0.5371  0.2503  0.1523
 9583TIP3    H152944   3.732   0.120   0.621  0.9763  1.1045 -0.0647
 9583TIP3    H252945   3.729   0.202   0.749 -0.0154 -1.2821  1.4974
 9584TIP3   OH252946   2.132   6.147   1.869 -0.1117 -0.5104  0.0010
 9584TIP3    H152947   2.177   6.166   1.787 -0.1707  1.4620  0.3811
 9584TIP3    H252948   2.195   6.170   1.937 -0.8971  0.1972  0.5148
 9585TIP3   OH252949   4.980   6.445   2.460 -0.1633  0.2982  0.7603
 9585TIP3    H152950   4.971   6.521   2.402  0.7393 -1.6413 -2.1474
 9585TIP3    H252951   4.980   6.482   2.549 -0.8454  3.5347 -0.4530
 9586TIP3   OH252952   4.065   4.195   2.279  0.3926  0.2883 -0.2957
 9586TIP3    H152953   4.023   4.136   2.341  1.6401 -0.6086 -0.2750
 9586TIP3    H252954   4.141   4.147   2.247  1.6777  2.0039  0.0102
 9587TIP3   OH252955   3.859   5.101   1.478 -0.3839 -0.0712  0.2648
 9587TIP3    H152956   3.865   5.014   1.518  0.4544  0.1611  0.6629
 9587TIP3    H252957   3.874   5.086   1.385  0.4283 -0.2693  0.4255
 9588TIP3   OH252958   3.526   4.419   4.209 -0.2248  0.5309 -0.5686
 9588TIP3    H152959   3.513   4.371   4.127  1.0493  0.7762 -0.9251
 9588TIP3    H252960   3.596   4.371   4.254 -0.1377  1.0608 -0.1337
 9589TIP3   OH252961   2.167   2.751   2.035 -0.1731 -0.2586  0.7156
 9589TIP3    H152962   2.109   2.731   2.108 -0.6462  0.8714  0.6756
 9589TIP3    H252963   2.118   2.813   1.981 -0.8372 -2.8151 -1.9115
 9590TIP3   OH252964   4.162   5.324   1.969  0.3664  0.1006  0.1802
 9590TIP3    H152965   4.093   5.285   2.023 -1.3640  0.6420 -1.5215
 9590TIP3    H252966   4.197   5.250   1.919 -1.9700  0.3457 -2.0314
 9591TIP3   OH252967   6.001   1.131   1.654 -0.1020 -0.0824 -0.4683
 9591TIP3    H152968   6.043   1.195   1.711  0.6907 -0.3786 -0.7065
 9591TIP3    H252969   5.951   1.184   1.591 -0.2324  0.2645 -0.0799
 9592TIP3   OH252970   1.351   4.182   1.930 -0.3065 -0.4366  0.2520
 9592TIP3    H152971   1.358   4.151   1.840  0.4443 -0.3297  0.2718
 9592TIP3    H252972   1.375   4.107   1.984 -2.7133 -1.1391  0.4571
 9593TIP3   OH252973   2.121   1.297   2.688 -0.3747 -0.2647  0.4345
 9593TIP3    H152974   2.189   1.364   2.677 -0.8076  0.0006 -0.8602
 9593TIP3    H252975   2.045   1.345   2.722 -0.7406 -0.0428 -0.6604
 9594TIP3   OH252976   3.381   5.706   2.323 -0.0504 -0.0659  0.4568
 9594TIP3    H152977   3.424   5.773   2.376 -1.4532  0.4359  1.0330
 9594TIP3    H252978   3.324   5.756   2.264 -1.7883 -0.7209  1.4956
 9595TIP3   OH252979   2.227   2.179   1.033 -0.3744  0.3464 -0.2195
 9595TIP3    H152980   2.148   2.230   1.052  0.3211  1.0501  0.9196
 9595TIP3    H252981   2.195   2.091   1.017 -1.2730  0.1197  2.3489
 9596TIP3   OH252982   6.405   6.203   1.483  0.3081 -0.2912  0.1368
 9596TIP3    H152983   6.430   6.286   1.442  1.0966  0.4059  1.9414
 9596TIP3    H252984   6.460   6.138   1.439 -0.5566  0.0339 -1.5327
 9597TIP3   OH252985   0.553   5.045   2.651  0.3626  0.2119 -0.3683
 9597TIP3    H152986   0.580   5.034   2.560  2.1930  0.9297  0.0613
 9597TIP3    H252987   0.632   5.029   2.703 -0.0639  2.0193  0.9676
 9598TIP3   OH252988   3.093   6.193   2.550  0.2296 -0.2986  0.2825
 9598TIP3    H152989   3.059   6.271   2.505 -1.6272 -1.2046  0.0351
 9598TIP3    H252990   3.091   6.216   2.643 -0.2686 -0.0375  0.2077
 9599TIP3   OH252991   0.973   5.612   0.695  0.9115  0.0851 -0.3144
 9599TIP3    H152992   0.944   5.629   0.784  3.0884 -0.0110  0.4525
 9599TIP3    H252993   0.891   5.605   0.645 -0.3563  0.1178  1.6390
 9600TIP3   OH252994   1.000   2.912   1.731  1.0265  0.6347  0.4112
 9600TIP3    H152995   0.952   2.932   1.812 -0.4546 -2.4294  0.4343
 9600TIP3    H252996   1.045   2.830   1.750  0.3645 -0.3474 -1.9670
 9601TIP3   OH252997   2.163   3.092   0.589 -0.4118  0.0644 -0.1007
 9601TIP3    H152998   2.253   3.073   0.616 -0.1256  1.1156 -0.2829
 9601TIP3    H252999   2.119   3.007   0.592  0.4917 -0.4028  0.3388
 9602TIP3   OH253000   2.113   3.773   3.732  0.7586  0.1021 -0.0989
 9602TIP3    H153001   2.200   3.811   3.722  1.1426 -0.3311  1.3273
 9602TIP3    H253002   2.074   3.822   3.805 -0.3909  0.6225 -1.0312
 9603TIP3   OH253003   6.372   3.977   1.617 -0.0883  0.1960  0.0680
 9603TIP3    H153004   6.449   3.922   1.627 -1.1433 -1.2471  0.6533
 9603TIP3    H253005   6.330   3.944   1.537 -2.2269 -1.9109  1.8920
 9604TIP3   OH253006   3.582   0.829   2.363 -0.2756  0.0225  0.2924
 9604TIP3    H153007   3.673   0.803   2.380 -0.2887  1.2563  2.7183
 9604TIP3    H253008   3.529   0.758   2.400 -0.2900  0.1310  0.4827
 9605TIP3   OH253009   1.445   3.669   3.080 -0.7385 -0.4388 -0.3269
 9605TIP3    H153010   1.408   3.753   3.054  0.9579  1.2767  2.3833
 9605TIP3    H253011   1.392   3.642   3.155 -0.3620 -1.1076 -0.2952
 9606TIP3   OH253012   0.750   1.399   1.810 -0.1620 -0.6216 -0.7708
 9606TIP3    H153013   0.682   1.351   1.763 -1.7481  0.4727  0.2963
 9606TIP3    H253014   0.831   1.380   1.762 -0.8314 -3.6128 -0.8922
 9607TIP3   OH253015   2.943   5.257   3.459  0.4653  0.1806  0.1279
 9607TIP3    H153016   2.969   5.343   3.426  0.8302 -0.5808 -1.6469
 9607TIP3    H253017   2.895   5.217   3.387  0.2080 -1.0850  0.9646
 9608TIP3   OH253018   4.149   1.109   2.404  0.1632 -0.3363 -0.1366
 9608TIP3    H153019   4.102   1.078   2.481 -1.7562 -0.1971 -1.1796
 9608TIP3    H253020   4.129   1.202   2.400  2.2702  0.2041  0.5088
 9609TIP3   OH253021   3.175   1.094   0.438  0.5118 -0.2539  0.1403
 9609TIP3    H153022   3.127   1.029   0.385 -0.5660  0.4896  0.1758
 9609TIP3    H253023   3.157   1.178   0.396 -0.6007  0.3985  1.8155
 9610TIP3   OH253024   0.103   5.572   3.471  0.0623 -0.3657  0.8194
 9610TIP3    H153025   0.171   5.633   3.443 -1.4244  0.6380 -0.7723
 9610TIP3    H253026   0.092   5.589   3.565  0.5673  0.9009  0.6638
 9611TIP3   OH253027   0.180   2.260   2.368  0.2180  0.6757  0.4873
 9611TIP3    H153028   0.154   2.226   2.454 -1.5121 -2.1537 -1.0036
 9611TIP3    H253029   0.259   2.211   2.345 -0.1354  0.3734 -0.1113
 9612TIP3   OH253030   3.046   1.321   2.068  0.3669  0.1392 -0.1795
 9612TIP3    H153031   3.040   1.358   2.156  0.8417  2.7367 -1.1336
 9612TIP3    H253032   2.993   1.241   2.071  1.8647 -0.8751  2.9076
 9613TIP3   OH253033   2.749   6.059   3.495 -0.1625  0.1898 -0.0613
 9613TIP3    H153034   2.701   6.010   3.428  2.5219 -0.7068 -1.4967
 9613TIP3    H253035   2.687   6.125   3.526 -1.7415  0.3032 -3.0848
 9614TIP3   OH253036   2.872   4.189   3.254 -0.1341 -0.6321 -0.3268
 9614TIP3    H153037   2.933   4.119   3.233  0.3240  0.2484 -2.1770
 9614TIP3    H253038   2.908   4.266   3.209 -1.7974  0.2472 -0.2191
 9615TIP3   OH253039   2.154   4.095   2.481 -0.6162 -0.2548 -0.1886
 9615TIP3    H153040   2.096   4.042   2.536  0.2665 -2.5041 -1.3203
 9615TIP3    H253041   2.106   4.106   2.399 -0.4723  0.0796 -0.2321
 9616TIP3   OH253042   4.943   0.454   3.871  0.0091  0.2829  0.3590
 9616TIP3    H153043   5.032   0.488   3.876 -0.1618  1.1821 -1.7461
 9616TIP3    H253044   4.942   0.380   3.932  2.5102 -0.4412 -0.3813
 9617TIP3   OH253045   0.806   4.758   2.581  0.1195  0.1126 -0.4418
 9617TIP3    H153046   0.841   4.670   2.568  1.2628  0.4567  0.1475
 9617TIP3    H253047   0.881   4.816   2.570 -0.4580  0.9634 -0.0628
 9618TIP3   OH253048   3.097   1.334   1.343 -0.0821  0.4119  0.1018
 9618TIP3    H153049   3.081   1.304   1.253 -0.3162 -0.1306  0.3185
 9618TIP3    H253050   3.183   1.297   1.365  0.4914  1.4891 -0.2911
 9619TIP3   OH253051   4.628   2.195   2.517  0.3441 -0.2833  0.8891
 9619TIP3    H153052   4.584   2.151   2.444  0.6381  1.6672 -0.5420
 9619TIP3    H253053   4.582   2.278   2.526  2.6399  1.1376  0.3851
 9620TIP3   OH253054   5.263   2.574   3.192  0.2968  0.0654  0.1690
 9620TIP3    H153055   5.326   2.587   3.121 -0.0171  0.9711  0.0437
 9620TIP3    H253056   5.227   2.661   3.208 -0.7389 -0.3941  0.4150
 9621TIP3   OH253057   3.981   0.001   2.012  0.5526  0.4565 -0.4407
 9621TIP3    H153058   3.992  -0.085   1.973  0.9004  0.2847  0.0244
 9621TIP3    H253059   3.910  -0.010   2.076  0.9983  0.3583  0.0491
 9622TIP3   OH253060   3.906   4.739   2.032 -0.1114  0.3205 -0.0954
 9622TIP3    H153061   3.915   4.830   2.005  1.3486 -0.1315 -1.2464
 9622TIP3    H253062   3.973   4.728   2.100  0.7294 -0.2573 -0.9985
 9623TIP3   OH253063   2.523   6.597   4.127 -0.2329  0.3244 -0.1857
 9623TIP3    H153064   2.613   6.566   4.117 -0.3384 -1.0060  2.1717
 9623TIP3    H253065   2.531   6.692   4.138  0.6330  0.5137 -2.0785
 9624TIP3   OH253066   1.417   0.276   2.524  0.6717 -0.2477  0.1940
 9624TIP3    H153067   1.416   0.259   2.430 -0.1055 -0.2976  0.2026
 9624TIP3    H253068   1.362   0.207   2.562  1.0945 -0.3110  0.6992
 9625TIP3   OH253069   0.937   3.330   1.946 -0.3158  0.3892  0.0262
 9625TIP3    H153070   0.961   3.416   1.979 -1.8795  0.7524  0.2837
 9625TIP3    H253071   0.843   3.336   1.929 -0.5428 -1.3722  0.4376
 9626TIP3   OH253072   2.632   0.852   2.266  0.2805  0.6488  0.2973
 9626TIP3    H153073   2.566   0.788   2.240  0.5821  0.5881 -0.3399
 9626TIP3    H253074   2.715   0.804   2.264  0.6906  1.3462 -1.4533
 9627TIP3   OH253075   3.449   6.672   4.558  0.2428  0.0365 -0.2018
 9627TIP3    H153076   3.365   6.635   4.586 -0.1233  1.2031  0.2734
 9627TIP3    H253077   3.453   6.758   4.599  2.2564 -0.4815  0.8178
 9628TIP3   OH253078   3.878   3.005   0.619  0.0680  0.8000 -0.5415
 9628TIP3    H153079   3.856   2.912   0.610 -0.1351  0.6061  1.5798
 9628TIP3    H253080   3.970   3.011   0.593  0.0713  0.0162 -0.7188
 9629TIP3   OH253081   5.405   5.757   2.279 -0.2986  0.0351  0.0278
 9629TIP3    H153082   5.495   5.735   2.257 -0.0393  0.9798  0.1131
 9629TIP3    H253083   5.353   5.685   2.242  0.5191 -0.7866  0.4378
 9630TIP3   OH253084   1.951   4.555   1.544 -0.4109  0.2752  0.3253
 9630TIP3    H153085   1.858   4.579   1.544 -0.4088  0.2853  0.5727
 9630TIP3    H253086   1.994   4.628   1.590 -0.1199  0.8926 -0.8897
 9631TIP3   OH253087   4.127   1.422   2.015  0.3963  0.5840 -0.1494
 9631TIP3    H153088   4.168   1.379   1.940 -0.4328 -0.1647 -0.1826
 9631TIP3    H253089   4.054   1.365   2.039  0.1398  1.2481  0.7014
 9632TIP3   OH253090   4.820   6.601   1.645  0.2388  0.2037  0.2316
 9632TIP3    H153091   4.745   6.654   1.618  0.6350  0.9117  0.4946
 9632TIP3    H253092   4.881   6.608   1.572  0.5954  0.7168  0.5721
 9633TIP3   OH253093   1.777   4.877   2.229  0.4956  0.1367  0.3565
 9633TIP3    H153094   1.698   4.824   2.241  0.1257  0.4705 -0.5448
 9633TIP3    H253095   1.749   4.967   2.251  1.1689 -0.0234  2.0829
 9634TIP3   OH253096   2.044   2.121   0.736 -0.4712  0.2739  0.3273
 9634TIP3    H153097   1.966   2.074   0.762 -0.5256  0.6094  0.7738
 9634TIP3    H253098   2.053   2.191   0.800  0.5304 -0.1178  0.6482
 9635TIP3   OH253099   4.738   0.105   2.837  0.8271 -0.0274  0.3279
 9635TIP3    H153100   4.717   0.152   2.756  1.6132  0.7857  0.5709
 9635TIP3    H253101   4.766   0.174   2.897 -0.8021 -0.4784  1.6789
 9636TIP3   OH253102   3.312   1.565   2.775  0.2773  0.0941  0.4953
 9636TIP3    H153103   3.335   1.598   2.689  0.2108  2.6387  1.3725
 9636TIP3    H253104   3.216   1.561   2.776  0.1898  1.6772  0.9479
 9637TIP3   OH253105   5.619   3.750   2.739  0.1300 -0.5498 -0.6656
 9637TIP3    H153106   5.655   3.838   2.740  1.8421 -1.1982  0.4716
 9637TIP3    H253107   5.596   3.732   2.830 -1.6318 -0.7489 -1.1227
 9638TIP3   OH253108   3.592   5.322   1.195  0.4079 -0.4442 -0.2265
 9638TIP3    H153109   3.506   5.351   1.164  1.2655  1.4104 -1.0040
 9638TIP3    H253110   3.614   5.248   1.137  0.0897  0.2021 -1.2050
 9639TIP3   OH253111   5.544   5.765   3.164  0.4369  0.0749  0.2417
 9639TIP3    H153112   5.520   5.673   3.165  1.6439 -0.2525  0.5211
 9639TIP3    H253113   5.624   5.769   3.112 -0.0826  1.1092 -0.5353
 9640TIP3   OH253114   2.472   2.985   2.000 -0.4371 -0.2487 -0.0588
 9640TIP3    H153115   2.484   2.991   1.905  2.5920  1.4659  0.3065
 9640TIP3    H253116   2.507   2.899   2.023  1.0724  0.2769 -0.2883
 9641TIP3   OH253117   2.673   4.437   2.123  0.2114  0.5127  0.8858
 9641TIP3    H153118   2.735   4.447   2.051 -0.2704  0.8304  0.5073
 9641TIP3    H253119   2.703   4.360   2.171  0.1449 -0.1121 -0.0567
 9642TIP3   OH253120   4.555   5.666   1.502  0.2946 -0.2427 -0.0090
 9642TIP3    H153121   4.597   5.592   1.458 -0.5081 -0.4284 -0.4882
 9642TIP3    H253122   4.562   5.647   1.595  1.0531 -0.3812 -0.0854
 9643TIP3   OH253123   3.468   3.884   1.054  0.4283 -0.8905 -0.5898
 9643TIP3    H153124   3.373   3.896   1.048  0.5204  0.1955 -0.1709
 9643TIP3    H253125   3.494   3.939   1.129  1.3364 -1.4767 -0.4619
 9644TIP3   OH253126   5.441   6.017   1.991  0.0334 -0.1667  0.3105
 9644TIP3    H153127   5.380   6.049   1.924  1.6475  1.0667 -0.6462
 9644TIP3    H253128   5.498   6.092   2.010  1.2170 -1.2371  1.2081
 9645TIP3   OH253129   3.593   3.665   1.123  0.1101  0.2367 -0.0787
 9645TIP3    H153130   3.577   3.748   1.079 -0.9810 -1.5632 -3.4910
 9645TIP3    H253131   3.546   3.671   1.206 -0.7729  2.6119 -0.6921
 9646TIP3   OH253132   6.189   6.434   1.380 -0.1766 -0.3459  0.4502
 9646TIP3    H153133   6.230   6.469   1.459  0.8070 -1.0341  0.2650
 9646TIP3    H253134   6.137   6.360   1.410 -0.3057 -0.2167  0.5401
 9647TIP3   OH253135   0.517   5.518   2.655 -0.2455 -0.6833  0.1148
 9647TIP3    H153136   0.442   5.459   2.646  0.6975 -2.0134  0.6275
 9647TIP3    H253137   0.556   5.520   2.567 -1.9384  1.5549 -0.6558
 9648TIP3   OH253138   3.546   0.305   3.253 -0.0253  0.0030 -0.0907
 9648TIP3    H153139   3.470   0.363   3.254  0.8270  1.2025 -1.6401
 9648TIP3    H253140   3.514   0.225   3.294 -1.7457  0.9237  0.4964
 9649TIP3   OH253141   1.416   4.443   2.902 -0.1213 -0.3724 -0.1972
 9649TIP3    H153142   1.389   4.533   2.883  0.9885 -0.2115 -1.1329
 9649TIP3    H253143   1.512   4.447   2.907  0.0291 -1.7004 -1.4075
 9650TIP3   OH253144   3.469   2.784   1.160  0.3218 -0.7905  0.6742
 9650TIP3    H153145   3.528   2.856   1.136 -1.5233  0.1092 -1.5854
 9650TIP3    H253146   3.424   2.815   1.238 -1.4241  1.2675 -1.0061
 9651TIP3   OH253147   0.593   5.513   4.123  0.0789  0.7680 -0.1056
 9651TIP3    H153148   0.591   5.418   4.117  0.4396  0.6047  1.7073
 9651TIP3    H253149   0.682   5.533   4.154 -0.1871  1.6379  0.1177
 9652TIP3   OH253150   1.473   2.360   2.484  0.0943 -0.0726  0.2956
 9652TIP3    H153151   1.396   2.356   2.428 -0.2789 -2.5093  0.9004
 9652TIP3    H253152   1.547   2.360   2.424 -0.3240  0.0096 -0.2286
 9653TIP3   OH253153   2.125   5.751   0.484 -0.0069  0.5324 -0.4364
 9653TIP3    H153154   2.118   5.794   0.399 -0.2157 -1.0327 -1.2540
 9653TIP3    H253155   2.169   5.668   0.465  0.3719  0.3605  1.0689
 9654TIP3   OH253156   1.990   6.185   0.645  0.5137  0.8795 -0.4321
 9654TIP3    H153157   2.070   6.133   0.649 -0.2363 -0.3381 -0.5976
 9654TIP3    H253158   1.956   6.170   0.557 -1.5869 -1.3628  0.6166
 9655TIP3   OH253159   0.872   0.090   3.260  0.6017  0.3848 -0.1196
 9655TIP3    H153160   0.944   0.027   3.253 -1.0813 -1.5121 -1.4040
 9655TIP3    H253161   0.815   0.053   3.327  0.9321  2.0718  1.1705
 9656TIP3   OH253162   3.958   4.832   2.813 -0.2658  0.8612  0.7219
 9656TIP3    H153163   4.026   4.771   2.786 -1.8010 -0.7513  0.3060
 9656TIP3    H253164   4.005   4.901   2.859  1.6039 -0.3402  0.7321
 9657TIP3   OH253165   2.276   0.160   2.739  0.3782  0.2055  0.0643
 9657TIP3    H153166   2.364   0.142   2.772  0.6578  0.2172 -0.6430
 9657TIP3    H253167   2.290   0.185   2.647 -0.4973 -1.4222 -0.5565
 9658TIP3   OH253168   1.031   1.566   3.072 -0.3372 -0.2725  0.0669
 9658TIP3    H153169   1.102   1.511   3.040 -0.1417 -1.5461  2.4885
 9658TIP3    H253170   1.022   1.544   3.164 -0.3318  3.6634  1.2186
 9659TIP3   OH253171   2.565   1.811   1.785 -0.3694 -0.6862  0.3930
 9659TIP3    H153172   2.660   1.804   1.776 -0.4013 -0.9656  0.2573
 9659TIP3    H253173   2.530   1.785   1.700 -0.5445  0.1926  0.1816
 9660TIP3   OH253174   4.203   5.950   1.971  0.1000  0.3761  0.0903
 9660TIP3    H153175   4.262   5.919   1.902  1.3085 -0.2212  1.3437
 9660TIP3    H253176   4.142   5.877   1.985  0.2563  0.2408  0.0758
 9661TIP3   OH253177   2.043   5.811   3.695 -0.9483  0.2814 -0.0458
 9661TIP3    H153178   2.130   5.771   3.692 -0.9923  0.2325 -1.2442
 9661TIP3    H253179   2.003   5.787   3.611 -2.1639  0.2058  0.5277
 9662TIP3   OH253180   0.133   3.054   1.833  0.1844 -0.0622  0.6498
 9662TIP3    H153181   0.216   3.102   1.829  0.2237 -0.0144  1.7628
 9662TIP3    H253182   0.066   3.121   1.823  0.2670 -0.1637 -0.7885
 9663TIP3   OH253183   2.849   3.921   2.340  0.0778  0.4312 -0.1457
 9663TIP3    H153184   2.935   3.927   2.298 -0.2317  1.6995 -0.6288
 9663TIP3    H253185   2.802   3.855   2.288  0.9666 -0.7864  0.5418
 9664TIP3   OH253186   0.310   6.546   2.982  0.6103  0.3624 -0.3044
 9664TIP3    H153187   0.356   6.544   2.899  2.1513 -1.1466  0.5347
 9664TIP3    H253188   0.371   6.587   3.043  0.1516 -0.0231  0.4383
 9665TIP3   OH253189   0.279   5.380   2.608 -0.1179  0.2341  0.4744
 9665TIP3    H153190   0.194   5.418   2.629 -0.6061 -0.2665 -0.4927
 9665TIP3    H253191   0.258   5.297   2.563  0.6037  2.2487 -4.2413
 9666TIP3   OH253192   5.621   4.789   2.478  0.0541  0.2996  0.2075
 9666TIP3    H153193   5.638   4.820   2.567  1.2085 -0.8391  0.4052
 9666TIP3    H253194   5.672   4.708   2.470 -0.6544 -0.0369 -1.2287
 9667TIP3   OH253195   5.492   5.094   3.042  0.4132  0.3269 -0.1830
 9667TIP3    H153196   5.433   5.022   3.020  1.9043 -0.6707 -1.0252
 9667TIP3    H253197   5.435   5.158   3.085 -1.3129 -0.5286 -1.0674
 9668TIP3   OH253198   4.785   5.790   2.391 -0.5810  0.0635 -0.5539
 9668TIP3    H153199   4.733   5.739   2.328 -0.4774 -0.3796 -0.2880
 9668TIP3    H253200   4.768   5.881   2.368 -0.9682 -0.0871 -0.8808
 9669TIP3   OH253201   6.287   3.168   1.039  0.0491  0.2808 -1.1428
 9669TIP3    H153202   6.211   3.202   0.991 -1.2294 -0.4361  0.2821
 9669TIP3    H253203   6.328   3.107   0.978  1.2079  2.7575 -2.9851
 9670TIP3   OH253204   0.565   6.421   4.037  0.4919 -0.0543  0.3360
 9670TIP3    H153205   0.483   6.469   4.049 -0.2787 -1.2716  0.1492
 9670TIP3    H253206   0.543   6.331   4.058  0.6988 -1.1853 -3.4694
 9671TIP3   OH253207   0.781   0.199   4.243  0.4377 -0.0256 -0.5544
 9671TIP3    H153208   0.774   0.269   4.179 -1.3054  1.1520  0.8178
 9671TIP3    H253209   0.781   0.244   4.328  0.4692 -1.6175  0.3347
 9672TIP3   OH253210   5.333   3.559   3.252 -0.2504  0.1677  0.0799
 9672TIP3    H153211   5.405   3.497   3.249 -0.9547 -0.6251 -1.4249
 9672TIP3    H253212   5.277   3.528   3.323  0.1021 -0.0897  0.2502
 9673TIP3   OH253213   5.171   0.036   1.749  0.0872 -0.1336  0.3776
 9673TIP3    H153214   5.248   0.065   1.798 -0.4503  3.9871 -0.7976
 9673TIP3    H253215   5.198   0.041   1.658 -1.1375  0.0082  0.0066
 9674TIP3   OH253216   5.796   1.019   1.813  0.1818 -0.0580 -0.1235
 9674TIP3    H153217   5.730   1.079   1.847 -0.0961 -0.9156  0.9038
 9674TIP3    H253218   5.855   1.074   1.760 -0.8698  0.8501 -0.3698
 9675TIP3   OH253219   0.916   4.638   1.247  0.6018  0.1127  0.3904
 9675TIP3    H153220   0.878   4.688   1.175  0.9242 -2.0131 -1.3639
 9675TIP3    H253221   0.841   4.602   1.294  0.4023  0.6963  0.5283
 9676TIP3   OH253222   3.948   2.652   2.215  0.0799  0.1541 -0.0576
 9676TIP3    H153223   3.954   2.690   2.127  1.3807  0.0855 -0.0138
 9676TIP3    H253224   3.855   2.632   2.226 -0.1679  0.5706 -1.2462
 9677TIP3   OH253225   0.139   2.402   0.727  0.1704  0.2343  0.4982
 9677TIP3    H153226   0.121   2.390   0.634  0.4976  0.1342  0.4464
 9677TIP3    H253227   0.233   2.420   0.731 -0.0955  1.7190  0.6649
 9678TIP3   OH253228   2.557   0.087   2.780  0.2716  0.0724  0.2642
 9678TIP3    H153229   2.647   0.055   2.772 -0.1254 -1.3615  1.0102
 9678TIP3    H253230   2.506   0.025   2.728 -0.2331  1.2454 -0.6750
 9679TIP3   OH253231   1.072   4.441   2.244 -0.0163 -0.2449  0.4180
 9679TIP3    H153232   1.135   4.513   2.237 -1.9926  1.4214 -1.5216
 9679TIP3    H253233   1.103   4.375   2.183  1.3481 -0.7386  1.5878
 9680TIP3   OH253234   5.766   3.236   2.721  0.2158  0.2599 -0.4419
 9680TIP3    H153235   5.728   3.321   2.696 -1.2263 -0.2026  0.0685
 9680TIP3    H253236   5.748   3.228   2.814 -0.5405 -1.0120 -0.6709
 9681TIP3   OH253237   3.507   1.022   0.903  0.1386  0.1584  0.9866
 9681TIP3    H153238   3.448   0.968   0.849  0.0736  1.3235 -0.1511
 9681TIP3    H253239   3.593   1.009   0.864  0.2671  0.2006  1.2578
 9682TIP3   OH253240   6.355   6.180   3.079 -0.5065  0.5274  0.1855
 9682TIP3    H153241   6.399   6.259   3.051  0.4229  0.4992  1.4626
 9682TIP3    H253242   6.322   6.140   2.998  0.7308  1.1925 -0.6784
 9683TIP3   OH253243   4.770   6.465   3.749  0.5559  0.2732  0.6121
 9683TIP3    H153244   4.721   6.540   3.783  0.9215  0.3972  0.8686
 9683TIP3    H253245   4.733   6.389   3.794  1.2950  0.4707  1.6031
 9684TIP3   OH253246   3.203   2.480   2.097  0.1220 -0.4348 -0.2290
 9684TIP3    H153247   3.209   2.464   2.191  0.3043  0.1008 -0.1466
 9684TIP3    H253248   3.111   2.506   2.083 -0.2049 -1.6380 -0.3823
 9685TIP3   OH253249   4.200   0.581   3.210 -0.3246  0.3772  0.1154
 9685TIP3    H153250   4.124   0.529   3.182 -1.0529  1.1650  0.5906
 9685TIP3    H253251   4.214   0.643   3.139 -0.1948  0.3140  0.0847
 9686TIP3   OH253252   1.058   1.951   2.182  0.3342  0.4345  0.5187
 9686TIP3    H153253   1.053   2.032   2.131  1.8238 -0.3090 -0.9288
 9686TIP3    H253254   1.146   1.952   2.219  0.5202 -0.6784  0.1461
 9687TIP3   OH253255   6.664   2.942   1.166 -0.9985  0.0667  0.2309
 9687TIP3    H153256   6.628   2.872   1.111 -0.2832  0.6627 -1.0279
 9687TIP3    H253257   6.758   2.938   1.150 -1.1192  3.0076 -1.9988
 9688TIP3   OH253258   1.246   3.932   0.796 -0.1528  0.3364 -0.0340
 9688TIP3    H153259   1.151   3.919   0.793 -0.1739  0.5965 -1.1823
 9688TIP3    H253260   1.258   4.024   0.771  0.4512 -0.0901 -1.4315
 9689TIP3   OH253261   6.554   0.491   3.144  0.7337  0.0133 -0.2481
 9689TIP3    H153262   6.467   0.505   3.181  0.1212 -0.6152 -1.4058
 9689TIP3    H253263   6.613   0.496   3.220 -0.1857  1.4447  0.4045
 9690TIP3   OH253264   3.639   1.914   0.419 -0.1209  0.0794 -0.1736
 9690TIP3    H153265   3.551   1.877   0.427 -0.2559 -0.4772 -2.9968
 9690TIP3    H253266   3.697   1.844   0.449 -0.5742  0.7210  2.4372
 9691TIP3   OH253267   2.914   4.223   2.854 -0.4812 -0.3191  0.2176
 9691TIP3    H153268   3.004   4.254   2.864 -0.2970 -0.4411 -0.9552
 9691TIP3    H253269   2.915   4.135   2.891 -0.5158  0.2359  1.6420
 9692TIP3   OH253270   3.143   0.354   3.025 -0.3343 -0.2108 -0.9918
 9692TIP3    H153271   3.084   0.397   3.086  1.2775  0.1241  0.4050
 9692TIP3    H253272   3.088   0.290   2.979 -1.5971 -0.5519  0.8911
 9693TIP3   OH253273   4.628   4.008   1.183 -0.2465  0.1657 -0.2048
 9693TIP3    H153274   4.587   4.025   1.268 -0.0957  0.3122 -0.1607
 9693TIP3    H253275   4.667   3.921   1.193  0.2395  0.4074  0.0619
 9694TIP3   OH253276   4.345   2.030   0.458  0.0539 -0.1717  0.3856
 9694TIP3    H153277   4.342   2.092   0.385  1.6114  0.8225  1.0974
 9694TIP3    H253278   4.370   2.084   0.533  0.7384 -1.5359  1.1703
 9695TIP3   OH253279   5.407   3.118   2.949  0.0842 -0.3894 -0.4981
 9695TIP3    H153280   5.371   3.151   3.031  0.6483 -1.8284  0.3585
 9695TIP3    H253281   5.478   3.179   2.928 -0.1746  0.0876 -0.0235
 9696TIP3   OH253282   3.887   6.095   1.521  0.0348 -0.2437  0.0144
 9696TIP3    H153283   3.868   6.187   1.537 -0.6903 -0.1411 -1.3003
 9696TIP3    H253284   3.937   6.067   1.598 -1.1460  0.8095  1.2168
 9697TIP3   OH253285   3.025   0.467   2.140 -0.1542 -0.0138  0.1172
 9697TIP3    H153286   3.076   0.454   2.060  0.5205 -1.4466  0.7369
 9697TIP3    H253287   3.091   0.474   2.209 -0.7496  0.0652  0.6867
 9698TIP3   OH253288   1.588   1.982   0.946 -0.0609  0.1836 -0.2775
 9698TIP3    H153289   1.510   1.985   1.001 -0.5840 -0.5281 -0.9734
 9698TIP3    H253290   1.648   1.925   0.993 -0.1421  0.3260  0.0059
 9699TIP3   OH253291   5.192   3.662   2.938 -0.6571 -0.0070 -0.0042
 9699TIP3    H153292   5.097   3.652   2.943 -0.7782 -0.8237 -2.6100
 9699TIP3    H253293   5.227   3.573   2.945 -0.3261 -0.0731 -1.9587
 9700TIP3   OH253294   6.259   5.257   2.749  0.0739  0.2064 -0.0922
 9700TIP3    H153295   6.235   5.329   2.690 -2.4442  0.9682  1.6764
 9700TIP3    H253296   6.175   5.217   2.773  1.1413 -1.1480  1.6034
 9701TIP3   OH253297   0.109   5.173   1.962 -0.3282  0.5223  0.0568
 9701TIP3    H153298   0.180   5.110   1.949  1.1435  1.5129  2.5787
 9701TIP3    H253299   0.065   5.144   2.042 -1.3591  1.1961 -0.2435
 9702TIP3   OH253300   3.977   5.524   1.857  0.0281 -0.2681 -0.8888
 9702TIP3    H153301   4.045   5.462   1.884  1.6262  1.2356 -1.3436
 9702TIP3    H253302   4.001   5.549   1.768 -1.3441  0.0331 -1.1923
 9703TIP3   OH253303   1.995   0.812   2.400  0.3690  0.6944  0.3324
 9703TIP3    H153304   1.962   0.886   2.349  0.2926 -0.3712 -1.2535
 9703TIP3    H253305   1.918   0.758   2.417  0.6018  0.3951  0.4444
 9704TIP3   OH253306   2.318   3.681   2.348 -0.0184  0.4026 -0.4141
 9704TIP3    H153307   2.338   3.759   2.400 -3.8472  0.5931  1.0980
 9704TIP3    H253308   2.246   3.707   2.292  0.8180 -1.2207 -2.3790
 9705TIP3   OH253309   5.649   0.471   0.861  0.0561  1.1559  0.5704
 9705TIP3    H153310   5.635   0.517   0.778 -0.8764  0.8344  0.5351
 9705TIP3    H253311   5.603   0.524   0.926 -1.7477 -0.0982  0.4038
 9706TIP3   OH253312   1.299   4.088   2.478  0.0423  0.1402 -0.0401
 9706TIP3    H153313   1.290   4.140   2.398 -1.5056  0.8096  0.5436
 9706TIP3    H253314   1.239   4.015   2.466  2.5028 -1.8593 -1.0382
 9707TIP3   OH253315   5.553   0.265   1.506  0.2618  0.3631  0.1029
 9707TIP3    H153316   5.465   0.298   1.488  0.2035 -1.1246 -3.0841
 9707TIP3    H253317   5.593   0.330   1.563 -3.0644  0.7607  2.2330
 9708TIP3   OH253318   3.834   1.006   2.664  0.3476 -0.0786  0.4559
 9708TIP3    H153319   3.800   1.014   2.753  0.2294  0.5749  0.3605
 9708TIP3    H253320   3.756   0.999   2.609  0.3696  0.7043  0.3035
 9709TIP3   OH253321   0.802   3.033   2.331 -0.7318  0.4357 -0.0400
 9709TIP3    H153322   0.826   2.966   2.395 -1.7705  0.0095 -0.0762
 9709TIP3    H253323   0.849   3.008   2.251 -0.1764  0.4324  0.2847
 9710TIP3   OH253324   3.285   5.615   4.637  0.1032  0.1330  0.1006
 9710TIP3    H153325   3.219   5.684   4.651  2.0723  2.0863  0.3029
 9710TIP3    H253326   3.314   5.592   4.725 -0.9185 -1.4598  0.0770
 9711TIP3   OH253327   1.045   6.326   2.567 -0.1561 -0.2424 -0.3137
 9711TIP3    H153328   0.981   6.292   2.630  0.2733 -0.2703  0.1103
 9711TIP3    H253329   1.021   6.286   2.483 -0.1082 -1.0023  0.0360
 9712TIP3   OH253330   2.328   4.511   1.165 -0.1185 -0.1074 -0.4611
 9712TIP3    H153331   2.260   4.509   1.097  2.1811  1.0098 -2.9786
 9712TIP3    H253332   2.335   4.603   1.188  0.8106 -0.1571 -0.5337
 9713TIP3   OH253333   0.589   6.635   2.180 -0.0039  0.1136 -0.1589
 9713TIP3    H153334   0.508   6.608   2.224  1.0652  0.6414  2.2824
 9713TIP3    H253335   0.597   6.728   2.200  2.4722 -0.4377  1.9818
 9714TIP3   OH253336   0.307   5.452   1.827 -0.2909 -0.4727 -0.0044
 9714TIP3    H153337   0.283   5.376   1.775 -2.5209  1.1604 -1.5209
 9714TIP3    H253338   0.226   5.478   1.871  0.1234  1.6625 -0.4202
 9715TIP3   OH253339   5.096   3.312   3.247  0.1531 -0.0347 -0.0707
 9715TIP3    H153340   5.169   3.251   3.251  0.7889  0.5120 -2.1878
 9715TIP3    H253341   5.097   3.357   3.331  2.2831 -0.0392 -0.0452
 9716TIP3   OH253342   0.980   2.244   3.172 -0.0912  0.0615  0.3877
 9716TIP3    H153343   0.947   2.211   3.256 -0.5345  0.7346  0.4881
 9716TIP3    H253344   0.904   2.289   3.134  0.0741 -0.3476 -0.4316
 9717TIP3   OH253345   1.533   3.047   2.953  0.4878  0.3330 -0.2116
 9717TIP3    H153346   1.506   2.976   2.895  0.9559  0.9142 -1.1476
 9717TIP3    H253347   1.452   3.096   2.969  0.2992 -0.0006 -0.1121
 9718TIP3   OH253348   2.944   6.432   3.967 -0.3623  0.2126  0.1949
 9718TIP3    H153349   2.963   6.354   4.020  0.0336  0.2316  0.0896
 9718TIP3    H253350   2.973   6.408   3.879 -0.9814  0.1955 -0.0073
 9719TIP3   OH253351   4.877   5.543   1.235 -1.0351 -0.1890 -0.1796
 9719TIP3    H153352   4.898   5.567   1.325 -0.7710  0.7014 -0.4606
 9719TIP3    H253353   4.836   5.457   1.241 -1.7601  0.2183  0.8710
 9720TIP3   OH253354   2.391   2.075   0.514 -0.4312  0.3532 -0.6516
 9720TIP3    H153355   2.452   2.102   0.446  0.8892  2.0034  1.0916
 9720TIP3    H253356   2.317   2.135   0.506 -0.5359  0.1787 -0.9863
 9721TIP3   OH253357   2.416   4.603   4.451  0.1556  0.4589 -0.0504
 9721TIP3    H153358   2.497   4.603   4.402 -0.2913 -0.0530 -0.8065
 9721TIP3    H253359   2.353   4.647   4.394 -0.5521 -0.7894 -0.2857
 9722TIP3   OH253360   1.095   3.018   3.583 -0.0310 -0.5594 -0.4967
 9722TIP3    H153361   1.045   2.986   3.658  1.2311  2.5107  1.8799
 9722TIP3    H253362   1.040   3.085   3.544  0.3742 -0.3455 -0.7108
 9723TIP3   OH253363   4.075   1.341   3.504  0.3796 -0.6185 -0.2506
 9723TIP3    H153364   4.010   1.297   3.449 -0.8196 -1.1711  1.5112
 9723TIP3    H253365   4.146   1.277   3.513 -0.1542 -1.1688  0.1402
 9724TIP3   OH253366   3.243   3.166   2.671 -0.0663 -0.4338  0.8123
 9724TIP3    H153367   3.264   3.211   2.753  0.9657 -0.4851  0.5935
 9724TIP3    H253368   3.153   3.134   2.683  0.1677 -0.6783  2.0294
 9725TIP3   OH253369   3.397   6.665   1.109  0.3041 -0.3272 -0.0972
 9725TIP3    H153370   3.367   6.607   1.040 -0.5587 -0.2304  0.1889
 9725TIP3    H253371   3.318   6.691   1.156  0.7668  0.4109  0.3031
 9726TIP3   OH253372   5.524   6.578   0.912 -0.3723 -0.1923  0.1628
 9726TIP3    H153373   5.536   6.533   0.996  1.4258 -0.4042 -0.1881
 9726TIP3    H253374   5.472   6.656   0.935  0.4583 -0.0132  1.5513
 9727TIP3   OH253375   1.615   3.524   0.574 -0.2038 -0.1233  0.0868
 9727TIP3    H153376   1.640   3.542   0.665  0.0708  0.2313 -0.0567
 9727TIP3    H253377   1.674   3.454   0.546 -1.0780 -1.0742  0.5532
 9728TIP3   OH253378   2.198   4.136   2.832 -0.7502 -0.2386 -0.4833
 9728TIP3    H153379   2.216   4.217   2.880  1.0137  0.6828 -2.5690
 9728TIP3    H253380   2.111   4.149   2.795 -1.1376  0.0111  0.4799
 9729TIP3   OH253381   3.808   2.051   1.357 -0.1388 -0.1899 -0.0399
 9729TIP3    H153382   3.763   2.090   1.282  0.4300 -0.2080 -0.3979
 9729TIP3    H253383   3.860   2.122   1.394 -0.3704 -0.1970  0.3005
 9730TIP3   OH253384   2.845   4.187   2.274  0.2553  0.1063  0.0756
 9730TIP3    H153385   2.931   4.210   2.240 -0.2788  1.5064 -0.3903
 9730TIP3    H253386   2.856   4.098   2.308  1.9978  0.4310  0.4666
 9731TIP3   OH253387   1.117   5.776   0.537 -0.8888 -0.6170 -0.0338
 9731TIP3    H153388   1.203   5.753   0.570 -0.6527  1.2002  0.7993
 9731TIP3    H253389   1.056   5.720   0.586 -0.2339 -1.2257  0.0848
 9732TIP3   OH253390   2.916   5.574   3.308  0.3055 -0.3289 -0.1451
 9732TIP3    H153391   2.848   5.550   3.370 -0.1510  1.8980  0.3013
 9732TIP3    H253392   2.875   5.567   3.222 -0.1126 -0.1732  0.0422
 9733TIP3   OH253393   0.385   2.428   1.954 -0.2640  0.0356 -0.1380
 9733TIP3    H153394   0.343   2.376   1.885 -0.1415 -0.4741  0.1627
 9733TIP3    H253395   0.315   2.446   2.016 -0.5882  1.2765 -0.8276
 9734TIP3   OH253396   4.483   5.913   3.596  0.1124  0.0795 -0.0089
 9734TIP3    H153397   4.487   5.966   3.676 -0.3664  0.8328 -0.4708
 9734TIP3    H253398   4.536   5.960   3.533 -1.4304  0.7954 -0.8427
 9735TIP3   OH253399   3.924   0.336   1.467  0.1323  0.2859  0.0158
 9735TIP3    H153400   3.846   0.310   1.419  0.0350  0.7669 -0.0970
 9735TIP3    H253401   3.933   0.271   1.537  0.1483 -0.2811 -0.5154
 9736TIP3   OH253402   2.268   2.921   2.740 -0.1415 -0.3394 -0.0650
 9736TIP3    H153403   2.311   2.975   2.674 -2.6225  1.2037 -0.5507
 9736TIP3    H253404   2.289   2.963   2.823  0.9791 -0.8576 -0.0700
 9737TIP3   OH253405   0.922   4.413   3.680 -0.1353 -0.2301 -0.2501
 9737TIP3    H153406   0.859   4.386   3.747  0.6012  0.4493  0.7259
 9737TIP3    H253407   1.006   4.382   3.711  0.5981  2.2000  0.4105
 9738TIP3   OH253408   1.092   5.701   2.411  0.0451  0.2517  0.1540
 9738TIP3    H153409   1.079   5.660   2.496 -1.9676 -0.3304 -0.3801
 9738TIP3    H253410   1.082   5.629   2.348  1.8091  0.6078 -0.6162
 9739TIP3   OH253411   1.423   3.965   1.748  0.1363 -0.3446 -0.3831
 9739TIP3    H153412   1.412   3.887   1.802  1.3460 -0.8146 -0.7662
 9739TIP3    H253413   1.508   3.953   1.707 -1.2229 -0.6414 -3.3846
 9740TIP3   OH253414   0.740   6.184   3.667  0.2258  0.2497 -0.1557
 9740TIP3    H153415   0.652   6.171   3.701 -0.8335  0.2657 -2.6391
 9740TIP3    H253416   0.769   6.097   3.640  0.3232  0.4620 -0.7535
 9741TIP3   OH253417   1.779   4.952   3.084 -0.1368 -0.3491  0.3277
 9741TIP3    H153418   1.830   4.908   3.017  0.7910  0.6195  0.3771
 9741TIP3    H253419   1.723   4.883   3.121  0.0235 -1.0898 -0.7685
 9742TIP3   OH253420   2.176   6.544   3.777  0.5260  0.0645  0.0859
 9742TIP3    H153421   2.256   6.597   3.777  1.1373 -0.8166 -1.1565
 9742TIP3    H253422   2.105   6.608   3.782  1.2126  1.1393 -2.4387
 9743TIP3   OH253423   2.525   0.329   1.953  0.0730 -0.4622  0.8929
 9743TIP3    H153424   2.523   0.413   1.909 -0.8427 -0.5989  0.6434
 9743TIP3    H253425   2.497   0.348   2.043 -0.9302 -0.5954  0.6282
 9744TIP3   OH253426   3.895   3.792   3.814  0.0815 -0.1376  0.2516
 9744TIP3    H153427   3.883   3.717   3.872 -0.2396 -0.3781 -0.1171
 9744TIP3    H253428   3.872   3.759   3.727 -0.6251  0.5319  0.1690
 9745TIP3   OH253429   1.150   3.238   2.116 -0.3701  0.0299  0.5411
 9745TIP3    H153430   1.112   3.151   2.120 -3.3772  1.2264  0.2815
 9745TIP3    H253431   1.090   3.289   2.062  0.9570  2.4182  1.1546
 9746TIP3   OH253432   1.945   5.223   0.684 -0.0571 -0.1936  0.0178
 9746TIP3    H153433   1.994   5.148   0.719 -0.4127 -0.8191 -0.8012
 9746TIP3    H253434   1.857   5.189   0.670 -0.1957  0.3557 -0.4619
 9747TIP3   OH253435   6.002   3.141   3.377  0.4853  0.1068 -0.2837
 9747TIP3    H153436   5.937   3.074   3.398  1.6712 -0.6095  1.2246
 9747TIP3    H253437   5.951   3.221   3.366 -0.8958 -0.8853 -1.5770
 9748TIP3   OH253438   0.750   2.022   3.300  0.4424  0.3230  0.1645
 9748TIP3    H153439   0.759   1.928   3.315  0.8513  0.3520  0.1295
 9748TIP3    H253440   0.827   2.060   3.343  0.7481  0.5546 -0.5723
 9749TIP3   OH253441   6.359   0.664   0.521 -0.3479  0.6149 -0.1551
 9749TIP3    H153442   6.331   0.726   0.589  0.6849 -0.8135  1.6872
 9749TIP3    H253443   6.418   0.715   0.465 -0.8031  1.7177  0.3415
 9750TIP3   OH253444   6.641   3.617   1.090 -0.0321 -0.1486 -0.1118
 9750TIP3    H153445   6.726   3.648   1.122  0.0848 -1.2591  0.7003
 9750TIP3    H253446   6.629   3.532   1.132 -2.1021  0.5063  0.7420
 9751TIP3   OH253447   2.996   1.527   1.891 -0.0347 -0.0265  0.5159
 9751TIP3    H153448   3.023   1.473   1.818 -0.3069  0.1368  0.2938
 9751TIP3    H253449   2.973   1.465   1.960  0.2175 -0.1794  0.4627
 9752TIP3   OH253450   4.091   0.010   0.763 -0.3316  0.0746 -0.2690
 9752TIP3    H153451   4.082   0.106   0.762 -1.3710 -0.0036 -0.0006
 9752TIP3    H253452   4.064  -0.015   0.852  2.0871 -0.3029  0.4213
 9753TIP3   OH253453   2.072   0.795   1.896  0.8819 -0.1938 -0.2448
 9753TIP3    H153454   1.997   0.853   1.905  0.2825 -1.0412  0.3450
 9753TIP3    H253455   2.120   0.830   1.821 -1.1355 -0.7777 -1.8981
 9754TIP3   OH253456   6.269   4.391   1.525 -0.4400  0.0071 -0.7593
 9754TIP3    H153457   6.209   4.464   1.506  0.0127  0.3313 -0.9468
 9754TIP3    H253458   6.212   4.314   1.527 -0.8979  0.3395 -0.7279
 9755TIP3   OH253459   4.097   0.317   0.844 -0.7204 -0.0772  0.5161
 9755TIP3    H153460   4.113   0.392   0.901 -1.1350  1.3145 -1.1132
 9755TIP3    H253461   4.094   0.354   0.756 -3.7105 -1.5700 -0.1348
 9756TIP3   OH253462   3.778   5.497   4.172  0.3462 -0.2757  0.6777
 9756TIP3    H153463   3.720   5.435   4.216 -2.0561  2.5612  1.8420
 9756TIP3    H253464   3.857   5.499   4.226 -0.2602 -1.0425  1.6203
 9757TIP3   OH253465   0.123   0.653   1.293  0.1709 -0.2214 -0.3364
 9757TIP3    H153466   0.195   0.592   1.313 -0.3566 -0.6855  0.1775
 9757TIP3    H253467   0.116   0.708   1.371  1.0248  0.8971 -1.0230
 9758TIP3   OH253468   6.095   6.367   1.808  0.2027 -0.1987 -0.1481
 9758TIP3    H153469   6.004   6.339   1.815  0.4223 -1.2661 -1.2487
 9758TIP3    H253470   6.145   6.297   1.852  0.6191 -0.5946 -1.2234
 9759TIP3   OH253471   5.618   0.487   2.299 -0.3020  0.5570 -0.5945
 9759TIP3    H153472   5.572   0.562   2.261 -0.4608 -0.3896 -2.4039
 9759TIP3    H253473   5.708   0.518   2.310 -0.4761  1.1812 -0.8434
 9760TIP3   OH253474   6.340   5.483   0.896 -0.0144 -0.1026 -0.2307
 9760TIP3    H153475   6.358   5.488   0.802 -0.9941  0.0452 -0.4249
 9760TIP3    H253476   6.424   5.459   0.936  0.3919 -0.2422 -1.1501
 9761TIP3   OH253477   4.004   1.359   2.406 -0.4691  0.0093 -0.2492
 9761TIP3    H153478   4.057   1.414   2.464 -0.5761 -0.8706  0.6997
 9761TIP3    H253479   3.958   1.422   2.350  1.8759  0.8021 -1.4386
 9762TIP3   OH253480   2.338   4.836   1.843  0.1115 -0.5648  0.1341
 9762TIP3    H153481   2.346   4.832   1.747 -0.1858 -1.4280  0.1306
 9762TIP3    H253482   2.428   4.834   1.875  0.1963 -1.1654 -0.1175
 9763TIP3   OH253483   4.577   4.082   1.887 -0.3740  0.0385 -0.2506
 9763TIP3    H153484   4.591   4.053   1.977  0.4754  1.1554 -0.0017
 9763TIP3    H253485   4.630   4.161   1.879 -0.4856 -0.0132 -1.7208
 9764TIP3   OH253486   2.267   4.382   3.673 -0.0650  0.2519  0.1353
 9764TIP3    H153487   2.216   4.447   3.723  0.9846  0.2468  1.2501
 9764TIP3    H253488   2.247   4.298   3.715 -2.3851 -0.4115 -2.0678
 9765TIP3   OH253489   0.596   1.118   2.665  0.2960  0.0338 -0.0844
 9765TIP3    H153490   0.549   1.040   2.695 -1.0067  0.1945 -1.5822
 9765TIP3    H253491   0.539   1.191   2.689  1.1805  0.4853  0.6854
 9766TIP3   OH253492   6.293   4.955   3.640 -0.1353 -0.4226 -0.3140
 9766TIP3    H153493   6.299   5.043   3.601 -0.7618 -0.7038 -1.0650
 9766TIP3    H253494   6.276   4.897   3.566  0.2236 -1.1798  0.1861
 9767TIP3   OH253495   0.905   5.023   3.426  0.5555 -0.1085  0.0506
 9767TIP3    H153496   0.908   4.989   3.515  3.4637  0.8133  0.4168
 9767TIP3    H253497   0.855   5.104   3.433  0.7509 -0.0506  0.8795
 9768TIP3   OH253498   3.686   5.570   2.888 -0.2381  0.0391  0.1369
 9768TIP3    H153499   3.749   5.618   2.834  1.0510 -2.2975 -0.5899
 9768TIP3    H253500   3.695   5.479   2.860 -1.2236 -0.9465  2.6893
 9769TIP3   OH253501   0.149   1.832   1.903  0.3219  0.4577  0.1712
 9769TIP3    H153502   0.120   1.762   1.845 -0.7425  1.5441 -0.6526
 9769TIP3    H253503   0.153   1.791   1.989 -1.3624 -0.3721 -0.0952
 9770TIP3   OH253504   4.119   6.162   1.696  0.2517 -0.1447 -0.2248
 9770TIP3    H153505   4.206   6.200   1.707  0.0328  0.7210 -1.3076
 9770TIP3    H253506   4.135   6.074   1.663  0.7389 -0.6078  1.1813
 9771TIP3   OH253507   1.786   0.100   0.704 -0.2413 -0.4521  0.4312
 9771TIP3    H153508   1.731   0.024   0.689 -0.1564 -0.6749  1.1966
 9771TIP3    H253509   1.752   0.167   0.644 -1.8438 -0.3362  1.4173
 9772TIP3   OH253510   0.807   4.806   2.281  0.6831 -0.1128  0.0504
 9772TIP3    H153511   0.892   4.802   2.237  0.2553  0.2198 -0.8285
 9772TIP3    H253512   0.810   4.734   2.345  2.5801  1.4393  1.8334
 9773TIP3   OH253513   1.236   1.355   2.329  0.6172 -0.0739 -0.8936
 9773TIP3    H153514   1.301   1.320   2.269 -0.4596  0.2545 -2.3098
 9773TIP3    H253515   1.170   1.286   2.337  0.4754  0.0993 -0.5088
 9774TIP3   OH253516   1.395   1.572   3.307 -0.3236 -0.1706 -0.5417
 9774TIP3    H153517   1.367   1.646   3.253  0.8131  1.1059  0.5617
 9774TIP3    H253518   1.485   1.592   3.332  0.3769 -2.4152 -0.9965
 9775TIP3   OH253519   6.135   0.253   0.929  0.7912 -0.6937  0.7389
 9775TIP3    H153520   6.171   0.291   0.849  1.6536 -1.2624  0.8463
 9775TIP3    H253521   6.040   0.263   0.920  0.9707  1.5433  0.7986
 9776TIP3   OH253522   4.489   2.331   3.497 -0.0484 -0.4240  0.8104
 9776TIP3    H153523   4.481   2.422   3.469 -1.4022 -0.6053  0.5095
 9776TIP3    H253524   4.548   2.333   3.572  0.3108  0.6353  0.5101
 9777TIP3   OH253525   3.960   2.322   1.166  0.0312 -0.1191  0.0698
 9777TIP3    H153526   3.870   2.317   1.199  0.0125 -0.4194 -0.0220
 9777TIP3    H253527   4.009   2.367   1.235 -0.0648 -0.4957  0.3864
 9778TIP3   OH253528   6.406   2.610   2.126 -0.2277  0.3426  0.5201
 9778TIP3    H153529   6.425   2.601   2.219  0.9787 -1.0678  0.1906
 9778TIP3    H253530   6.443   2.530   2.087 -1.5378  0.4615 -1.0432
 9779TIP3   OH253531   4.446   4.974   2.290  0.2908  0.0355 -0.2126
 9779TIP3    H153532   4.396   4.895   2.312  0.2366 -0.0369 -0.5939
 9779TIP3    H253533   4.482   5.003   2.374 -0.0612 -0.1378  0.0013
 9780TIP3   OH253534   4.535   0.253   1.532  0.1511 -0.1971  0.7662
 9780TIP3    H153535   4.554   0.343   1.559  0.1007 -0.2007  0.8138
 9780TIP3    H253536   4.613   0.204   1.557  0.2456 -0.1364  0.5908
 9781TIP3   OH253537   3.292   0.390   1.738  0.0969 -0.1885  0.5101
 9781TIP3    H153538   3.344   0.389   1.658 -0.4420  0.2541  0.1430
 9781TIP3    H253539   3.328   0.319   1.792  0.6111 -0.3385 -0.0255
 9782TIP3   OH253540   6.496   3.889   1.091  0.1958  0.1272 -0.2378
 9782TIP3    H153541   6.550   3.824   1.136 -0.3081 -1.0805 -1.3043
 9782TIP3    H253542   6.557   3.960   1.070  0.7171  0.1160  1.1210
 9783TIP3   OH253543   6.041   1.228   1.293  0.2603  0.1820  0.1802
 9783TIP3    H153544   6.012   1.320   1.292 -0.5562 -0.0455  1.0318
 9783TIP3    H253545   6.029   1.198   1.204 -1.8764  0.2062  0.4053
 9784TIP3   OH253546   2.203   2.502   0.919 -0.0247  0.3502  0.0285
 9784TIP3    H153547   2.151   2.423   0.911  0.2683  0.2183 -0.6276
 9784TIP3    H253548   2.191   2.530   1.010  2.7868 -2.4914  1.4851
 9785TIP3   OH253549   2.832   5.845   3.639 -0.0017  0.1021  0.4244
 9785TIP3    H153550   2.803   5.912   3.577  1.5230  0.6645  0.2737
 9785TIP3    H253551   2.919   5.820   3.608  0.2134 -0.6120  1.5452
 9786TIP3   OH253552   6.613   3.886   1.688 -0.3180 -0.1361  0.0926
 9786TIP3    H153553   6.633   3.825   1.617 -2.4041  0.2669 -0.9184
 9786TIP3    H253554   6.639   3.840   1.768  1.8388 -0.6988 -0.8642
 9787TIP3   OH253555   3.416   4.194   2.418 -0.0281 -0.4949 -0.0308
 9787TIP3    H153556   3.493   4.166   2.369 -0.7859  0.1638 -1.6673
 9787TIP3    H253557   3.359   4.117   2.418 -1.2237  0.2750 -2.7266
 9788TIP3   OH253558   3.559   3.924   1.655 -0.4367  0.2429 -0.3622
 9788TIP3    H153559   3.529   3.994   1.596 -0.7728 -1.3498 -2.1669
 9788TIP3    H253560   3.593   3.856   1.596  1.1793 -0.5529  1.3946
 9789TIP3   OH253561   5.731   2.646   0.569  0.6805  0.5684  0.4178
 9789TIP3    H153562   5.737   2.660   0.663 -0.9627 -0.5724  0.7273
 9789TIP3    H253563   5.791   2.574   0.551 -0.0672 -0.1788  0.8484
 9790TIP3   OH253564   4.214   6.260   3.694  0.3158 -0.5564 -0.0298
 9790TIP3    H153565   4.150   6.233   3.760 -0.1734 -1.2591 -0.7679
 9790TIP3    H253566   4.289   6.293   3.744  0.0907 -1.3978  0.8754
 9791TIP3   OH253567   2.475   4.324   2.341  0.0443 -0.6770 -0.4138
 9791TIP3    H153568   2.527   4.381   2.398 -1.0691 -0.2105  0.1778
 9791TIP3    H253569   2.389   4.321   2.384 -0.1642 -2.1165 -0.9009
 9792TIP3   OH253570   0.694   4.054   2.778  0.1607  0.4226 -0.9260
 9792TIP3    H153571   0.678   4.074   2.686  0.1092 -3.2853 -1.8566
 9792TIP3    H253572   0.677   3.961   2.786  1.7578  0.2733  2.5190
 9793TIP3   OH253573   5.537   3.341   3.140 -0.3305  0.6125 -0.3680
 9793TIP3    H153574   5.555   3.248   3.150  0.7248  0.7375 -1.0156
 9793TIP3    H253575   5.620   3.384   3.158 -0.8605  1.4519  0.1369
 9794TIP3   OH253576   4.879   5.847   3.337 -0.1718  0.0833 -0.2259
 9794TIP3    H153577   4.898   5.884   3.423  0.1547 -0.9113  0.1483
 9794TIP3    H253578   4.825   5.913   3.294  0.7217  1.1595  0.2491
 9795TIP3   OH253579   0.818   1.869   3.002 -0.2736  0.0347 -0.3211
 9795TIP3    H153580   0.839   1.778   2.983  1.4188 -0.0641  1.6290
 9795TIP3    H253581   0.769   1.866   3.084 -1.9327  0.7936 -1.2391
 9796TIP3   OH253582   5.970   4.957   0.889 -0.1910 -0.5718  0.1605
 9796TIP3    H153583   6.050   5.007   0.872 -0.3161 -0.3592  0.1960
 9796TIP3    H253584   5.997   4.865   0.885 -0.4048 -0.5949 -2.2738
 9797TIP3   OH253585   2.153   5.809   1.826  0.1799 -0.1880  0.2257
 9797TIP3    H153586   2.146   5.725   1.779  1.1762 -0.6256  0.8352
 9797TIP3    H253587   2.068   5.851   1.812  0.4194 -0.3127 -1.9244
 9798TIP3   OH253588   4.893   2.345   2.964  0.1233 -0.0571 -0.1504
 9798TIP3    H153589   4.826   2.406   2.932  0.2028  0.1638  0.1075
 9798TIP3    H253590   4.846   2.261   2.973 -0.1556  0.1295  0.1697
 9799TIP3   OH253591   4.498   5.159   2.056 -0.2285 -0.2047 -0.9021
 9799TIP3    H153592   4.410   5.122   2.050 -0.4312  0.3659 -1.7446
 9799TIP3    H253593   4.529   5.135   2.143 -0.5112 -1.9575 -1.2545
 9800TIP3   OH253594   3.488   6.520   4.338  0.5280  0.5411  0.2115
 9800TIP3    H153595   3.539   6.440   4.351 -0.1926  0.0645  0.1609
 9800TIP3    H253596   3.483   6.560   4.425  1.0296  0.6289  0.2066
 9801TIP3   OH253597   3.501   3.149   3.169 -0.3466  0.4924  0.6520
 9801TIP3    H153598   3.476   3.107   3.087 -0.9646  0.8825  0.6321
 9801TIP3    H253599   3.525   3.238   3.144  0.2323  0.3777  0.7926
 9802TIP3   OH253600   4.574   2.388   3.183 -0.1060  0.1604  0.0257
 9802TIP3    H153601   4.599   2.451   3.116 -0.0702  0.6402  0.4832
 9802TIP3    H253602   4.504   2.431   3.232 -1.6406 -1.0237 -1.0294
 9803TIP3   OH253603   5.206   2.728   0.796 -0.3477  0.0040 -0.1203
 9803TIP3    H153604   5.183   2.753   0.707 -2.3114 -2.5761 -0.4453
 9803TIP3    H253605   5.296   2.697   0.790 -0.7295 -0.9111 -1.4102
 9804TIP3   OH253606   4.561   1.417   1.235  1.0143 -0.6534 -0.1244
 9804TIP3    H153607   4.566   1.328   1.200  0.4854 -1.1536  1.0105
 9804TIP3    H253608   4.642   1.459   1.206  0.0443 -0.5787 -3.0820
 9805TIP3   OH253609   3.857   2.069   0.494 -0.0199  0.0918  0.3603
 9805TIP3    H153610   3.812   2.080   0.578 -0.3762 -1.2016  0.3738
 9805TIP3    H253611   3.809   1.997   0.452  0.5850  0.2707 -0.6533
 9806TIP3   OH253612   4.859   2.471   2.633 -0.3049  0.7056  0.3888
 9806TIP3    H153613   4.855   2.396   2.692  2.8282 -0.5433 -0.7664
 9806TIP3    H253614   4.880   2.432   2.548 -0.5708  2.7803 -0.6778
 9807TIP3   OH253615   2.882   3.738   1.635  0.1284  0.8309 -0.2436
 9807TIP3    H153616   2.898   3.831   1.651  2.4401  0.4822 -0.2264
 9807TIP3    H253617   2.865   3.701   1.721  1.7799  0.8169  0.0983
 9808TIP3   OH253618   6.149   1.908   0.424 -0.1693  0.3865 -0.2356
 9808TIP3    H153619   6.236   1.938   0.398 -0.3149  1.6852  0.7166
 9808TIP3    H253620   6.149   1.912   0.519 -1.5756  1.3344 -0.2474
 9809TIP3   OH253621   3.274   2.495   3.891 -0.1469  0.2589  0.4340
 9809TIP3    H153622   3.206   2.444   3.935 -0.3779 -1.9846 -2.2089
 9809TIP3    H253623   3.354   2.443   3.904 -0.2177 -0.4544 -1.5854
 9810TIP3   OH253624   0.756   2.783   2.088 -0.7275  0.9156  0.0998
 9810TIP3    H153625   0.849   2.763   2.080 -0.9862  0.0040 -0.7409
 9810TIP3    H253626   0.746   2.868   2.044 -0.6464 -0.0093 -1.7982
 9811TIP3   OH253627   1.725   5.743   3.888 -0.3952  0.8069 -0.3995
 9811TIP3    H153628   1.673   5.812   3.847 -0.2649  1.0374 -0.1833
 9811TIP3    H253629   1.811   5.784   3.903  0.0866  0.2033 -1.4309
 9812TIP3   OH253630   3.595   0.927   1.817  0.3105  0.0064  0.2687
 9812TIP3    H153631   3.537   0.877   1.873 -1.1598 -1.1530 -2.1416
 9812TIP3    H253632   3.555   1.014   1.811 -1.9000 -1.0558 -2.1537
 9813TIP3   OH253633   2.984   5.113   3.698 -0.5760 -0.0184  0.7478
 9813TIP3    H153634   2.963   5.155   3.615 -0.5691  0.0936  0.8021
 9813TIP3    H253635   3.028   5.181   3.749  1.8547 -0.8273 -0.1342
 9814TIP3   OH253636   0.075   0.589   2.471  0.1741 -0.1823 -0.2859
 9814TIP3    H153637   0.071   0.638   2.389  2.3532  1.5437  0.5519
 9814TIP3    H253638   0.010   0.631   2.528  0.0619 -0.1109 -0.4647
 9815TIP3   OH253639   3.503   1.681   1.447 -0.2305 -0.4718  0.6865
 9815TIP3    H153640   3.534   1.745   1.512 -1.7003 -1.5388  2.5392
 9815TIP3    H253641   3.543   1.710   1.365  0.2070  2.0522  1.6740
 9816TIP3   OH253642   4.221   1.387   2.558 -0.2939 -0.7666 -0.0481
 9816TIP3    H153643   4.268   1.310   2.528 -1.6460 -2.3906  1.7152
 9816TIP3    H253644   4.278   1.426   2.624  0.7375  0.2608 -1.4929
 9817TIP3   OH253645   2.208   4.456   1.534  0.7274  0.4294  0.2313
 9817TIP3    H153646   2.230   4.486   1.623  0.8699  0.2405  0.2619
 9817TIP3    H253647   2.115   4.475   1.525  0.8501  1.0247  0.1899
 9818TIP3   OH253648   3.080   0.142   3.594 -0.2688  0.2681  0.3582
 9818TIP3    H153649   3.146   0.087   3.635  0.3951  0.1629 -0.8370
 9818TIP3    H253650   3.020   0.163   3.666  0.9247  0.1913  1.4209
 9819TIP3   OH253651   3.355   2.936   1.393  0.5473  0.0944 -0.1301
 9819TIP3    H153652   3.387   2.997   1.459 -1.5166 -0.5341  1.5807
 9819TIP3    H253653   3.283   2.983   1.350 -1.7514 -1.3329  1.9026
 9820TIP3   OH253654   2.858   0.628   4.502 -0.2379  0.5176  0.4878
 9820TIP3    H153655   2.811   0.545   4.491 -1.1023  0.9457  0.8510
 9820TIP3    H253656   2.947   0.609   4.474 -0.6251 -0.3194 -0.2163
 9821TIP3   OH253657   3.023   5.960   0.802 -0.1533  0.0461 -0.0394
 9821TIP3    H153658   3.045   5.962   0.895 -0.7113  1.6716  0.0929
 9821TIP3    H253659   2.940   5.914   0.798  0.0189 -0.2892  0.2375
 9822TIP3   OH253660   1.901   6.003   4.402  0.0582  0.2441  0.4950
 9822TIP3    H153661   1.850   6.065   4.453  0.5918  0.7065  0.4793
 9822TIP3    H253662   1.911   5.927   4.458 -5.5064 -2.3821 -1.4294
 9823TIP3   OH253663   0.770   0.492   0.766  0.5842 -0.0378 -0.0994
 9823TIP3    H153664   0.717   0.414   0.780  1.7000 -0.9637 -0.8405
 9823TIP3    H253665   0.777   0.533   0.853 -3.1866  1.4395 -0.2654
 9824TIP3   OH253666   2.752   6.684   3.937  0.5633 -0.1285  0.2314
 9824TIP3    H153667   2.726   6.692   3.845 -0.2658 -1.2001  0.3541
 9824TIP3    H253668   2.762   6.774   3.966  0.4794  0.2360 -0.8085
 9825TIP3   OH253669   6.335   4.586   0.933  0.5708 -0.3110 -0.4082
 9825TIP3    H153670   6.420   4.604   0.972 -0.3086  0.2007  1.3878
 9825TIP3    H253671   6.349   4.598   0.839  2.1619  1.0580 -0.0475
 9826TIP3   OH253672   1.191   4.575   2.658 -0.4105  0.5509 -0.2020
 9826TIP3    H153673   1.108   4.533   2.677 -0.2862  0.3813 -0.0239
 9826TIP3    H253674   1.222   4.608   2.743  0.1844 -0.2774 -0.0835
 9827TIP3   OH253675   2.116   5.256   0.472  0.0091  0.6817  0.2513
 9827TIP3    H153676   2.052   5.281   0.539 -2.8049 -0.0265 -1.9773
 9827TIP3    H253677   2.129   5.162   0.485 -0.2901  0.6060  0.0112
 9828TIP3   OH253678   3.452   4.450   2.276 -0.3852 -0.2628 -0.1752
 9828TIP3    H153679   3.547   4.440   2.266 -0.4031 -2.7337  1.4006
 9828TIP3    H253680   3.429   4.396   2.352 -3.1587 -0.2736 -0.8974
 9829TIP3   OH253681   1.971   6.686   3.140  0.7973 -0.2382 -0.2630
 9829TIP3    H153682   2.014   6.706   3.057 -2.4298  1.0759 -1.8269
 9829TIP3    H253683   1.944   6.772   3.174 -0.5950 -0.9383  0.4988
 9830TIP3   OH253684   0.696   1.636   2.102  0.3261 -0.2173 -0.4457
 9830TIP3    H153685   0.664   1.672   2.184 -0.1673 -0.7865 -0.3835
 9830TIP3    H253686   0.787   1.667   2.096  0.4720 -0.4440  0.4742
 9831TIP3   OH253687   3.316   0.643   0.703  0.0888  0.4125  0.3405
 9831TIP3    H153688   3.257   0.570   0.720  0.2883  0.3845  0.9445
 9831TIP3    H253689   3.402   0.612   0.733  0.1844  0.8717  0.5567
 9832TIP3   OH253690   1.870   3.918   1.432 -0.1194  0.1003 -0.5804
 9832TIP3    H153691   1.894   3.978   1.361 -1.8846  0.7807 -0.6597
 9832TIP3    H253692   1.865   3.832   1.390 -1.9303  0.6068 -1.5426
 9833TIP3   OH253693   6.450   3.192   3.888  0.3690  0.1030  0.2542
 9833TIP3    H153694   6.451   3.099   3.912 -0.0439 -0.0501 -0.3292
 9833TIP3    H253695   6.467   3.237   3.971  2.4625 -0.5421  0.2527
 9834TIP3   OH253696   0.142   0.445   2.029  0.3301 -1.4090  0.0680
 9834TIP3    H153697   0.211   0.468   2.091  0.1108 -0.8617  0.1089
 9834TIP3    H253698   0.067   0.421   2.083 -0.6902  1.4703  0.0722
 9835TIP3   OH253699   0.968   2.392   2.852  0.1795  0.1076  0.4221
 9835TIP3    H153700   1.044   2.345   2.820 -0.2538 -0.2124 -0.1521
 9835TIP3    H253701   0.912   2.403   2.775  1.0003  3.0453  0.1223
 9836TIP3   OH253702   2.313   6.668   4.304  0.3945  0.0694 -0.2890
 9836TIP3    H153703   2.381   6.730   4.332 -0.0223 -0.1684  1.4083
 9836TIP3    H253704   2.361   6.599   4.259  1.1649  0.3939  0.0109
 9837TIP3   OH253705   1.627   1.792   3.052 -0.2619  0.0511  0.8208
 9837TIP3    H153706   1.626   1.875   3.100  1.6222  2.3785 -2.7375
 9837TIP3    H253707   1.720   1.776   3.033 -0.8486 -0.9695 -1.5195
 9838TIP3   OH253708   3.629   1.598   2.192 -0.2862  0.1082  0.0934
 9838TIP3    H153709   3.606   1.631   2.105 -0.4719  0.5179  0.2893
 9838TIP3    H253710   3.576   1.519   2.203  2.4644 -2.1196 -1.6313
 9839TIP3   OH253711   3.443   6.439   1.991 -0.0456  0.2529  0.5301
 9839TIP3    H153712   3.432   6.356   1.946 -1.0549  0.8595 -0.3882
 9839TIP3    H253713   3.470   6.415   2.079  0.4052 -1.0161  0.0694
 9840TIP3   OH253714   6.560   2.859   2.115 -0.3169 -0.1461  0.9614
 9840TIP3    H153715   6.520   2.779   2.079  2.1554 -1.6112  1.2228
 9840TIP3    H253716   6.654   2.844   2.106  0.2631  3.4965 -0.4935
 9841TIP3   OH253717   4.393   2.770   0.846 -0.3664 -0.5732 -0.0055
 9841TIP3    H153718   4.338   2.778   0.924 -0.8120  0.3168 -0.3956
 9841TIP3    H253719   4.358   2.693   0.800  1.2186 -2.4178  1.6589
 9842TIP3   OH253720   6.585   1.577   2.775  0.4803 -0.7348  0.0197
 9842TIP3    H153721   6.492   1.560   2.789  0.1253 -0.6497 -1.9127
 9842TIP3    H253722   6.607   1.644   2.839 -0.0501 -2.7151  2.4149
 9843TIP3   OH253723   3.044   1.665   3.650  0.7143 -0.2614  0.9459
 9843TIP3    H153724   2.957   1.683   3.686  0.1577 -1.9111  0.4883
 9843TIP3    H253725   3.076   1.591   3.700  0.9621 -1.0061 -0.2802
 9844TIP3   OH253726   6.361   2.613   1.830 -0.2264  0.8076 -0.0223
 9844TIP3    H153727   6.451   2.641   1.810 -0.4820  0.6110 -1.6075
 9844TIP3    H253728   6.372   2.551   1.902  0.9678  0.5045 -0.4256
 9845TIP3   OH253729   0.611   4.904   3.149 -0.2880 -0.1185  0.1956
 9845TIP3    H153730   0.545   4.955   3.101  0.1934 -0.2999 -0.6783
 9845TIP3    H253731   0.687   4.904   3.091  1.0048  1.3043  1.7887
 9846TIP3   OH253732   1.882   1.111   2.313  0.1481  0.1869 -0.3250
 9846TIP3    H153733   1.805   1.082   2.362 -1.2426  2.3919 -1.0378
 9846TIP3    H253734   1.942   1.144   2.379  0.5506 -1.5757  0.2426
 9847TIP3   OH253735   4.714   2.582   1.631  0.0515  0.2073 -0.1617
 9847TIP3    H153736   4.651   2.646   1.597 -1.1375 -0.6032  0.4482
 9847TIP3    H253737   4.706   2.507   1.572  1.3500  0.5308 -0.7987
 9848TIP3   OH253738   1.526   0.909   0.662  0.0630  0.4630  0.8322
 9848TIP3    H153739   1.480   0.826   0.666 -1.8168  1.3792 -0.1573
 9848TIP3    H253740   1.593   0.896   0.595  1.3481 -0.9215  2.3340
 9849TIP3   OH253741   5.006   3.368   3.005 -0.0597 -0.2803 -0.1800
 9849TIP3    H153742   4.915   3.397   3.008 -0.2772 -0.6866 -1.7957
 9849TIP3    H253743   5.031   3.357   3.096 -1.2217  1.0728  0.3355
 9850TIP3   OH253744   3.825   1.652   2.980 -0.1911 -0.3326 -0.1543
 9850TIP3    H153745   3.804   1.711   3.053 -0.4249 -0.6133  0.0065
 9850TIP3    H253746   3.740   1.630   2.942 -0.1180 -0.7029 -0.1076
 9851TIP3   OH253747   4.765   3.260   0.722  0.0742  0.6552 -0.1134
 9851TIP3    H153748   4.801   3.279   0.809  0.9325 -0.9467 -0.0601
 9851TIP3    H253749   4.689   3.205   0.739 -0.9514  1.9641 -0.3313
 9852TIP3   OH253750   0.255   4.835   0.857 -0.3732 -0.5971  0.3760
 9852TIP3    H153751   0.341   4.801   0.835  0.7431  0.5686  2.6314
 9852TIP3    H253752   0.204   4.826   0.776  2.0245 -0.7339 -1.2208
 9853TIP3   OH253753   2.785   3.851   3.223 -0.9899  0.0377 -0.3228
 9853TIP3    H153754   2.732   3.926   3.251 -0.5167  1.3217 -2.5737
 9853TIP3    H253755   2.876   3.881   3.234 -0.7130 -1.2901  1.3627
 9854TIP3   OH253756   0.064   1.342   4.034 -0.4200  0.1045 -0.3277
 9854TIP3    H153757   0.004   1.292   4.089  0.3904 -0.6567 -0.0962
 9854TIP3    H253758   0.057   1.432   4.065  0.4421 -0.3970  1.4524
 9855TIP3   OH253759   3.043   6.616   1.034 -0.1403  0.1385  0.1214
 9855TIP3    H153760   3.066   6.664   1.114 -0.0869  1.1340 -0.4784
 9855TIP3    H253761   3.040   6.683   0.966  0.3195 -0.7774 -0.8196
 9856TIP3   OH253762   3.378   1.065   3.314  0.4433 -0.3364  0.0784
 9856TIP3    H153763   3.404   1.018   3.393  2.3197 -0.7885 -0.7473
 9856TIP3    H253764   3.444   1.134   3.304  0.5604 -0.6268 -1.3456
 9857TIP3   OH253765   4.261   3.537   1.707 -0.1322 -0.1395 -0.1946
 9857TIP3    H153766   4.339   3.530   1.652  0.1708 -0.9135  0.3146
 9857TIP3    H253767   4.271   3.621   1.753  0.1318  0.0112 -0.5242
 9858TIP3   OH253768   1.612   4.908   0.917 -0.6785 -0.0588  0.1591
 9858TIP3    H153769   1.558   4.853   0.975 -0.5090  0.0653  0.4369
 9858TIP3    H253770   1.632   4.985   0.970 -0.6850  0.1466 -0.1367
 9859TIP3   OH253771   3.147   1.706   2.561 -0.0107 -0.7870 -0.5040
 9859TIP3    H153772   3.112   1.795   2.569 -0.2610 -0.8578 -0.8131
 9859TIP3    H253773   3.152   1.690   2.467  0.3218 -0.9883 -0.4541
 9860TIP3   OH253774   0.922   2.189   3.450  0.8435  0.3643  0.0746
 9860TIP3    H153775   0.983   2.169   3.521 -0.9818 -2.6937  1.0141
 9860TIP3    H253776   0.841   2.216   3.495  0.3688  0.7155 -0.9554
 9861TIP3   OH253777   3.028   3.518   1.238 -0.0112 -0.0597 -0.0975
 9861TIP3    H153778   3.119   3.539   1.216 -0.6254  0.0026 -3.0329
 9861TIP3    H253779   3.017   3.427   1.210 -0.7785 -0.1516  0.4762
 9862TIP3   OH253780   6.553   4.094   3.268 -0.0893  0.5626  0.1546
 9862TIP3    H153781   6.577   4.079   3.176  1.2427 -1.7459  0.7915
 9862TIP3    H253782   6.598   4.175   3.292 -0.8021  1.4432 -1.3022
 9863TIP3   OH253783   0.277   5.976   3.289  0.4503 -0.1199  0.0996
 9863TIP3    H153784   0.332   5.982   3.367 -0.4499  1.3620  0.6573
 9863TIP3    H253785   0.239   6.064   3.280 -2.3647 -1.2542  0.1374
 9864TIP3   OH253786   4.609   4.640   2.431  0.2783  0.0910 -0.1112
 9864TIP3    H153787   4.633   4.581   2.359  0.5453  1.9671 -1.6366
 9864TIP3    H253788   4.687   4.693   2.445 -0.0385  0.2666  1.0765
 9865TIP3   OH253789   3.636   5.664   3.534  0.1374 -0.3590  0.6092
 9865TIP3    H153790   3.593   5.690   3.453  1.2679 -1.0552 -0.2479
 9865TIP3    H253791   3.607   5.574   3.548 -2.7461  0.7745  2.8666
 9866TIP3   OH253792   1.908   5.350   1.011 -0.2639  0.1687  0.0735
 9866TIP3    H153793   1.959   5.280   0.971 -0.3219  0.2067 -0.0678
 9866TIP3    H253794   1.950   5.431   0.980 -0.8617  0.2125 -0.6471
 9867TIP3   OH253795   2.219   1.475   1.366  0.6677 -0.2665  0.0792
 9867TIP3    H153796   2.261   1.547   1.319  0.8086 -1.1585 -1.2106
 9867TIP3    H253797   2.126   1.483   1.345  0.9323 -1.7505 -1.9802
 9868TIP3   OH253798   2.790   6.657   0.830 -0.2630  0.0828  0.1183
 9868TIP3    H153799   2.814   6.750   0.838 -0.2085  0.1262 -0.4754
 9868TIP3    H253800   2.706   6.658   0.785  0.8590 -0.2113 -2.1274
 9869TIP3   OH253801   6.600   0.521   0.815 -0.2477  0.4227  0.4426
 9869TIP3    H153802   6.608   0.448   0.877 -0.3890 -0.9139 -1.0436
 9869TIP3    H253803   6.515   0.560   0.835 -0.3701 -0.1041  0.9727
 9870TIP3   OH253804   5.935   1.335   3.269 -0.1915 -0.2070 -0.0627
 9870TIP3    H153805   5.960   1.304   3.357 -0.7212  2.4115  1.0932
 9870TIP3    H253806   6.017   1.362   3.229 -0.1346  0.0978  0.2562
 9871TIP3   OH253807   5.568   4.161   3.110  0.3464  0.2805 -1.3544
 9871TIP3    H153808   5.537   4.109   3.036  0.1760 -0.0298 -1.0644
 9871TIP3    H253809   5.569   4.251   3.077 -1.9642  0.4798 -1.0242
 9872TIP3   OH253810   6.674   5.998   1.112 -0.2084 -0.0657 -0.3507
 9872TIP3    H153811   6.615   6.021   1.040  1.6598 -2.4827 -2.8713
 9872TIP3    H253812   6.698   5.907   1.095  1.7832 -0.1590  2.3379
 9873TIP3   OH253813   1.528   2.446   3.703 -0.5453  0.3782 -0.0730
 9873TIP3    H153814   1.555   2.520   3.757 -0.9276  0.3964  0.0970
 9873TIP3    H253815   1.605   2.390   3.700  0.3911  1.6655 -1.7617
 9874TIP3   OH253816   3.570   6.588   1.628 -0.1552 -0.0356  0.3030
 9874TIP3    H153817   3.517   6.649   1.679 -0.5114  0.5165 -0.7051
 9874TIP3    H253818   3.570   6.507   1.680 -0.5440  0.4960  1.1471
 9875TIP3   OH253819   5.325   5.813   1.411  0.0462 -0.3638  0.1872
 9875TIP3    H153820   5.237   5.793   1.442 -0.1683 -1.9070 -1.2557
 9875TIP3    H253821   5.316   5.818   1.316  1.3548  0.4376  0.0830
 9876TIP3   OH253822   2.534   3.074   3.495 -0.3669 -0.4357  0.0482
 9876TIP3    H153823   2.530   3.169   3.490  1.9600 -0.0666  2.7841
 9876TIP3    H253824   2.466   3.049   3.557  0.5697 -0.2684  1.1678
 9877TIP3   OH253825   2.889   3.092   3.537  0.1310 -0.4180  0.1698
 9877TIP3    H153826   2.796   3.094   3.562 -0.1358 -1.6463 -0.5975
 9877TIP3    H253827   2.933   3.050   3.611  0.0017 -0.2203  0.3577
 9878TIP3   OH253828   3.300   0.894   0.781  0.2369  0.0157  0.1818
 9878TIP3    H153829   3.210   0.884   0.811  0.1305  0.7454  0.1225
 9878TIP3    H253830   3.321   0.811   0.738 -0.2428 -0.3344  0.6136
 9879TIP3   OH253831   6.007   3.347   1.374 -0.0547 -0.0555  0.4543
 9879TIP3    H153832   5.983   3.325   1.464  2.0884 -1.6266  0.7338
 9879TIP3    H253833   6.103   3.353   1.376  0.1373 -1.2467 -1.9026
 9880TIP3   OH253834   0.243   0.390   2.609 -0.3355 -0.0061 -0.4949
 9880TIP3    H153835   0.182   0.422   2.542 -0.3881 -0.1607 -0.5215
 9880TIP3    H253836   0.213   0.430   2.690 -0.0326  0.5021 -0.6293
 9881TIP3   OH253837   3.937   1.491   1.747 -0.0151  0.1646  0.0066
 9881TIP3    H153838   3.917   1.402   1.718  0.6987  0.2165 -0.6679
 9881TIP3    H253839   3.925   1.545   1.668  1.1571  0.4218 -0.0143
 9882TIP3   OH253840   0.955   5.655   1.243 -0.0742  0.1614 -0.7444
 9882TIP3    H153841   0.970   5.629   1.152 -0.1686  0.4037 -0.8293
 9882TIP3    H253842   0.965   5.750   1.243 -0.8691  0.2517 -0.6580
 9883TIP3   OH253843   0.334   0.882   3.042  0.2061 -0.5222 -0.9698
 9883TIP3    H153844   0.408   0.935   3.014 -0.5018  1.4531  0.6190
 9883TIP3    H253845   0.372   0.798   3.065  1.7499  0.0075 -1.4624
 9884TIP3   OH253846   1.462   6.636   3.566 -0.5413 -0.1350  0.0520
 9884TIP3    H153847   1.425   6.718   3.534 -0.2138 -0.7965 -2.1971
 9884TIP3    H253848   1.485   6.587   3.486  1.1856 -1.5466  1.3286
 9885TIP3   OH253849   3.904   6.464   2.472  0.4063  0.4398 -0.5037
 9885TIP3    H153850   3.838   6.443   2.538  0.7693  0.0697 -0.2518
 9885TIP3    H253851   3.923   6.557   2.486 -0.5151  0.7055 -0.9931
 9886TIP3   OH253852   1.858   2.211   3.291 -0.3900  0.1839 -0.1688
 9886TIP3    H153853   1.943   2.255   3.283  0.2672 -0.7676  1.1446
 9886TIP3    H253854   1.801   2.276   3.333 -0.1589  0.6398 -0.5559
 9887TIP3   OH253855   1.815   3.545   0.783  0.2022 -0.9515  0.5207
 9887TIP3    H153856   1.909   3.535   0.769  0.2094  0.1800 -0.3770
 9887TIP3    H253857   1.806   3.555   0.877  1.0192 -0.6869  0.5822
 9888TIP3   OH253858   5.303   5.954   2.698 -0.4969  0.0316  0.0885
 9888TIP3    H153859   5.263   5.939   2.784 -0.7400 -4.2743 -0.5732
 9888TIP3    H253860   5.229   5.959   2.637 -0.2393 -0.7024 -0.2929
 9889TIP3   OH253861   6.515   3.483   2.795  0.4616  0.5636 -0.1308
 9889TIP3    H153862   6.422   3.477   2.813  0.4456  2.1946  0.4675
 9889TIP3    H253863   6.557   3.434   2.866  0.0603 -0.9843 -0.9187
 9890TIP3   OH253864   0.128   2.653   2.921  0.2647  0.2484  0.2599
 9890TIP3    H153865   0.202   2.705   2.893  0.8072 -0.7573 -0.2177
 9890TIP3    H253866   0.163   2.596   2.990 -0.4504  0.8923  1.1843
 9891TIP3   OH253867   3.933   0.174   3.300 -0.3069  0.3444  0.1794
 9891TIP3    H153868   3.913   0.124   3.221 -1.0324 -0.3454  0.7792
 9891TIP3    H253869   3.981   0.113   3.356  2.8211  1.6634 -0.8173
 9892TIP3   OH253870   4.000   3.835   1.698 -0.0206 -0.3321 -0.2324
 9892TIP3    H153871   4.078   3.783   1.714  0.0233 -0.5024 -1.0036
 9892TIP3    H253872   3.930   3.771   1.685  0.0165 -0.2123 -1.0850
 9893TIP3   OH253873   5.763   5.809   2.996 -1.2299 -0.1972 -0.1505
 9893TIP3    H153874   5.841   5.856   3.026 -0.1434 -3.1280  2.0775
 9893TIP3    H253875   5.707   5.878   2.958  1.9708  2.1527 -1.0049
 9894TIP3   OH253876   0.475   2.655   0.825  0.3548  0.5247  0.2777
 9894TIP3    H153877   0.552   2.711   0.835  0.0439  1.1047 -0.4618
 9894TIP3    H253878   0.482   2.592   0.896  0.7614  1.4545  1.0958
 9895TIP3   OH253879   3.145   3.455   3.098 -0.4086 -0.7899 -0.2453
 9895TIP3    H153880   3.188   3.513   3.161  2.0731 -0.9628 -1.6699
 9895TIP3    H253881   3.098   3.513   3.039 -0.7805 -0.4748  0.3549
 9896TIP3   OH253882   6.474   2.889   2.387 -0.2393  0.1914 -0.4412
 9896TIP3    H153883   6.452   2.799   2.413  0.2674 -0.0467 -0.8149
 9896TIP3    H253884   6.514   2.880   2.301 -0.4054  0.8079 -0.5908
 9897TIP3   OH253885   0.208   3.629   3.450  0.1729  0.5466  0.4006
 9897TIP3    H153886   0.285   3.686   3.448  1.0682 -0.5444  1.8653
 9897TIP3    H253887   0.206   3.595   3.539  0.2960 -2.5006 -0.6426
 9898TIP3   OH253888   2.332   0.526   1.721 -0.5209 -0.0002 -0.4698
 9898TIP3    H153889   2.362   0.584   1.791 -1.4633 -0.5031  0.3746
 9898TIP3    H253890   2.361   0.568   1.640 -1.3932  1.7812  0.1044
 9899TIP3   OH253891   2.793   6.677   2.694  0.2076  0.5176 -0.0116
 9899TIP3    H153892   2.861   6.691   2.629 -0.8347  1.9830 -0.8385
 9899TIP3    H253893   2.724   6.631   2.646  0.3481 -0.4272  0.6639
 9900TIP3   OH253894   5.677   1.084   2.326 -0.0755 -0.4973  0.1178
 9900TIP3    H153895   5.719   1.095   2.240  0.1094 -0.6805  0.1839
 9900TIP3    H253896   5.690   1.168   2.370  1.0644 -0.8637  0.5059
 9901TIP3   OH253897   3.301   2.589   1.666 -0.4076  0.2806  0.0866
 9901TIP3    H153898   3.395   2.603   1.681 -0.4463  0.6765 -0.0463
 9901TIP3    H253899   3.294   2.569   1.573 -0.2175 -1.7869  0.4684
 9902TIP3   OH253900   3.716   1.910   0.927 -0.1646  0.1877 -0.5235
 9902TIP3    H153901   3.637   1.857   0.939 -0.9930  1.2565 -0.9723
 9902TIP3    H253902   3.693   1.995   0.966  2.6066 -0.8880  4.1569
 9903TIP3   OH253903   4.277   3.860   3.514  0.0634 -0.4075 -0.3001
 9903TIP3    H153904   4.230   3.879   3.595  1.5755  1.3902  0.2268
 9903TIP3    H253905   4.276   3.765   3.507 -0.6159 -0.5663  1.5137
 9904TIP3   OH253906   1.064   6.305   2.271  0.1603 -0.1819 -0.1369
 9904TIP3    H153907   1.154   6.335   2.285  0.9910 -1.9107 -1.2819
 9904TIP3    H253908   1.071   6.245   2.197 -2.0143 -0.1275 -0.4358
 9905TIP3   OH253909   4.313   4.614   1.342 -0.2156  0.0905 -0.0899
 9905TIP3    H153910   4.382   4.548   1.354 -0.5262 -0.1017  0.7229
 9905TIP3    H253911   4.317   4.637   1.249  0.1941 -0.7528 -0.2888
 9906TIP3   OH253912   1.116   5.869   1.097  0.8049  0.0358 -0.4108
 9906TIP3    H153913   1.167   5.947   1.117  1.9634 -0.9385  0.5998
 9906TIP3    H253914   1.026   5.901   1.090  1.5107  1.7967 -2.3432
 9907TIP3   OH253915   3.256   3.616   3.293 -0.1314  0.5474  0.5489
 9907TIP3    H153916   3.180   3.650   3.340  0.6556  2.8858  0.2419
 9907TIP3    H253917   3.294   3.693   3.249  0.7027 -1.0438 -1.7357
 9908TIP3   OH253918   4.312   4.339   2.041  0.0281  0.0234 -0.3378
 9908TIP3    H153919   4.235   4.389   2.015  0.2103  0.0728 -0.7873
 9908TIP3    H253920   4.286   4.248   2.031  0.3072  0.0480 -1.3093
 9909TIP3   OH253921   1.786   0.434   1.869 -0.4726  0.7589  0.4539
 9909TIP3    H153922   1.834   0.351   1.857 -0.7194  0.3480  2.0638
 9909TIP3    H253923   1.775   0.468   1.781 -2.3367 -2.0479 -0.5384
 9910TIP3   OH253924   1.986   5.874   2.099  0.2538  0.8373 -0.3702
 9910TIP3    H153925   1.971   5.917   2.015  0.1535 -0.8045 -1.2274
 9910TIP3    H253926   2.081   5.874   2.109  0.3321 -0.0300 -1.0731
 9911TIP3   OH253927   2.108   5.660   1.420  0.1800  0.0073  0.1272
 9911TIP3    H153928   2.053   5.657   1.498 -1.0051 -2.0263 -0.7199
 9911TIP3    H253929   2.196   5.637   1.452 -0.4256 -1.5014  0.7876
 9912TIP3   OH253930   4.517   6.236   1.888 -0.0013  0.0437  0.1997
 9912TIP3    H153931   4.454   6.293   1.844  1.0480 -0.1711 -1.7058
 9912TIP3    H253932   4.574   6.296   1.937 -0.5241  0.3993  0.3715
 9913TIP3   OH253933   0.617   2.569   2.208  0.0231  0.0854 -0.1581
 9913TIP3    H153934   0.593   2.580   2.300  0.7940 -1.2142  0.2218
 9913TIP3    H253935   0.648   2.656   2.181 -1.0978  0.7164  0.5160
 9914TIP3   OH253936   4.809   1.604   2.460  0.0205 -0.3782 -0.0953
 9914TIP3    H153937   4.787   1.683   2.411  0.3390  0.6131  1.2726
 9914TIP3    H253938   4.903   1.592   2.446 -0.1500 -0.9108 -0.8292
 9915TIP3   OH253939   5.466   2.843   3.106 -0.4037  0.6949 -0.0109
 9915TIP3    H153940   5.404   2.861   3.177 -0.1419  4.3846 -0.5010
 9915TIP3    H253941   5.411   2.828   3.029 -0.6889  0.3978  0.2488
 9916TIP3   OH253942   6.494   0.018   1.430  0.1123  0.0998 -0.0949
 9916TIP3    H153943   6.489   0.035   1.524 -1.3830  0.0242 -0.1490
 9916TIP3    H253944   6.456  -0.069   1.418 -0.1275  0.2935 -0.8148
 9917TIP3   OH253945   1.523   3.063   2.413  0.6117  0.1073 -0.1974
 9917TIP3    H153946   1.517   2.981   2.366  1.5163  1.3536 -2.6633
 9917TIP3    H253947   1.445   3.112   2.386 -0.5154 -0.2828  2.1164
 9918TIP3   OH253948   6.224   4.698   2.720  0.3908 -0.1009  0.4435
 9918TIP3    H153949   6.276   4.748   2.657 -0.4169  0.7671  0.4279
 9918TIP3    H253950   6.235   4.745   2.803  0.5295 -0.5605  0.6856
 9919TIP3   OH253951   2.790   5.770   1.351 -0.8491  0.5341 -0.0601
 9919TIP3    H153952   2.773   5.849   1.402  0.7063  1.5721 -1.0494
 9919TIP3    H253953   2.851   5.719   1.406 -0.4414  0.8802 -0.1899
 9920TIP3   OH253954   5.179   1.589   1.624 -0.0647  0.2477  0.1978
 9920TIP3    H153955   5.263   1.571   1.583 -0.7081  0.5061 -1.2675
 9920TIP3    H253956   5.134   1.505   1.625 -0.9594  0.6569 -1.7894
 9921TIP3   OH253957   5.794   1.619   2.457  0.7255 -0.6038  0.1175
 9921TIP3    H153958   5.866   1.592   2.514 -0.0231 -1.2706  0.7844
 9921TIP3    H253959   5.832   1.684   2.398  2.0896 -1.6457 -0.1870
 9922TIP3   OH253960   2.894   5.780   2.567 -0.1014  0.5201  0.5217
 9922TIP3    H153961   2.982   5.813   2.585 -1.3460  2.6519  3.6015
 9922TIP3    H253962   2.906   5.688   2.547  2.8620  0.8722  0.2780
 9923TIP3   OH253963   3.820   2.123   2.414  0.0089  0.1428  0.0693
 9923TIP3    H153964   3.797   2.044   2.463 -1.0520 -0.0341 -0.6799
 9923TIP3    H253965   3.916   2.120   2.406 -0.0015 -0.9583  0.2398
 9924TIP3   OH253966   3.011   2.204   2.375  0.1631 -0.1881 -0.0740
 9924TIP3    H153967   2.937   2.143   2.379  0.0780 -0.0682  0.2013
 9924TIP3    H253968   2.974   2.288   2.400  1.0774 -0.7345  3.6848
 9925TIP3   OH253969   2.376   3.062   1.391  0.3190 -0.4151  0.4517
 9925TIP3    H153970   2.466   3.032   1.381  0.4387 -0.9504  2.5348
 9925TIP3    H253971   2.380   3.157   1.382  1.3294 -0.3178  1.6487
 9926TIP3   OH253972   2.374   5.289   2.774 -0.5322 -0.3529 -0.7373
 9926TIP3    H153973   2.385   5.299   2.679 -1.7594 -1.5255 -1.0272
 9926TIP3    H253974   2.306   5.353   2.797 -0.7245 -0.5464 -0.7666
 9927TIP3   OH253975   3.792   1.247   4.009 -0.0223 -0.2211 -0.2372
 9927TIP3    H153976   3.838   1.174   3.967 -0.3664 -0.2084 -0.6415
 9927TIP3    H253977   3.704   1.213   4.025  0.2888 -0.4529  1.0842
 9928TIP3   OH253978   2.009   6.544   1.959  0.1246 -0.5260 -0.2789
 9928TIP3    H153979   1.971   6.573   1.876  2.2343  1.2914 -0.7148
 9928TIP3    H253980   1.970   6.458   1.975 -2.3690  0.2429 -1.7442
 9929TIP3   OH253981   5.386   5.213   0.962  0.5341  0.1966 -0.5492
 9929TIP3    H153982   5.324   5.233   0.892  0.3037  1.7537  0.0547
 9929TIP3    H253983   5.330   5.197   1.039  0.8425  1.1293 -0.1170
 9930TIP3   OH253984   6.373   6.318   1.094  0.4773  0.3463  0.0417
 9930TIP3    H153985   6.405   6.378   1.026 -0.9393  0.3896 -0.6331
 9930TIP3    H253986   6.288   6.289   1.061  0.2707 -0.5156  1.2892
 9931TIP3   OH253987   1.124   2.255   1.425  0.3839  0.2376  0.0923
 9931TIP3    H153988   1.187   2.266   1.353 -0.1311  0.8389 -0.2772
 9931TIP3    H253989   1.121   2.341   1.467  2.9190 -0.8062  2.7601
 9932TIP3   OH253990   2.199   4.454   0.895  0.0007  0.6410  0.2959
 9932TIP3    H153991   2.250   4.378   0.923 -0.8092  0.6233  1.7881
 9932TIP3    H253992   2.198   4.448   0.800  1.4874 -0.1961  0.3018
 9933TIP3   OH253993   0.631   4.225   0.617 -0.3310  0.2133  0.2471
 9933TIP3    H153994   0.627   4.310   0.574 -0.5803  0.3608  0.5531
 9933TIP3    H253995   0.706   4.232   0.676  0.5524 -0.3011 -0.8080
 9934TIP3   OH253996   3.765   4.267   2.823  0.3908  0.2320 -0.3126
 9934TIP3    H153997   3.760   4.184   2.775  0.2059 -0.1544  0.3665
 9934TIP3    H253998   3.748   4.243   2.914 -0.0122  1.0699 -0.1622
 9935TIP3   OH253999   6.479   6.698   0.990 -0.2867  0.2490 -0.3415
 9935TIP3    H154000   6.514   6.648   0.917 -0.1083 -1.8389  1.0948
 9935TIP3    H254001   6.384   6.688   0.983 -0.2135 -1.5860  0.7386
 9936TIP3   OH254002   1.057   3.257   0.563 -0.2815  0.6437 -0.2924
 9936TIP3    H154003   1.058   3.283   0.471  0.8106 -0.0317 -0.4886
 9936TIP3    H254004   1.010   3.174   0.564  2.9922 -1.4078 -0.8962
 9937TIP3   OH254005   6.355   0.719   2.578  0.7162 -0.0449  0.5511
 9937TIP3    H154006   6.302   0.709   2.500  0.6593  1.2901  0.3930
 9937TIP3    H254007   6.294   0.706   2.651  0.4132  0.3437  0.3690
 9938TIP3   OH254008   4.634   2.016   1.153  0.7454 -0.0922  0.1174
 9938TIP3    H154009   4.629   1.920   1.159  0.1567 -0.0219  0.8429
 9938TIP3    H254010   4.714   2.032   1.103  0.2502 -0.9885 -1.0085
 9939TIP3   OH254011   5.235   0.082   0.721 -0.0364  0.4236 -0.6966
 9939TIP3    H154012   5.166   0.017   0.714  0.0601 -0.0871  1.8895
 9939TIP3    H254013   5.217   0.127   0.804  3.8086 -1.1576  1.2451
 9940TIP3   OH254014   1.760   2.233   2.544 -0.6664  0.1819  0.0462
 9940TIP3    H154015   1.845   2.212   2.581 -0.1270  0.0509 -1.2379
 9940TIP3    H254016   1.774   2.314   2.494 -1.1851 -0.0916 -0.5527
 9941TIP3   OH254017   0.473   2.016   1.459  0.2756 -0.0519  0.0294
 9941TIP3    H154018   0.466   2.106   1.493  0.8876 -0.4686  1.3700
 9941TIP3    H254019   0.567   2.003   1.448  0.1071 -0.0778 -1.5100
 9942TIP3   OH254020   5.847   3.899   2.697  0.0006 -0.1241 -0.2112
 9942TIP3    H154021   5.903   3.835   2.740 -1.2176 -2.1773 -1.5340
 9942TIP3    H254022   5.905   3.942   2.633  0.4692 -1.0610 -0.4364
 9943TIP3   OH254023   4.690   6.107   2.451 -0.0445  0.3174 -0.1940
 9943TIP3    H154024   4.659   6.070   2.369 -0.1738 -0.1423  0.0591
 9943TIP3    H254025   4.620   6.090   2.514  0.0994  0.5655  0.0373
 9944TIP3   OH254026   0.270   3.144   2.629 -0.7178 -0.1360  0.2504
 9944TIP3    H154027   0.177   3.166   2.620 -1.0190 -1.8641 -1.4535
 9944TIP3    H254028   0.311   3.187   2.554 -0.7004 -1.9749 -0.8469
 9945TIP3   OH254029   4.425   5.748   2.134  0.4187  0.0955  0.6132
 9945TIP3    H154030   4.497   5.707   2.086 -0.4546  1.0811 -1.6965
 9945TIP3    H254031   4.352   5.686   2.124  0.0242  0.6525 -0.0084
 9946TIP3   OH254032   3.133   3.151   3.023  0.0189  0.3655 -0.1906
 9946TIP3    H154033   3.068   3.102   3.073  0.3015 -0.3306 -0.4971
 9946TIP3    H254034   3.139   3.236   3.068 -0.6252  0.2015  0.2146
 9947TIP3   OH254035   4.550   2.622   2.218  0.0088  0.0379  0.3028
 9947TIP3    H154036   4.538   2.711   2.184 -0.8946 -0.3826 -0.5419
 9947TIP3    H254037   4.514   2.625   2.307  0.2228  0.5723  0.3762
 9948TIP3   OH254038   2.149   0.028   2.336  0.1096  0.3731  0.3069
 9948TIP3    H154039   2.092   0.099   2.308 -0.1387  1.0075  2.3275
 9948TIP3    H254040   2.090  -0.047   2.346  0.1693  0.1900 -0.5758
 9949TIP3   OH254041   1.358   1.827   3.203 -0.1257  0.2104 -0.2895
 9949TIP3    H154042   1.315   1.812   3.119 -0.0881  0.6489 -0.3922
 9949TIP3    H254043   1.447   1.854   3.179 -0.0192  0.0274 -0.1009
 9950TIP3   OH254044   4.937   0.832   2.564  0.5971  0.4836 -0.0014
 9950TIP3    H154045   4.996   0.907   2.557 -1.4825  2.2553  0.3124
 9950TIP3    H254046   4.877   0.856   2.635  0.1949 -1.7424  0.4719
 9951TIP3   OH254047   3.891   0.257   2.082 -0.1510 -0.2603 -0.0723
 9951TIP3    H154048   3.937   0.177   2.058  0.4638 -0.9535  2.9375
 9951TIP3    H254049   3.955   0.327   2.066  0.4250 -0.7395  0.0758
 9952TIP3   OH254050   5.852   2.894   0.547 -0.4597 -0.1773 -0.5108
 9952TIP3    H154051   5.867   2.895   0.641  0.1447  0.0140 -0.6034
 9952TIP3    H254052   5.789   2.823   0.533 -0.4101 -0.3271  0.0143
 9953TIP3   OH254053   4.089   2.084   2.447  0.2225  0.2731 -0.3091
 9953TIP3    H154054   4.091   2.065   2.541 -1.6219  0.7355 -0.1440
 9953TIP3    H254055   4.139   2.165   2.437 -1.3224  1.3685  0.5968
 9954TIP3   OH254056   1.761   3.747   3.898 -0.3220  0.1763 -0.0912
 9954TIP3    H154057   1.717   3.721   3.978  1.8407 -0.4232  0.9806
 9954TIP3    H254058   1.843   3.787   3.928 -1.0083  3.3044 -1.8733
 9955TIP3   OH254059   6.560   4.701   0.533  0.1690 -0.1712 -0.3318
 9955TIP3    H154060   6.590   4.726   0.445  2.3567 -2.8037 -0.4633
 9955TIP3    H254061   6.605   4.761   0.592 -0.1734  0.6723 -0.9032
 9956TIP3   OH254062   2.277   5.778   2.079  0.0616  0.1255 -0.0743
 9956TIP3    H154063   2.251   5.789   1.987  0.7095  2.5792 -0.0475
 9956TIP3    H254064   2.372   5.763   2.074 -0.0842 -0.9916  0.1791
 9957TIP3   OH254065   0.247   5.601   2.373  0.0150 -0.1206  0.4365
 9957TIP3    H154066   0.250   5.550   2.454  0.7525 -1.1343 -0.2133
 9957TIP3    H254067   0.159   5.640   2.373 -1.1624 -2.5479  0.2738
 9958TIP3   OH254068   6.378   3.042   0.810  0.6431 -0.0036 -0.3214
 9958TIP3    H154069   6.457   3.014   0.765  0.9949  0.7966 -0.2279
 9958TIP3    H254070   6.337   3.105   0.750  0.6632  0.4203  0.1053
 9959TIP3   OH254071   2.891   5.586   0.676  0.3452 -0.1555 -0.2405
 9959TIP3    H154072   2.824   5.649   0.701  1.3347  0.9953 -0.3960
 9959TIP3    H254073   2.842   5.512   0.639 -0.9583 -0.4653  1.9471
 9960TIP3   OH254074   5.341   3.163   3.262  0.6262  0.0608  0.5572
 9960TIP3    H154075   5.286   3.119   3.326  1.5101 -1.4743  0.3069
 9960TIP3    H254076   5.391   3.227   3.313 -0.8996  1.0358  0.8766
 9961TIP3   OH254077   3.643   1.456   0.786 -0.2367  0.5162 -0.0114
 9961TIP3    H154078   3.654   1.387   0.720 -1.8358 -0.5018  0.7193
 9961TIP3    H254079   3.599   1.412   0.858  0.9303  1.7557  1.5154
 9962TIP3   OH254080   0.750   6.413   1.594  0.4515 -0.0052 -0.5031
 9962TIP3    H154081   0.761   6.416   1.689  0.8738 -0.5378 -0.5366
 9962TIP3    H254082   0.669   6.363   1.581  1.5149 -1.8006 -0.4866
 9963TIP3   OH254083   2.266   4.883   3.638  0.2065  0.0852 -0.3865
 9963TIP3    H154084   2.236   4.960   3.686  2.6175  1.2855 -0.6186
 9963TIP3    H254085   2.342   4.852   3.688  1.6636  0.2605 -2.3583
 9964TIP3   OH254086   5.012   6.297   1.682 -0.0825 -0.1353 -0.3273
 9964TIP3    H154087   5.097   6.343   1.682 -0.9551  1.6606  1.7434
 9964TIP3    H254088   4.947   6.367   1.693 -1.6040 -1.7119  1.3035
 9965TIP3   OH254089   0.892   4.272   2.564  0.4245  0.4888 -0.1525
 9965TIP3    H154090   0.975   4.285   2.609  0.9932  0.9179 -1.3082
 9965TIP3    H254091   0.895   4.182   2.534 -1.3632 -1.0018  3.4183
 9966TIP3   OH254092   0.662   2.723   2.634 -0.5916 -0.4463  0.2954
 9966TIP3    H154093   0.575   2.758   2.656 -0.3136 -0.4968  1.5225
 9966TIP3    H254094   0.687   2.671   2.710 -0.4177 -2.2725 -0.9457
 9967TIP3   OH254095   4.361   2.845   2.692 -0.6818 -0.1869  0.5946
 9967TIP3    H154096   4.377   2.914   2.756  1.3877  0.5741 -0.6336
 9967TIP3    H254097   4.396   2.879   2.610 -1.4493 -1.9096 -0.5127
 9968TIP3   OH254098   0.381   1.880   0.920 -0.1648 -0.1761 -0.0176
 9968TIP3    H154099   0.353   1.962   0.881 -0.9647  0.0313  0.9544
 9968TIP3    H254100   0.447   1.905   0.985 -0.4841 -0.2725  0.3540
 9969TIP3   OH254101   2.729   6.232   4.011 -0.1080  0.2410 -0.6331
 9969TIP3    H154102   2.822   6.230   4.036  0.0810 -0.6009 -1.3575
 9969TIP3    H254103   2.694   6.309   4.056  1.1544  1.1079 -1.0693
 9970TIP3   OH254104   3.364   2.720   3.721 -0.5045 -0.4903  0.0235
 9970TIP3    H154105   3.303   2.791   3.740 -2.4526 -2.0362 -0.2406
 9970TIP3    H254106   3.317   2.640   3.742  1.0696 -1.8062 -1.1390
 9971TIP3   OH254107   5.295   6.338   1.648  0.5993 -0.4165 -0.2209
 9971TIP3    H154108   5.262   6.366   1.562 -0.3960 -1.8969 -0.3635
 9971TIP3    H254109   5.351   6.411   1.677  0.1382  0.5644 -1.6523
 9972TIP3   OH254110   4.143   1.430   4.274  0.5844 -0.3544  0.0908
 9972TIP3    H154111   4.055   1.394   4.288  1.2491 -1.9395  0.3881
 9972TIP3    H254112   4.137   1.472   4.188 -1.0915  1.6802  1.1204
 9973TIP3   OH254113   1.842   0.686   3.476 -0.0424  0.6395  0.7189
 9973TIP3    H154114   1.847   0.735   3.394 -0.8233  0.1234  0.3585
 9973TIP3    H254115   1.812   0.750   3.541 -0.9190  0.6846  0.2802
 9974TIP3   OH254116   5.259   5.288   3.385  0.1662 -0.1756  0.0781
 9974TIP3    H154117   5.252   5.383   3.374 -0.3379 -0.1507  0.5249
 9974TIP3    H254118   5.273   5.277   3.479 -0.7497 -0.5768  0.1839
 9975TIP3   OH254119   0.268   0.193   3.302 -0.9546 -0.4844 -0.1513
 9975TIP3    H154120   0.240   0.263   3.361 -0.0259  0.1034 -0.3830
 9975TIP3    H254121   0.312   0.130   3.359  0.2009  0.2210 -0.2161
 9976TIP3   OH254122   1.835   6.235   3.905  0.3204  0.4603  0.2330
 9976TIP3    H154123   1.851   6.289   3.827 -1.6309  0.9949  0.1507
 9976TIP3    H254124   1.845   6.145   3.875 -0.8725  0.6431 -0.7967
 9977TIP3   OH254125   1.254   2.824   1.987 -0.5742  0.5105  1.0109
 9977TIP3    H154126   1.216   2.736   1.995 -0.1652  0.1812 -0.3546
 9977TIP3    H254127   1.347   2.811   2.004 -0.6069  0.7841  1.3895
 9978TIP3   OH254128   2.278   3.782   1.907 -0.7587 -0.1001 -0.0072
 9978TIP3    H154129   2.253   3.874   1.918 -1.8980  0.0614 -2.8760
 9978TIP3    H254130   2.339   3.765   1.978 -0.9311  2.7184  0.9517
 9979TIP3   OH254131   1.958   6.534   2.319  0.5252 -0.3079 -0.3908
 9979TIP3    H154132   2.004   6.490   2.248 -0.9202 -2.2135 -0.2261
 9979TIP3    H254133   1.921   6.463   2.371 -3.2733  1.0212 -0.9596
 9980TIP3   OH254134   1.610   4.294   0.435  0.1985 -0.2520  0.6215
 9980TIP3    H154135   1.665   4.221   0.406  0.3895 -0.8824  2.4757
 9980TIP3    H254136   1.522   4.256   0.441  0.3896 -0.4928  2.0958
 9981TIP3   OH254137   4.762   5.739   3.680 -0.4508 -0.3882 -0.4158
 9981TIP3    H154138   4.833   5.790   3.641  0.2278 -0.5574  0.5804
 9981TIP3    H254139   4.755   5.771   3.769 -1.2951 -0.7328 -0.3462
 9982TIP3   OH254140   2.443   2.290   1.266 -0.3171 -0.5448  0.0130
 9982TIP3    H154141   2.507   2.287   1.337 -1.5488  0.3888  1.2221
 9982TIP3    H254142   2.358   2.293   1.310 -1.0874  1.2636 -1.4552
 9983TIP3   OH254143   3.305   1.270   2.763  0.1232  0.1093 -0.2765
 9983TIP3    H154144   3.351   1.253   2.845 -0.9696  1.2302  0.6107
 9983TIP3    H254145   3.316   1.364   2.748 -0.5039  0.0967 -0.8913
 9984TIP3   OH254146   3.657   5.256   4.297  0.0005 -0.1620 -0.6394
 9984TIP3    H154147   3.626   5.259   4.206  1.6181 -0.6387 -1.2412
 9984TIP3    H254148   3.616   5.177   4.334 -1.0654  0.3101 -0.7803
 9985TIP3   OH254149   3.484   0.047   2.134 -0.0646 -0.3533  0.5266
 9985TIP3    H154150   3.429  -0.024   2.101  1.3665 -1.1594 -0.1980
 9985TIP3    H254151   3.483   0.035   2.229 -0.0528 -1.1877  0.4290
 9986TIP3   OH254152   4.344   2.313   1.454 -0.0719  0.3267  0.6069
 9986TIP3    H154153   4.367   2.348   1.541 -0.9478  0.0292  0.9756
 9986TIP3    H254154   4.416   2.254   1.432  0.0334  0.1992  1.2579
 9987TIP3   OH254155   1.287   2.798   0.766 -0.0601  0.0336 -0.0903
 9987TIP3    H154156   1.266   2.883   0.804  4.4143  0.3432  2.3942
 9987TIP3    H254157   1.304   2.818   0.673 -2.0954  1.1298 -0.2913
 9988TIP3   OH254158   0.667   0.805   3.439  0.1234 -0.2796  0.0474
 9988TIP3    H154159   0.740   0.764   3.393  0.5763  0.8712 -0.2948
 9988TIP3    H254160   0.591   0.789   3.383  0.5437  0.4996 -0.7748
 9989TIP3   OH254161   4.536   3.893   3.611 -0.2531  0.4043 -0.0238
 9989TIP3    H154162   4.450   3.863   3.581  0.1810 -1.9035  0.8388
 9989TIP3    H254163   4.522   3.917   3.703 -0.2415  1.3747 -0.2649
 9990TIP3   OH254164   3.891   5.817   2.315  0.4627 -0.1297 -0.2403
 9990TIP3    H154165   3.861   5.890   2.369 -0.1909 -1.2058  0.8947
 9990TIP3    H254166   3.828   5.813   2.242 -0.6870 -0.7686  0.7516
 9991TIP3   OH254167   4.900   1.580   2.972 -0.6069 -0.1026 -0.8295
 9991TIP3    H154168   4.929   1.505   3.025  1.5637 -0.2877 -2.1857
 9991TIP3    H254169   4.902   1.548   2.882  0.0578  1.4827 -1.4064
 9992TIP3   OH254170   4.373   6.134   1.600 -0.9208 -0.0487 -0.1702
 9992TIP3    H154171   4.420   6.217   1.592  1.5170 -1.4681 -1.4787
 9992TIP3    H254172   4.325   6.125   1.518 -3.6972  1.3690  1.1341
 9993TIP3   OH254173   4.597   2.863   2.044  0.0230 -0.1371  0.4486
 9993TIP3    H154174   4.539   2.936   2.065 -1.0658 -1.1235  1.0307
 9993TIP3    H254175   4.681   2.887   2.083 -0.2874  0.8424  0.5383
 9994TIP3   OH254176   3.464   4.529   3.431  0.2475  0.2158 -0.2896
 9994TIP3    H154177   3.512   4.504   3.352  0.7839 -0.1058  0.1345
 9994TIP3    H254178   3.505   4.479   3.501 -1.1529 -0.5975 -0.0113
 9995TIP3   OH254179   0.296   5.096   2.546  0.0310  0.5698  0.3703
 9995TIP3    H154180   0.385   5.068   2.568 -0.3724 -1.2372 -0.0933
 9995TIP3    H254181   0.250   5.014   2.527 -2.0129  1.3656  1.5634
 9996TIP3   OH254182   4.524   4.111   0.924 -0.2899 -0.3115  0.3930
 9996TIP3    H154183   4.590   4.047   0.895 -0.3645 -0.2929  0.1792
 9996TIP3    H254184   4.470   4.064   0.987  1.1463  0.2308  2.1136
 9997TIP3   OH254185   5.073   3.284   1.444  0.2775  0.0392  0.5784
 9997TIP3    H154186   4.977   3.282   1.445  0.2561  0.5080  0.1120
 9997TIP3    H254187   5.097   3.270   1.352  0.6705 -0.4314  0.7488
 9998TIP3   OH254188   2.911   5.960   1.724  0.3374  0.5518 -0.3392
 9998TIP3    H154189   2.940   5.951   1.814  0.3381  1.6397 -0.2174
 9998TIP3    H254190   2.978   6.014   1.682  0.6235 -0.3932 -1.1475
 9999TIP3   OH254191   3.922   1.620   1.267  0.3705  0.3015 -0.2546
 9999TIP3    H154192   3.901   1.530   1.242  1.7209 -0.0035 -0.3882
 9999TIP3    H254193   3.895   1.673   1.192 -1.5269  0.1783  0.3007
10000TIP3   OH254194   6.041   3.235   2.789 -0.1640  0.2096  0.4568
10000TIP3    H154195   5.969   3.280   2.744  0.3503  0.3186 -0.2610
10000TIP3    H254196   6.067   3.296   2.859  0.5311  1.0523 -0.5118
10001TIP3   OH254197   6.474   0.674   2.099  0.3328  0.2819  0.8381
10001TIP3    H154198   6.429   0.624   2.030 -2.6600  0.1743  2.7068
10001TIP3    H254199   6.452   0.765   2.080  0.5622  0.3622  0.9585
10002TIP3   OH254200   3.865   0.602   3.510  0.1742  0.1602  0.3087
10002TIP3    H154201   3.957   0.612   3.485  0.4108 -1.9035  0.1374
10002TIP3    H254202   3.834   0.527   3.459 -2.1045  1.7824 -0.8432
10003TIP3   OH254203   0.628   2.490   3.352  0.2926  0.0736  0.0367
10003TIP3    H154204   0.662   2.401   3.340 -0.9176 -0.5224  0.8259
10003TIP3    H254205   0.544   2.478   3.397 -1.0264  1.4514 -1.8500
10004TIP3   OH254206   3.147   2.259   3.562  0.2369  0.0667 -0.5184
10004TIP3    H154207   3.176   2.193   3.625 -1.3312  1.4374  1.8009
10004TIP3    H254208   3.227   2.308   3.542  0.6686  0.0963  1.0824
10005TIP3   OH254209   4.570   6.099   0.436 -0.4790 -0.6087 -0.1447
10005TIP3    H154210   4.557   6.008   0.411 -0.1050 -1.1355  1.4195
10005TIP3    H254211   4.499   6.147   0.392 -0.1654 -1.4987 -1.6780
10006TIP3   OH254212   0.089   3.747   4.143 -0.0032 -0.2139 -0.3208
10006TIP3    H154213   0.164   3.800   4.171 -0.3852  0.4724 -0.5645
10006TIP3    H254214   0.019   3.811   4.130 -0.8162 -0.9242  0.5178
10007TIP3   OH254215   0.338   2.874   1.079  0.7137  0.4129  0.3130
10007TIP3    H154216   0.347   2.882   1.174 -2.8096  0.5157  0.7615
10007TIP3    H254217   0.323   2.781   1.064 -0.7501  0.6542  0.1449
10008TIP3   OH254218   2.847   6.644   1.910  0.3205  0.3973  0.7827
10008TIP3    H154219   2.800   6.709   1.962  0.0208  0.6648  0.1929
10008TIP3    H254220   2.795   6.635   1.830  0.9551  0.2585  0.3775
10009TIP3   OH254221   5.129   0.703   2.796 -0.7214  0.5525  0.3603
10009TIP3    H154222   5.180   0.631   2.833  2.0523  2.2634  0.1134
10009TIP3    H254223   5.116   0.678   2.704 -0.3675  0.0591  0.4414
10010TIP3   OH254224   2.677   3.624   1.446 -0.4526 -0.2939 -0.3541
10010TIP3    H154225   2.755   3.642   1.498 -0.7916 -0.8000  0.3534
10010TIP3    H254226   2.661   3.705   1.398  1.5505 -0.7439 -1.9304
10011TIP3   OH254227   0.297   5.718   3.352 -0.3129  0.4471 -0.0003
10011TIP3    H154228   0.281   5.793   3.295 -1.1715 -0.1339 -0.5429
10011TIP3    H254229   0.383   5.685   3.326 -1.1623 -0.4907 -1.7688
10012TIP3   OH254230   4.494   3.565   2.612 -0.1241  0.3181  0.2808
10012TIP3    H154231   4.489   3.496   2.679 -1.2124  1.2420  1.1944
10012TIP3    H254232   4.404   3.597   2.604 -0.0099  0.2456 -1.6416
10013TIP3   OH254233   0.567   1.993   3.672  0.8967 -0.0256 -0.3219
10013TIP3    H154234   0.584   2.054   3.744 -0.7432 -1.4596  1.3938
10013TIP3    H254235   0.650   1.947   3.659  0.8195 -0.8594  1.8069
10014TIP3   OH254236   3.804   0.210   2.581 -0.4537  0.4772 -0.1302
10014TIP3    H154237   3.734   0.145   2.578  0.4967 -0.5783  0.0024
10014TIP3    H254238   3.779   0.268   2.653 -1.8933  0.9705 -0.9796
10015TIP3   OH254239   2.937   5.098   1.786  0.2265 -0.0302  0.0496
10015TIP3    H154240   2.890   5.177   1.810 -0.4859  0.1660 -1.8337
10015TIP3    H254241   2.959   5.109   1.693 -0.8654 -2.4644 -0.5971
10016TIP3   OH254242   6.466   2.306   0.667  0.2707 -0.0871 -0.5178
10016TIP3    H154243   6.492   2.228   0.617 -1.3274 -0.6644 -0.4958
10016TIP3    H254244   6.478   2.280   0.759 -1.2227 -0.7094 -0.4691
10017TIP3   OH254245   1.919   4.191   4.035 -0.0386 -0.2428  0.0663
10017TIP3    H154246   1.883   4.195   4.123 -1.5884  1.4853 -0.5582
10017TIP3    H254247   2.013   4.204   4.045 -0.0483 -1.1374  1.5040
10018TIP3   OH254248   6.417   4.964   1.269 -0.2201  0.0261 -0.2024
10018TIP3    H154249   6.387   4.967   1.360  0.4724 -1.8185  0.1301
10018TIP3    H254250   6.351   5.013   1.220 -1.4343 -0.2668  1.0718
10019TIP3   OH254251   1.428   5.319   1.652 -0.4790 -0.2710  0.6776
10019TIP3    H154252   1.503   5.291   1.598  0.3727  0.3377  1.5168
10019TIP3    H254253   1.352   5.284   1.606  0.1945  0.4158 -1.0510
10020TIP3   OH254254   2.533   1.975   1.030  0.0985 -0.0408 -0.5217
10020TIP3    H154255   2.469   1.907   1.050 -0.7260  0.7993 -0.1966
10020TIP3    H254256   2.499   2.018   0.951  1.0624 -0.5409 -1.2369
10021TIP3   OH254257   2.608   4.129   2.146 -0.4274 -0.1431 -0.1163
10021TIP3    H154258   2.689   4.176   2.166 -1.1076  0.8222  0.4972
10021TIP3    H254259   2.549   4.153   2.217 -0.7483 -2.1640  0.3602
10022TIP3   OH254260   5.283   4.406   1.252 -0.2570  0.2023  0.2470
10022TIP3    H154261   5.244   4.403   1.164 -0.1865  0.6963  0.2005
10022TIP3    H254262   5.298   4.499   1.269  2.1936 -0.0324 -0.2973
10023TIP3   OH254263   2.464   1.345   1.806 -0.1661 -0.0899  0.0288
10023TIP3    H154264   2.407   1.296   1.866 -1.7258  0.1514 -1.2053
10023TIP3    H254265   2.420   1.429   1.796 -0.0124 -0.1846 -1.5720
10024TIP3   OH254266   0.888   1.958   2.428 -0.7893  0.2975 -0.6266
10024TIP3    H154267   0.905   1.877   2.476 -0.8439 -0.0424 -1.1705
10024TIP3    H254268   0.962   1.965   2.367 -0.9608  0.4769 -0.8169
10025TIP3   OH254269   6.399   0.217   0.669 -0.7439  0.0046 -0.4233
10025TIP3    H154270   6.438   0.247   0.751  1.2334 -0.0185 -1.2985
10025TIP3    H254271   6.341   0.145   0.694 -0.3908  0.1794  0.9623
10026TIP3   OH254272   2.809   2.804   0.837 -0.0687 -0.5034  0.5183
10026TIP3    H154273   2.784   2.808   0.930  0.6117  1.0124  0.6769
10026TIP3    H254274   2.901   2.776   0.838  0.1286  0.1229  0.3526
10027TIP3   OH254275   0.946   3.581   0.866 -0.1110  0.2226  0.2986
10027TIP3    H154276   0.968   3.488   0.854 -0.2494  0.0295  1.4826
10027TIP3    H254277   0.851   3.583   0.861 -0.0552  0.5855 -1.5017
10028TIP3   OH254278   4.281   3.691   3.261 -1.0013  0.1931  0.0554
10028TIP3    H154279   4.299   3.630   3.189  0.2837  0.1707  0.3823
10028TIP3    H254280   4.342   3.666   3.330 -1.1337  1.2298  0.5618
10029TIP3   OH254281   1.735   4.442   3.213 -0.1964  0.0529 -0.8819
10029TIP3    H154282   1.667   4.376   3.195  0.5693 -1.4463  1.3184
10029TIP3    H254283   1.817   4.398   3.194  0.2562  1.4639 -2.3797
10030TIP3   OH254284   2.415   3.554   1.389 -0.2722 -0.6040 -0.0700
10030TIP3    H154285   2.374   3.552   1.476  1.2666 -1.0560  0.6704
10030TIP3    H254286   2.506   3.579   1.405  0.0531 -0.7063 -1.5626
10031TIP3   OH254287   0.539   3.432   3.460 -0.2162 -0.0360  0.4237
10031TIP3    H154288   0.452   3.394   3.473 -0.2314  0.3325  1.5135
10031TIP3    H254289   0.547   3.498   3.529 -0.2443  2.0811 -1.4790
10032TIP3   OH254290   1.343   0.151   2.263  0.4415 -0.1353  0.3633
10032TIP3    H154291   1.416   0.139   2.201 -0.2231 -3.0569  0.0069
10032TIP3    H254292   1.265   0.125   2.214 -0.6018  0.8887  1.4034
10033TIP3   OH254293   2.469   4.961   1.276 -0.3190 -0.0373  0.1041
10033TIP3    H154294   2.426   4.893   1.225 -2.9575  1.5280  0.0662
10033TIP3    H254295   2.511   5.017   1.211 -0.7629  0.0624 -0.0978
10034TIP3   OH254296   4.837   1.602   1.253  0.2510  0.0218  0.1191
10034TIP3    H154297   4.825   1.637   1.341 -0.9812 -0.7768  0.2932
10034TIP3    H254298   4.838   1.679   1.196  2.3141  0.6559  0.9030
10035TIP3   OH254299   4.503   1.174   4.066 -0.4001  0.1241 -0.0287
10035TIP3    H154300   4.464   1.203   4.149 -1.5354  0.6432 -0.7139
10035TIP3    H254301   4.535   1.254   4.025 -0.6495 -0.0052 -0.4841
10036TIP3   OH254302   1.057   2.966   2.161  0.3697  0.7778  0.0683
10036TIP3    H154303   1.115   2.911   2.107 -0.2265  0.5207 -0.3103
10036TIP3    H254304   1.081   2.942   2.251 -0.1203 -0.3734 -0.0880
10037TIP3   OH254305   4.262   4.249   1.021  0.2617 -0.0604 -0.1220
10037TIP3    H154306   4.299   4.245   1.110  0.1104  0.0157 -0.0551
10037TIP3    H254307   4.335   4.278   0.966  0.0155  1.1886  0.1798
10038TIP3   OH254308   0.768   6.350   0.518 -0.0862 -0.0525 -0.2522
10038TIP3    H154309   0.779   6.415   0.587  1.4968  0.2283 -0.7235
10038TIP3    H254310   0.822   6.276   0.546 -0.6610 -0.5637 -0.4601
10039TIP3   OH254311   6.289   0.869   0.740  0.5311 -0.0712  0.0670
10039TIP3    H154312   6.364   0.928   0.746  1.0185 -0.6101 -0.5990
10039TIP3    H254313   6.320   0.788   0.781  0.3275 -0.3072 -0.2477
10040TIP3   OH254314   4.353   5.309   3.432  0.3474 -0.2203 -0.2284
10040TIP3    H154315   4.383   5.224   3.465  0.6412  0.0609  0.2363
10040TIP3    H254316   4.401   5.373   3.483  0.3146  0.2328 -0.7527
10041TIP3   OH254317   6.268   3.396   2.534  0.4956 -0.2999  0.0152
10041TIP3    H154318   6.249   3.405   2.628  0.4389  0.7668 -0.0819
10041TIP3    H254319   6.213   3.323   2.505 -1.9721  1.3705  0.1641
10042TIP3   OH254320   6.223   3.043   3.520  0.3283  0.4785 -0.5159
10042TIP3    H154321   6.204   3.078   3.607  0.1383 -0.3808 -0.1949
10042TIP3    H254322   6.169   3.094   3.460  0.5269  1.1355 -0.1401
10043TIP3   OH254323   3.127   4.258   3.963 -0.4003 -0.1030 -0.1241
10043TIP3    H154324   3.220   4.242   3.948  0.1017  2.0930  0.3141
10043TIP3    H254325   3.092   4.281   3.877 -0.4775 -0.5629 -0.2207
10044TIP3   OH254326   2.189   2.032   3.743  0.2011 -0.2627  0.5230
10044TIP3    H154327   2.275   2.063   3.712  0.5078 -0.6414  0.9875
10044TIP3    H254328   2.130   2.106   3.726  0.4172 -0.3478 -0.6838
10045TIP3   OH254329   0.547   5.571   1.897  0.3650 -0.1220  0.0146
10045TIP3    H154330   0.468   5.556   1.846 -0.2276 -0.8212  1.0950
10045TIP3    H254331   0.607   5.501   1.870  0.3058 -0.0913 -0.1984
10046TIP3   OH254332   0.692   4.514   1.361 -0.2832  0.3317 -0.0213
10046TIP3    H154333   0.598   4.497   1.363 -0.0222 -1.2100 -0.1388
10046TIP3    H254334   0.728   4.461   1.432  0.4925  1.0741  0.1637
10047TIP3   OH254335   4.530   1.493   2.088 -0.0577  0.3976  0.3003
10047TIP3    H154336   4.559   1.581   2.111  1.4860  0.0380 -0.1388
10047TIP3    H254337   4.527   1.493   1.992  0.1765 -0.0888  0.2905
10048TIP3   OH254338   4.029   4.417   2.131 -0.1749  0.2778  0.4209
10048TIP3    H154339   4.021   4.338   2.184 -1.0601  1.2501  1.7964
10048TIP3    H254340   3.992   4.393   2.046  0.3681 -1.0180  0.5348
10049TIP3   OH254341   5.256   4.081   2.842 -0.2380  0.3326  0.2648
10049TIP3    H154342   5.256   4.072   2.937 -0.8419  2.3346  0.5092
10049TIP3    H254343   5.263   3.992   2.809 -1.3333 -0.5196  2.1917
10050TIP3   OH254344   3.029   2.227   0.738 -0.3106  0.0918 -0.3616
10050TIP3    H154345   2.996   2.297   0.794 -0.8911 -0.0545 -0.5145
10050TIP3    H254346   2.955   2.204   0.682 -0.3376 -1.0996  0.1335
10051TIP3   OH254347   4.863   3.231   2.201  0.8314 -0.1722  0.1012
10051TIP3    H154348   4.868   3.136   2.210 -1.9985 -0.5567 -1.1443
10051TIP3    H254349   4.860   3.264   2.291 -0.5026 -1.4880  0.5715
10052TIP3   OH254350   6.045   5.391   0.969  0.2977  0.4523  0.2502
10052TIP3    H154351   6.136   5.386   0.940  0.5137 -1.5551  1.1042
10052TIP3    H254352   6.001   5.320   0.923 -0.1823 -0.3861  1.9253
10053TIP3   OH254353   3.913   1.532   2.226 -0.0928  0.2104  0.1671
10053TIP3    H154354   3.876   1.454   2.184 -0.6824 -0.1730  1.3680
10053TIP3    H254355   3.846   1.600   2.212 -0.3694  0.0360  0.6387
10054TIP3   OH254356   6.525   4.858   2.962  0.3734 -0.0887  0.4641
10054TIP3    H154357   6.534   4.885   2.871 -1.2814  0.7629  0.5200
10054TIP3    H254358   6.473   4.778   2.960  0.4724 -0.1607  0.6548
10055TIP3   OH254359   4.829   2.205   2.696  0.1161 -0.7645 -0.2257
10055TIP3    H154360   4.809   2.127   2.748  0.2711 -1.3152 -0.9743
10055TIP3    H254361   4.772   2.199   2.620 -1.2181  0.8289  0.5727
10056TIP3   OH254362   3.764   5.267   2.482  0.2154  0.1547  0.1693
10056TIP3    H154363   3.846   5.305   2.512 -0.1216 -1.3119  3.2937
10056TIP3    H254364   3.699   5.336   2.495  0.7718  1.0532 -1.5848
10057TIP3   OH254365   4.494   3.446   0.844  0.5038 -0.2121  0.3715
10057TIP3    H154366   4.522   3.436   0.753  1.5219  0.2397  0.6091
10057TIP3    H254367   4.475   3.540   0.852 -0.7216 -0.4424  0.3325
10058TIP3   OH254368   6.059   4.949   2.141 -0.4455  0.0337  0.3470
10058TIP3    H154369   6.035   4.916   2.055 -1.2933 -0.4344  0.7489
10058TIP3    H254370   6.039   5.043   2.137  1.8286  0.5548 -0.7430
10059TIP3   OH254371   5.835   2.408   3.824 -0.0049  0.6311  0.9174
10059TIP3    H154372   5.856   2.492   3.863 -0.2938  1.0012  0.3029
10059TIP3    H254373   5.917   2.376   3.787 -0.1554  1.3041 -0.0518
10060TIP3   OH254374   5.322   5.115   1.527  0.6976  0.4989 -0.4328
10060TIP3    H154375   5.335   5.060   1.450  0.3038  1.0936 -0.9394
10060TIP3    H254376   5.233   5.148   1.518 -0.1245 -1.0427  1.3538
10061TIP3   OH254377   4.117   4.254   3.515 -0.1911 -0.5621  0.3406
10061TIP3    H154378   4.182   4.272   3.583  1.9959  1.9607 -2.1984
10061TIP3    H254379   4.056   4.328   3.520 -1.1933 -1.3764  0.7207
10062TIP3   OH254380   3.255   3.982   2.479 -0.4988 -0.4022  0.2963
10062TIP3    H154381   3.176   3.953   2.526 -0.6216 -0.2887  0.1583
10062TIP3    H254382   3.325   3.929   2.517 -0.5902 -0.2726  0.6486
10063TIP3   OH254383   3.698   3.320   2.882  0.6312 -0.0206 -0.0045
10063TIP3    H154384   3.630   3.331   2.948 -0.0557 -2.4378 -0.1915
10063TIP3    H254385   3.653   3.338   2.799  0.9598  1.0549  0.0465
10064TIP3   OH254386   1.451   4.201   3.487 -0.1432 -0.0166  0.5856
10064TIP3    H154387   1.531   4.154   3.512  0.2672 -0.4878 -1.4256
10064TIP3    H254388   1.387   4.175   3.553  1.0986 -0.3872  1.6995
10065TIP3   OH254389   3.921   4.104   1.705  0.0034  0.4650 -0.3992
10065TIP3    H154390   3.925   4.009   1.719 -0.9902  0.4936  0.1555
10065TIP3    H254391   3.859   4.115   1.633 -1.1890  0.7608  0.6314
10066TIP3   OH254392   1.834   1.709   3.680  0.4395  0.1156 -0.4167
10066TIP3    H154393   1.874   1.753   3.754  0.2842 -0.3189 -0.0665
10066TIP3    H254394   1.772   1.772   3.644  0.8422  0.4926 -0.4634
10067TIP3   OH254395   6.557   2.636   2.884  0.0038  0.4747 -0.0534
10067TIP3    H154396   6.648   2.643   2.912 -0.3090  1.5135  0.7778
10067TIP3    H254397   6.552   2.688   2.804  0.3540 -0.4484 -0.6918
10068TIP3   OH254398   4.606   6.333   3.094  0.0065  0.1726 -0.0710
10068TIP3    H154399   4.621   6.404   3.156 -0.0140  0.7953 -0.7632
10068TIP3    H254400   4.673   6.346   3.027  0.2344 -0.6830 -0.0181
10069TIP3   OH254401   4.620   3.075   0.862  0.4288 -0.5023  0.4468
10069TIP3    H154402   4.649   2.999   0.811  1.0219 -0.0302  0.0645
10069TIP3    H254403   4.637   3.050   0.953 -0.4027 -1.2521  0.4102
10070TIP3   OH254404   1.680   5.109   0.698 -0.5058 -0.6111 -0.5692
10070TIP3    H154405   1.585   5.105   0.695 -0.7648  0.8647  2.0970
10070TIP3    H254406   1.703   5.066   0.780  1.0357  0.0189 -0.6442
10071TIP3   OH254407   5.078   4.546   1.550 -0.4756 -0.0062 -0.5227
10071TIP3    H154408   5.042   4.633   1.570  1.3110  1.0441 -1.6428
10071TIP3    H254409   5.067   4.536   1.456 -0.4765 -0.9271 -0.4320
10072TIP3   OH254410   3.714   6.683   1.112  0.5545 -0.0922 -0.2974
10072TIP3    H154411   3.739   6.718   1.026 -1.9684  2.4097 -0.1502
10072TIP3    H254412   3.622   6.659   1.102  0.1557  0.4337  1.7557
10073TIP3   OH254413   5.745   4.201   1.555  0.1078  0.3535 -0.0337
10073TIP3    H154414   5.802   4.156   1.492 -1.4665 -0.4780 -0.9282
10073TIP3    H254415   5.692   4.260   1.502 -0.4297  0.5078  0.6641
10074TIP3   OH254416   4.789   0.243   1.620  0.3078 -0.2584  0.2342
10074TIP3    H154417   4.826   0.189   1.550  0.8963 -0.5608  0.7572
10074TIP3    H254418   4.839   0.217   1.698 -2.0324 -1.8118  1.3283
10075TIP3   OH254419   2.579   5.257   4.437  0.5240  0.6609 -0.6732
10075TIP3    H154420   2.514   5.214   4.382  1.3718  0.3425 -1.4439
10075TIP3    H254421   2.555   5.232   4.526 -1.0958  1.4961 -0.8298
10076TIP3   OH254422   0.404   0.541   2.443  0.7584 -0.0834 -0.9621
10076TIP3    H154423   0.346   0.496   2.505  0.3231  2.8988  0.9759
10076TIP3    H254424   0.491   0.504   2.462  0.0918 -1.9606 -1.3407
10077TIP3   OH254425   0.097   0.869   1.529 -0.1649 -0.0336  0.1064
10077TIP3    H154426   0.012   0.896   1.564  1.4227  2.7405  2.1463
10077TIP3    H254427   0.141   0.825   1.602  1.1620  1.0091 -0.0264
10078TIP3   OH254428   1.028   2.513   1.489 -0.2266 -0.4984  0.7312
10078TIP3    H154429   0.936   2.493   1.508 -0.8578  2.4021  1.3246
10078TIP3    H254430   1.029   2.528   1.394  0.0647 -2.3150  0.4296
10079TIP3   OH254431   2.519   6.672   4.600 -0.1230 -0.0823 -0.0187
10079TIP3    H154432   2.553   6.582   4.597 -0.4435 -0.2223  0.3981
10079TIP3    H254433   2.518   6.701   4.508 -0.3468 -0.6297 -0.1923
10080TIP3   OH254434   3.026   5.690   2.950 -0.3556  0.0436 -0.2040
10080TIP3    H154435   3.015   5.743   3.029 -0.6150  1.3550 -1.0800
10080TIP3    H254436   2.950   5.632   2.949 -0.1073 -0.3156  0.7371
10081TIP3   OH254437   0.942   2.763   0.871 -0.0338  0.0940 -0.2681
10081TIP3    H154438   0.930   2.762   0.776 -0.6616  0.3744 -0.1974
10081TIP3    H254439   1.034   2.787   0.884 -0.1111  0.6961 -0.7974
10082TIP3   OH254440   4.629   2.085   1.428 -0.5025  0.2235  0.8328
10082TIP3    H154441   4.632   2.014   1.492  0.6698  0.5267  1.1283
10082TIP3    H254442   4.600   2.043   1.347 -0.8104 -0.3880  1.2488
10083TIP3   OH254443   3.425   0.377   2.679  0.3594 -0.1063 -0.0058
10083TIP3    H154444   3.332   0.400   2.675 -0.0676 -1.4128  1.4051
10083TIP3    H254445   3.456   0.417   2.760  0.9969  0.2167 -0.4084
10084TIP3   OH254446   1.904   1.593   1.373 -0.4659 -0.6055  0.1602
10084TIP3    H154447   1.837   1.627   1.432 -2.0452 -0.1295 -1.7733
10084TIP3    H254448   1.900   1.498   1.384 -0.1497 -0.4856  1.3894
10085TIP3   OH254449   4.248   3.589   3.525 -0.2507 -0.5055 -0.3531
10085TIP3    H154450   4.170   3.578   3.579 -0.9208 -1.0988 -1.3909
10085TIP3    H254451   4.295   3.506   3.534  1.9027  0.8728  2.6513
10086TIP3   OH254452   0.413   5.680   3.064 -0.6664 -0.3182 -0.1453
10086TIP3    H154453   0.334   5.685   3.010 -0.8761 -0.5263  0.1361
10086TIP3    H254454   0.420   5.587   3.086  0.3537 -0.5051 -1.1888
10087TIP3   OH254455   0.803   0.795   2.244 -0.0896 -0.1868 -0.0335
10087TIP3    H154456   0.841   0.882   2.230 -0.4447 -0.1510 -0.8364
10087TIP3    H254457   0.759   0.800   2.328  0.0890  0.3444  0.0284
10088TIP3   OH254458   5.698   6.201   3.518  0.3837 -0.7166  0.2438
10088TIP3    H154459   5.670   6.277   3.467  1.0067 -1.0939 -0.6915
10088TIP3    H254460   5.627   6.138   3.509 -1.0534  0.4510  2.6668
10089TIP3   OH254461   5.707   0.823   0.853 -0.1953  0.2022  0.3389
10089TIP3    H154462   5.679   0.866   0.934 -0.2976  1.4926 -0.3550
10089TIP3    H254463   5.728   0.895   0.794 -1.6274 -0.6810 -1.3299
10090TIP3   OH254464   2.902   3.619   3.029 -0.2519 -0.1047 -0.7437
10090TIP3    H154465   2.874   3.550   2.968  1.2969 -1.4301 -0.0359
10090TIP3    H254466   2.900   3.577   3.115 -1.7274  1.5364  0.0789
10091TIP3   OH254467   3.374   2.752   0.541 -0.0927  0.7095 -0.2315
10091TIP3    H154468   3.432   2.714   0.475 -0.8350 -0.7274 -0.1014
10091TIP3    H254469   3.294   2.775   0.494 -0.1474  0.8793 -0.0592
10092TIP3   OH254470   6.327   0.398   3.687 -0.0223  0.1367  0.3019
10092TIP3    H154471   6.366   0.415   3.601  0.2580  0.7035  0.5424
10092TIP3    H254472   6.247   0.450   3.687 -0.4589 -0.5092  0.0697
10093TIP3   OH254473   6.568   2.238   1.824 -0.0628  0.3676 -0.0413
10093TIP3    H154474   6.543   2.211   1.736  2.5064  1.4519 -1.2258
10093TIP3    H254475   6.627   2.169   1.855 -1.2278 -0.1914  1.0306
10094TIP3   OH254476   6.581   0.359   1.662 -0.2349 -0.5089  0.0623
10094TIP3    H154477   6.502   0.310   1.687 -1.5650  1.5365  0.0729
10094TIP3    H254478   6.567   0.380   1.570 -0.3703  1.0112  0.4128
10095TIP3   OH254479   4.909   6.399   3.505 -0.1003 -0.3288 -0.4082
10095TIP3    H154480   4.877   6.424   3.592 -2.0446 -1.0493 -0.8519
10095TIP3    H254481   4.943   6.480   3.468 -1.8457  0.6415 -0.0108
10096TIP3   OH254482   5.357   0.477   1.972 -0.1237  0.0754 -0.1993
10096TIP3    H154483   5.324   0.390   1.996  0.8972 -0.6094 -1.1735
10096TIP3    H254484   5.301   0.538   2.020 -0.5480 -1.1272  0.8830
10097TIP3   OH254485   2.309   6.291   2.363  0.1931 -0.9009 -0.2687
10097TIP3    H154486   2.283   6.278   2.455  0.7416 -3.3812 -0.3803
10097TIP3    H254487   2.226   6.299   2.316 -0.1671  3.8071  0.6632
10098TIP3   OH254488   5.704   4.509   1.973  0.8871  0.0667 -0.1730
10098TIP3    H154489   5.719   4.433   2.029 -0.0377  0.2709  0.3677
10098TIP3    H254490   5.653   4.475   1.899 -0.2469  0.3152  0.4891
10099TIP3   OH254491   6.332   2.276   1.598  0.5179 -0.0153 -0.6304
10099TIP3    H154492   6.320   2.308   1.509  1.6808  0.7841 -0.5197
10099TIP3    H254493   6.293   2.344   1.654  1.2700  0.2975 -0.4732
10100TIP3   OH254494   4.851   4.346   3.247 -0.3903  0.5109 -0.3754
10100TIP3    H154495   4.925   4.346   3.186 -0.0330 -0.6697  0.0409
10100TIP3    H254496   4.890   4.321   3.331 -1.1852  0.3941 -0.0418
10101TIP3   OH254497   1.884   3.359   3.237 -0.2768 -0.1515 -0.7490
10101TIP3    H154498   1.941   3.436   3.233  0.8594 -0.9739 -0.8005
10101TIP3    H254499   1.811   3.387   3.293  0.4241  0.7611 -0.2494
10102TIP3   OH254500   4.342   0.803   2.181  0.5114  0.0683 -0.3625
10102TIP3    H154501   4.408   0.812   2.113 -0.3386 -1.8643 -1.5354
10102TIP3    H254502   4.278   0.872   2.162  1.8341  1.5724  0.4371
10103TIP3   OH254503   6.437   5.803   1.422 -0.1373 -0.1172  0.4754
10103TIP3    H154504   6.495   5.875   1.399 -0.4488  0.3126  1.0108
10103TIP3    H254505   6.491   5.746   1.477 -0.3921  0.6159  1.5177
10104TIP3   OH254506   6.140   3.595   2.121 -0.3060  0.6275  0.3260
10104TIP3    H154507   6.217   3.569   2.172 -0.0332 -0.3311 -0.5454
10104TIP3    H254508   6.091   3.653   2.180  1.2173  1.5026  0.7882
10105TIP3   OH254509   0.153   2.488   3.383  0.6418  0.2417 -0.2330
10105TIP3    H154510   0.157   2.516   3.474  0.3474 -0.1065 -0.1111
10105TIP3    H254511   0.065   2.452   3.372  1.6777 -2.6604  0.2175
10106TIP3   OH254512   4.398   4.226   1.253  0.3677 -0.5102  0.2602
10106TIP3    H154513   4.355   4.268   1.327  0.2010  2.0865 -1.1881
10106TIP3    H254514   4.490   4.221   1.278  0.4216  0.9330  0.4242
10107TIP3   OH254515   0.271   3.282   1.604  0.0082  0.2518  0.1579
10107TIP3    H154516   0.296   3.198   1.567 -2.8317 -0.1478 -1.0904
10107TIP3    H254517   0.277   3.343   1.530 -2.3820  0.1406 -0.2095
10108TIP3   OH254518   5.374   5.606   1.807 -0.5070  0.6090  0.3723
10108TIP3    H154519   5.384   5.674   1.740 -1.7375 -0.9850 -1.5213
10108TIP3    H254520   5.313   5.543   1.769  1.5301 -2.2444  1.4736
10109TIP3   OH254521   5.343   6.017   2.233  0.4415 -0.2892 -0.6580
10109TIP3    H154522   5.370   5.929   2.256  2.0613  0.4150  0.3009
10109TIP3    H254523   5.386   6.034   2.149  0.7005 -0.1790 -0.5052
10110TIP3   OH254524   2.847   4.330   1.425 -0.2091 -0.6126  0.3541
10110TIP3    H154525   2.807   4.348   1.511 -0.2435 -0.0615  0.2260
10110TIP3    H254526   2.815   4.400   1.369 -1.1269 -1.6359 -0.4212
10111TIP3   OH254527   1.811   3.050   1.099 -0.2225 -0.7428 -0.4342
10111TIP3    H154528   1.859   3.035   1.179  0.1214 -0.8212 -0.6540
10111TIP3    H254529   1.877   3.052   1.030 -0.5070 -0.6408 -0.7136
10112TIP3   OH254530   0.731   0.100   4.719  0.1229  0.2428 -0.2739
10112TIP3    H154531   0.745   0.024   4.662 -2.5296  0.0904 -0.8474
10112TIP3    H254532   0.752   0.067   4.807  1.1687 -0.4578 -0.7560
10113TIP3   OH254533   0.031   5.140   1.539  0.8774 -0.4714 -0.5754
10113TIP3    H154534  -0.058   5.168   1.562  2.2849  2.5384  2.0233
10113TIP3    H254535   0.039   5.158   1.445 -0.9531  0.0521 -0.6677
10114TIP3   OH254536   0.346   3.809   2.640 -0.5415 -0.3063  0.1973
10114TIP3    H154537   0.302   3.804   2.555 -1.5044 -0.1370  0.6664
10114TIP3    H254538   0.413   3.876   2.629 -1.7463  0.9042  0.0315
10115TIP3   OH254539   5.404   0.367   1.005  0.1364  0.4066 -0.0398
10115TIP3    H154540   5.433   0.458   1.016 -1.0511  0.9979 -1.4583
10115TIP3    H254541   5.325   0.373   0.952 -1.2352 -1.3115  1.6623
10116TIP3   OH254542   2.803   4.928   3.609  0.1298 -0.1657 -0.0018
10116TIP3    H154543   2.850   4.929   3.526 -0.8197  0.8736 -0.5609
10116TIP3    H254544   2.850   4.989   3.665 -0.0701  0.2594 -0.2888
10117TIP3   OH254545   0.315   2.637   3.591 -0.2589  0.5054 -0.4969
10117TIP3    H154546   0.348   2.636   3.502  0.2919 -1.0371 -0.3098
10117TIP3    H254547   0.364   2.707   3.634  0.7727  0.1004 -0.9616
10118TIP3   OH254548   4.148   5.771   3.443  0.1372 -0.5004 -0.2074
10118TIP3    H154549   4.187   5.852   3.477 -0.5102  0.5619 -1.8738
10118TIP3    H254550   4.071   5.757   3.498 -0.8088  1.1000 -1.0404
10119TIP3   OH254551   1.200   2.783   0.470  0.2253  0.3479  0.3797
10119TIP3    H154552   1.160   2.704   0.507 -1.6160  0.7506 -0.6124
10119TIP3    H254553   1.152   2.856   0.511  0.7691  0.9016  0.0532
10120TIP3   OH254554   1.446   5.665   3.765  0.5177 -0.5573 -0.7897
10120TIP3    H154555   1.503   5.641   3.692  1.0439  0.6074 -0.7745
10120TIP3    H254556   1.398   5.742   3.734 -0.3496 -0.9389 -0.4366
10121TIP3   OH254557   4.536   5.974   2.845  0.7498  0.0219  0.1307
10121TIP3    H154558   4.519   6.053   2.794  0.3200  1.1288  1.9085
10121TIP3    H254559   4.515   5.902   2.785  0.9001  1.2390 -1.4405
10122TIP3   OH254560   2.604   4.287   0.591 -0.0403 -0.0048  0.1381
10122TIP3    H154561   2.684   4.300   0.641  0.4468 -0.2204 -0.5699
10122TIP3    H254562   2.625   4.216   0.530 -0.7819 -0.0906 -0.0262
10123TIP3   OH254563   4.366   5.896   1.749 -0.0364  0.0705 -0.7217
10123TIP3    H154564   4.444   5.855   1.713 -1.0295 -0.8903 -1.8487
10123TIP3    H254565   4.371   5.987   1.720  0.4935 -0.0674 -1.0755
10124TIP3   OH254566   1.033   1.662   3.770 -0.2022  0.2172 -0.2559
10124TIP3    H154567   1.102   1.597   3.780  0.1278  0.8561  2.4044
10124TIP3    H254568   0.956   1.611   3.742  0.6641 -0.9002 -0.6711
10125TIP3   OH254569   6.015   5.707   2.158  0.4881  0.3062  0.1448
10125TIP3    H154570   6.038   5.617   2.181  0.6516 -0.0889 -1.4296
10125TIP3    H254571   5.920   5.710   2.164  0.5441  0.3747  1.2974
10126TIP3   OH254572   2.129   4.156   3.820 -0.1087 -0.4263  0.0952
10126TIP3    H154573   2.135   4.171   3.914 -0.0927 -1.0364  0.1946
10126TIP3    H254574   2.195   4.089   3.802 -1.6888 -2.0339  0.0371
10127TIP3   OH254575   4.625   6.688   3.851 -0.7763 -0.0521  0.0628
10127TIP3    H154576   4.691   6.754   3.826 -0.6745 -0.2833 -0.2804
10127TIP3    H254577   4.550   6.740   3.879 -0.6176  0.2137  0.0103
10128TIP3   OH254578   4.759   6.208   1.619  0.0302 -0.3922  0.0114
10128TIP3    H154579   4.707   6.267   1.565 -0.4358 -1.0640 -0.2912
10128TIP3    H254580   4.844   6.251   1.628 -0.7004  0.9479  0.9008
10129TIP3   OH254581   1.921   5.555   4.247  0.3189 -0.5470 -0.2055
10129TIP3    H154582   1.960   5.558   4.334 -0.2668 -0.8133  0.0780
10129TIP3    H254583   1.828   5.538   4.264  0.2666 -0.9644 -0.8947
10130TIP3   OH254584   4.658   1.490   0.861  0.1772 -0.0334 -0.1445
10130TIP3    H154585   4.711   1.434   0.918 -1.1018 -0.8343  0.2901
10130TIP3    H254586   4.645   1.570   0.911  0.9729  0.1809 -0.2631
10131TIP3   OH254587   1.710   2.351   2.849  0.2029 -0.1460  0.3713
10131TIP3    H154588   1.740   2.267   2.884  0.0979 -1.0655 -1.5786
10131TIP3    H254589   1.763   2.365   2.771 -1.8620  0.0123 -1.1019
10132TIP3   OH254590   2.307   3.836   4.405 -0.3389  0.5464  0.2604
10132TIP3    H154591   2.320   3.902   4.337 -1.1103 -0.3579 -0.7979
10132TIP3    H254592   2.311   3.886   4.487  2.9036  1.3174 -0.2486
10133TIP3   OH254593   6.407   1.397   2.472  0.1654 -0.3160 -0.0757
10133TIP3    H154594   6.465   1.331   2.509  1.7658  0.3201 -1.3320
10133TIP3    H254595   6.460   1.442   2.406 -0.5631  2.7780  1.2619
10134TIP3   OH254596   0.198   5.956   3.608 -0.4081 -0.1482 -0.4915
10134TIP3    H154597   0.187   5.882   3.667 -0.2324 -0.3959 -0.7677
10134TIP3    H254598   0.164   6.031   3.657  0.5848 -0.1826  0.2901
10135TIP3   OH254599   2.461   5.420   3.673 -0.1207 -0.2616  0.6412
10135TIP3    H154600   2.486   5.508   3.647 -0.9482  0.1390  1.1685
10135TIP3    H254601   2.470   5.367   3.594 -2.0411  0.8068 -0.3488
10136TIP3   OH254602   5.674   0.319   2.816 -0.3884 -0.1235  0.6367
10136TIP3    H154603   5.657   0.225   2.826  0.8481 -0.6121 -1.2678
10136TIP3    H254604   5.644   0.338   2.727  2.2244  0.5421 -0.1789
10137TIP3   OH254605   3.142   5.922   2.492 -0.0544  0.5661 -0.2979
10137TIP3    H154606   3.130   6.014   2.516  0.7686  0.7041 -0.3994
10137TIP3    H254607   3.230   5.901   2.523 -0.3119 -0.2429 -0.1090
10138TIP3   OH254608   5.741   2.266   0.645  0.9360  0.1613 -0.3063
10138TIP3    H154609   5.699   2.256   0.731  0.5356  1.2695 -0.3691
10138TIP3    H254610   5.753   2.360   0.634  0.5421  0.0708 -1.6846
10139TIP3   OH254611   2.163   2.134   1.717  0.8811  0.2673 -0.2050
10139TIP3    H154612   2.177   2.201   1.785  0.5116 -0.5380  0.6887
10139TIP3    H254613   2.251   2.115   1.684  1.2233 -0.2037  0.9241
10140TIP3   OH254614   3.128   5.288   3.009 -0.4987  0.6527 -0.2780
10140TIP3    H154615   3.195   5.355   3.016 -0.1120  0.2241  0.2376
10140TIP3    H254616   3.076   5.313   2.932  1.1766  0.1489 -1.6297
10141TIP3   OH254617   3.943   1.769   0.667 -0.0519  0.6245  0.2077
10141TIP3    H154618   3.896   1.752   0.586 -1.0330 -1.3693  1.1136
10141TIP3    H254619   3.876   1.764   0.735  0.6921  2.5347  1.1542
10142TIP3   OH254620   1.747   5.268   2.573 -0.0979  0.5958 -0.3199
10142TIP3    H154621   1.684   5.261   2.644  0.7751  0.4392  0.4596
10142TIP3    H254622   1.729   5.192   2.518 -0.2502  0.2609  0.1813
10143TIP3   OH254623   1.684   6.294   4.171  0.1180 -0.9937  0.5357
10143TIP3    H154624   1.724   6.309   4.257  0.6897 -2.9500  0.6416
10143TIP3    H254625   1.753   6.320   4.109 -0.0938 -0.1118  0.6572
10144TIP3   OH254626   1.034   4.193   1.166  0.0446 -0.8295 -0.0832
10144TIP3    H154627   1.072   4.143   1.238 -1.8437 -2.4177 -0.1075
10144TIP3    H254628   0.940   4.175   1.171 -0.7806  2.5990 -0.2037
10145TIP3   OH254629   2.245   4.756   3.302  0.2761  0.3668 -0.1681
10145TIP3    H154630   2.212   4.827   3.358  0.6065  1.1767 -0.9613
10145TIP3    H254631   2.317   4.717   3.352 -1.3489 -0.9374  1.2596
10146TIP3   OH254632   0.803   6.646   1.315 -0.1181 -0.0978  0.1745
10146TIP3    H154633   0.863   6.719   1.299 -0.6630  0.7034  1.5907
10146TIP3    H254634   0.858   6.578   1.353  0.1105  0.1910  0.3635
10147TIP3   OH254635   4.586   6.587   2.739  0.3877 -0.2705 -0.4046
10147TIP3    H154636   4.637   6.667   2.755 -0.5245  0.0612  0.9283
10147TIP3    H254637   4.652   6.519   2.726  1.1723  0.4861 -0.4945
10148TIP3   OH254638   2.376   5.617   1.461 -0.6134 -0.3248 -0.3326
10148TIP3    H154639   2.445   5.675   1.429 -2.0615  1.3929 -0.4611
10148TIP3    H254640   2.385   5.618   1.556 -1.0438  0.6728 -0.2924
10149TIP3   OH254641   5.489   6.204   0.868 -0.1038  0.0104 -0.4389
10149TIP3    H154642   5.509   6.289   0.830 -0.8718  0.4530  0.1193
10149TIP3    H254643   5.463   6.223   0.958 -1.1998 -0.7096 -0.5790
10150TIP3   OH254644   3.031   2.573   1.282  0.7386  0.2667  0.2994
10150TIP3    H154645   2.942   2.561   1.316  0.5506  0.4055 -0.1309
10150TIP3    H254646   3.039   2.667   1.268  0.5535  0.1482 -0.6957
10151TIP3   OH254647   0.745   6.312   1.845 -0.5871  0.3334 -0.2083
10151TIP3    H154648   0.721   6.355   1.927  0.1382 -0.5525  0.4803
10151TIP3    H254649   0.706   6.225   1.852  0.3857 -0.1172 -0.3307
10152TIP3   OH254650   5.142   5.223   0.847 -0.4382 -0.2140 -0.0073
10152TIP3    H154651   5.116   5.300   0.796  0.3537 -0.9410 -1.5783
10152TIP3    H254652   5.081   5.221   0.920 -1.7823  0.7474 -1.0497
10153TIP3   OH254653   1.787   5.234   3.273  0.4940 -0.4350  0.6082
10153TIP3    H154654   1.739   5.184   3.207 -0.2282  1.0259 -0.0253
10153TIP3    H254655   1.866   5.264   3.227  0.0778  0.4310  0.4241
10154TIP3   OH254656   0.127   2.847   2.172 -0.6329  0.1513 -0.1127
10154TIP3    H154657   0.104   2.896   2.251 -0.5937  1.9683 -1.1726
10154TIP3    H254658   0.221   2.863   2.160 -0.7536  0.3888 -0.8300
10155TIP3   OH254659   0.934   2.507   2.364  0.3826  0.8828  0.7025
10155TIP3    H154660   1.019   2.551   2.373  0.6839  0.1316  1.7384
10155TIP3    H254661   0.953   2.415   2.379  0.0072  0.0882 -2.8952
10156TIP3   OH254662   2.640   5.990   4.714 -0.2896  1.0425  0.2327
10156TIP3    H154663   2.731   5.966   4.696 -0.8260 -0.5620 -0.4902
10156TIP3    H254664   2.635   6.082   4.687  0.4588  0.4080 -2.4384
10157TIP3   OH254665   1.590   4.702   0.730 -0.1935 -0.7315  0.3355
10157TIP3    H154666   1.635   4.781   0.761 -0.5530  0.1353 -1.2162
10157TIP3    H254667   1.638   4.676   0.651 -1.7363 -0.3908 -0.7661
10158TIP3   OH254668   1.948   3.557   0.430 -0.0595  0.0143  0.2428
10158TIP3    H154669   2.023   3.501   0.407  0.2525  0.6931 -0.4339
10158TIP3    H254670   1.876   3.496   0.443  0.0530 -0.5154 -1.3648
10159TIP3   OH254671   4.115   1.570   0.715 -0.0849 -0.0704 -0.1029
10159TIP3    H154672   4.141   1.580   0.807  0.5633 -0.4348 -0.2401
10159TIP3    H254673   4.047   1.636   0.702 -0.3359 -0.1649  0.7001
10160TIP3   OH254674   4.720   4.414   0.898  0.7377  0.1247 -0.4001
10160TIP3    H154675   4.792   4.419   0.835 -0.1307  0.1377 -1.4168
10160TIP3    H254676   4.641   4.407   0.844 -0.2213  2.1496  0.6344
10161TIP3   OH254677   2.457   6.269   1.407  0.2065  0.1786 -0.3915
10161TIP3    H154678   2.471   6.293   1.316  1.2785 -0.9592 -0.5445
10161TIP3    H254679   2.469   6.174   1.410  0.9147  0.2806  1.0590
10162TIP3   OH254680   1.137   5.212   2.428 -0.2408  0.0210  0.0118
10162TIP3    H154681   1.139   5.202   2.333  1.2193 -1.9619  0.1979
10162TIP3    H254682   1.226   5.236   2.452 -0.3738 -0.3825  0.9568
10163TIP3   OH254683   2.304   4.026   1.591  0.2145 -0.5282 -0.3199
10163TIP3    H154684   2.367   3.964   1.628 -0.8666 -0.6582  1.3897
10163TIP3    H254685   2.219   3.985   1.603 -0.5202  1.1565  0.6590
10164TIP3   OH254686   0.327   0.936   0.603  0.1888  0.7227 -0.7470
10164TIP3    H154687   0.288   0.867   0.549  0.1627 -0.9324  1.2529
10164TIP3    H254688   0.351   0.892   0.684  1.3001  2.8512  0.1650
10165TIP3   OH254689   5.711   1.114   3.463  0.1593 -0.6145 -0.4634
10165TIP3    H154690   5.706   1.054   3.537  0.2991 -0.4910 -0.3526
10165TIP3    H254691   5.800   1.150   3.467  0.6103 -1.5571 -1.4374
10166TIP3   OH254692   4.560   4.900   1.612 -0.0258 -0.4932  0.0694
10166TIP3    H154693   4.511   4.899   1.529 -0.5976 -0.4389  0.4037
10166TIP3    H254694   4.599   4.813   1.616 -0.1302 -0.5548 -0.1796
10167TIP3   OH254695   1.298   0.507   3.072  0.0005  0.2427  0.0641
10167TIP3    H154696   1.267   0.468   3.153 -0.7970  0.2200 -0.2377
10167TIP3    H254697   1.369   0.565   3.099  0.2221 -0.3067  0.6865
10168TIP3   OH254698   5.345   2.051   0.902  0.0873 -0.0359 -0.3331
10168TIP3    H154699   5.337   2.100   0.984 -0.4848 -0.1893 -0.2941
10168TIP3    H254700   5.364   2.118   0.836  1.6466 -0.0330  0.0898
10169TIP3   OH254701   5.101   3.966   1.543  0.4124  0.2233  0.2241
10169TIP3    H154702   5.141   4.049   1.516  2.3644 -0.6998  0.0841
10169TIP3    H254703   5.155   3.936   1.616 -1.5265  0.0390  1.6677
10170TIP3   OH254704   5.129   4.723   2.332  0.4707  0.5320 -0.0897
10170TIP3    H154705   5.154   4.634   2.356 -0.1411 -0.6140 -3.1652
10170TIP3    H254706   5.210   4.774   2.340  1.0673 -0.5199  0.7932
10171TIP3   OH254707   6.304   1.216   1.336  0.0511  0.1807  0.1309
10171TIP3    H154708   6.333   1.246   1.250 -0.8652  0.0065 -0.2467
10171TIP3    H254709   6.211   1.197   1.325  0.3350 -1.7695  0.6250
10172TIP3   OH254710   2.707   5.069   3.982 -0.1741 -0.1299 -0.2451
10172TIP3    H154711   2.630   5.124   3.969 -0.2294  0.7002  2.7774
10172TIP3    H254712   2.778   5.131   3.999  1.0805 -0.9112 -2.2339
10173TIP3   OH254713   2.547   5.104   2.724 -0.6024 -0.5077 -0.1006
10173TIP3    H154714   2.469   5.148   2.758 -0.5284 -0.7010  0.3179
10173TIP3    H254715   2.591   5.172   2.673  1.3993  1.0987  3.4209
10174TIP3   OH254716   0.290   1.704   2.669  0.2431 -0.4403  0.3851
10174TIP3    H154717   0.224   1.653   2.716  0.2083 -0.3129  0.4756
10174TIP3    H254718   0.288   1.790   2.711  0.3611 -0.3904  0.2891
10175TIP3   OH254719   1.954   3.888   2.367 -0.4586  0.1148 -0.1880
10175TIP3    H154720   1.965   3.964   2.309  0.3223  0.2342  0.1096
10175TIP3    H254721   1.871   3.905   2.412 -0.9315  0.1601 -1.0515
10176TIP3   OH254722   4.602   1.422   0.609  0.2488  0.1948  0.3621
10176TIP3    H154723   4.692   1.417   0.578  0.6644  0.3593  1.4789
10176TIP3    H254724   4.609   1.458   0.698 -1.0200  1.3380  0.0345
10177TIP3   OH254725   5.529   3.966   1.588 -0.5404 -0.0967 -0.2305
10177TIP3    H154726   5.452   3.970   1.644 -0.0537 -1.4534  0.5619
10177TIP3    H254727   5.509   4.027   1.517 -0.6758  2.6330  1.9831
10178TIP3   OH254728   0.951   1.431   2.043 -0.4092  0.1450  0.0704
10178TIP3    H154729   0.970   1.493   1.972 -1.3571 -0.6507 -0.9150
10178TIP3    H254730   1.034   1.389   2.061 -0.0307  0.7817 -0.1522
10179TIP3   OH254731   2.638   4.428   1.642  0.1672  0.0215 -0.0941
10179TIP3    H154732   2.682   4.363   1.697 -0.3502  0.2766  0.6258
10179TIP3    H254733   2.630   4.505   1.697 -1.4191 -0.1091 -0.1172
10180TIP3   OH254734   0.829   6.612   4.559  0.1970  0.2993 -0.1310
10180TIP3    H154735   0.924   6.627   4.566  0.0576  0.7724  0.8653
10180TIP3    H254736   0.812   6.614   4.465  1.0689  0.9578 -0.2950
10181TIP3   OH254737   1.526   2.152   0.659 -0.1859  0.4246 -0.0366
10181TIP3    H154738   1.488   2.113   0.738  1.8759  1.2163  1.4177
10181TIP3    H254739   1.477   2.111   0.587 -2.8496  0.4126  1.6153
10182TIP3   OH254740   1.467   4.206   2.229 -0.1860 -0.4272 -0.7459
10182TIP3    H154741   1.539   4.227   2.169 -0.7292  0.5827 -1.0675
10182TIP3    H254742   1.417   4.138   2.184 -0.5678  0.2920 -1.4478
10183TIP3   OH254743   3.494   0.696   1.971 -0.6804 -0.3664 -0.2229
10183TIP3    H154744   3.546   0.635   2.024  0.3878 -0.0373 -0.8760
10183TIP3    H254745   3.467   0.644   1.896 -1.0281 -0.4389 -0.0523
10184TIP3   OH254746   1.138   2.710   3.919 -0.0724 -0.7039  0.7727
10184TIP3    H154747   1.058   2.696   3.867 -1.3276  1.7864  1.8529
10184TIP3    H254748   1.208   2.714   3.854 -1.4893  1.5887 -0.7884
10185TIP3   OH254749   5.499   3.962   2.038 -0.1006  0.1960  1.1089
10185TIP3    H154750   5.562   3.975   2.109  0.8108  0.6973  0.2251
10185TIP3    H254751   5.546   3.908   1.974 -0.6287  0.4168  0.5254
10186TIP3   OH254752   5.572   2.702   1.577 -0.1127  0.3916  0.5166
10186TIP3    H154753   5.583   2.612   1.545  0.6682  0.1667  1.3607
10186TIP3    H254754   5.502   2.738   1.523  1.1914  0.0788 -1.5133
10187TIP3   OH254755   0.168   1.086   3.379 -0.1591 -0.1002  0.3667
10187TIP3    H154756   0.140   1.111   3.291  2.0661  0.2111 -0.3033
10187TIP3    H254757   0.164   1.167   3.429 -0.0030  0.0437  0.1498
10188TIP3   OH254758   3.045   5.706   3.511  0.2149 -0.1066  0.0308
10188TIP3    H154759   3.020   5.669   3.426  0.8498  0.6393 -0.4904
10188TIP3    H254760   3.063   5.629   3.566  0.4956 -0.5899 -0.7234
10189TIP3   OH254761   6.274   5.828   3.496  0.4729  0.9434 -0.1952
10189TIP3    H154762   6.323   5.905   3.467 -0.5138  1.9910  0.8279
10189TIP3    H254763   6.209   5.813   3.428 -0.7994  2.4186  0.6529
10190TIP3   OH254764   0.393   0.012   1.112  0.1461  0.4637  0.0532
10190TIP3    H154765   0.328  -0.002   1.181  1.3181 -1.5722  0.8252
10190TIP3    H254766   0.466  -0.045   1.136  1.1621  0.7448 -2.1571
10191TIP3   OH254767   2.820   1.199   2.604 -0.0743 -0.1636  0.0546
10191TIP3    H154768   2.733   1.161   2.589  0.6852 -1.1701 -2.1613
10191TIP3    H254769   2.804   1.271   2.664 -2.5232 -0.0029 -0.6738
10192TIP3   OH254770   1.548   5.494   2.625  0.1289 -0.3727  0.3725
10192TIP3    H154771   1.599   5.507   2.545 -1.2095 -1.5937 -0.7622
10192TIP3    H254772   1.577   5.409   2.659  0.8116  0.2206  1.2915
10193TIP3   OH254773   4.786   0.987   3.134  0.7164  0.7310  0.0308
10193TIP3    H154774   4.765   0.931   3.208 -0.1585  0.6077 -0.2993
10193TIP3    H254775   4.770   1.076   3.165 -0.8994  0.6152 -0.3783
10194TIP3   OH254776   6.375   1.495   3.977 -0.0863 -0.1817  0.3811
10194TIP3    H154777   6.352   1.586   3.994 -1.7092 -0.0707 -1.9423
10194TIP3    H254778   6.293   1.447   3.987  0.3012 -1.0595 -0.4578
10195TIP3   OH254779   1.234   3.059   1.546 -0.2184  0.4359  0.4592
10195TIP3    H154780   1.152   3.102   1.519 -0.2611  1.2632  1.8233
10195TIP3    H254781   1.207   2.991   1.607 -0.0967 -1.2084 -1.2585
10196TIP3   OH254782   3.219   4.303   3.265  0.7862  0.3284  0.4816
10196TIP3    H154783   3.207   4.276   3.356  2.4569  0.3724  0.7484
10196TIP3    H254784   3.274   4.235   3.226 -0.6392 -0.1653 -0.7832
10197TIP3   OH254785   3.545   3.210   2.662 -0.2025  0.0400  0.5529
10197TIP3    H154786   3.468   3.154   2.646 -0.5712  0.2510  1.5097
10197TIP3    H254787   3.598   3.160   2.724 -0.9164  1.0581  2.0297
10198TIP3   OH254788   1.760   6.430   4.422 -0.0747  0.3345 -0.2660
10198TIP3    H154789   1.825   6.383   4.473 -0.0981 -0.2734 -0.7927
10198TIP3    H254790   1.754   6.516   4.465  2.1069  0.9375 -1.0472
10199TIP3   OH254791   5.419   4.836   1.570  0.1347  0.0880  0.0336
10199TIP3    H154792   5.404   4.787   1.650 -2.8638  0.2541 -0.3062
10199TIP3    H254793   5.384   4.923   1.588  1.1073  0.6773 -0.8596
10200TIP3   OH254794   5.929   5.872   0.941 -0.2518 -0.1465  0.4198
10200TIP3    H154795   5.868   5.946   0.938 -0.0182  0.0990  1.3052
10200TIP3    H254796   5.999   5.896   0.882 -0.5874 -0.0419  0.0581
10201TIP3   OH254797   3.855   2.131   0.809  0.0681  0.4158  0.1425
10201TIP3    H154798   3.941   2.120   0.770 -1.6430 -0.1494 -3.9584
10201TIP3    H254799   3.838   2.048   0.853  1.1717  0.1514  0.0962
10202TIP3   OH254800   2.754   6.475   4.146 -0.3550  1.0391 -0.0401
10202TIP3    H154801   2.826   6.481   4.209 -0.4951  1.5784  0.0746
10202TIP3    H254802   2.787   6.519   4.068 -0.2631  0.5625 -0.2781
10203TIP3   OH254803   3.927   1.192   0.632  0.2293  0.1848  0.1776
10203TIP3    H154804   3.990   1.243   0.682  0.6028  1.4295 -1.4509
10203TIP3    H254805   3.903   1.249   0.559  1.1600 -2.1464 -2.1374
10204TIP3   OH254806   4.534   0.753   3.704  0.4588  0.3993 -0.6923
10204TIP3    H154807   4.533   0.818   3.775 -1.0640  0.8830 -1.1242
10204TIP3    H254808   4.609   0.697   3.725 -1.4635 -1.1769  2.8540
10205TIP3   OH254809   6.236   4.227   2.151 -0.1393  0.1748 -0.1480
10205TIP3    H154810   6.156   4.265   2.116  0.4369  1.2539 -0.3399
10205TIP3    H254811   6.265   4.166   2.083  0.1658  1.1408 -0.9148
10206TIP3   OH254812   0.153   6.039   1.988 -0.1151  0.1259 -0.1632
10206TIP3    H154813   0.215   6.110   1.971  0.1530 -0.2947 -1.0032
10206TIP3    H254814   0.175   6.009   2.076 -0.7591  1.5931  0.5349
10207TIP3   OH254815   6.024   2.522   2.922  0.3241  0.1243  0.2708
10207TIP3    H154816   6.115   2.531   2.951  0.1777 -1.7274  1.4951
10207TIP3    H254817   6.030   2.502   2.829  1.2887 -1.3485  0.6180
10208TIP3   OH254818   1.328   1.535   1.743  0.1932  0.9144  0.7892
10208TIP3    H154819   1.286   1.581   1.816 -0.9067  0.0552  0.7320
10208TIP3    H254820   1.269   1.549   1.669  0.1389 -0.0656  0.6315
10209TIP3   OH254821   2.328   0.222   1.300  0.2730 -0.4027  0.0638
10209TIP3    H154822   2.362   0.160   1.236  0.4149  0.3210 -0.5796
10209TIP3    H254823   2.348   0.308   1.263 -3.2507  0.1428 -0.9581
10210TIP3   OH254824   6.278   4.472   3.117 -0.0942  0.4985  0.4012
10210TIP3    H154825   6.206   4.528   3.146 -0.8823  0.0562 -0.6358
10210TIP3    H254826   6.291   4.410   3.188 -1.7058 -0.3006  0.0546
10211TIP3   OH254827   6.341   5.387   1.238  0.0056  0.2836  0.6420
10211TIP3    H154828   6.379   5.390   1.150  0.4237  0.3640  0.8188
10211TIP3    H254829   6.302   5.474   1.250 -2.5217 -0.6124 -0.5059
10212TIP3   OH254830   2.593   0.590   2.183  0.0894  0.8806 -0.0953
10212TIP3    H154831   2.687   0.575   2.191 -0.1701 -1.0374 -0.3299
10212TIP3    H254832   2.552   0.516   2.228 -1.3287  2.0343  0.6222
10213TIP3   OH254833   3.244   1.738   3.146  0.7433 -0.1571 -0.2055
10213TIP3    H154834   3.299   1.660   3.141  1.5466  0.4207 -0.5071
10213TIP3    H254835   3.233   1.754   3.240  1.1552 -0.2284 -0.1441
10214TIP3   OH254836   3.689   6.472   4.052  0.5651  0.2491  0.2457
10214TIP3    H154837   3.764   6.461   3.994  0.8161  0.6955  0.4801
10214TIP3    H254838   3.723   6.523   4.126 -0.2577  1.5583 -0.2494
10215TIP3   OH254839   1.189   5.731   2.852  0.1362 -0.1696  0.1223
10215TIP3    H154840   1.285   5.731   2.853  0.2564 -0.9294  3.5630
10215TIP3    H254841   1.165   5.677   2.927 -3.0532 -0.8205 -1.2098
10216TIP3   OH254842   2.386   1.732   2.390  0.6157 -0.4253 -0.1061
10216TIP3    H154843   2.299   1.723   2.430  1.2252  1.5910  1.8391
10216TIP3    H254844   2.368   1.748   2.298 -1.1493  0.9887  0.4328
10217TIP3   OH254845   6.112   3.451   3.575  0.1386 -0.0211  0.6064
10217TIP3    H154846   6.045   3.427   3.511  0.2654  4.6502 -1.6826
10217TIP3    H254847   6.063   3.482   3.651 -0.0726 -1.6263  1.1701
10218TIP3   OH254848   3.821   3.255   1.088  0.0136 -0.3405 -0.6953
10218TIP3    H154849   3.819   3.253   0.992 -0.2095  0.3352 -0.7061
10218TIP3    H254850   3.887   3.189   1.112  0.2048 -0.3780 -1.3186
10219TIP3   OH254851   0.215   1.575   1.393  0.3661 -0.0849  0.6022
10219TIP3    H154852   0.166   1.533   1.322  0.0517 -1.8624  1.8150
10219TIP3    H254853   0.181   1.665   1.395 -1.7669 -0.8334  0.4118
10220TIP3   OH254854   1.226   6.167   3.234  0.1049  0.4026  0.0202
10220TIP3    H154855   1.163   6.153   3.305 -1.3136 -0.9522 -1.4285
10220TIP3    H254856   1.242   6.262   3.236 -0.9081  0.5864  1.2881
10221TIP3   OH254857   5.967   4.464   1.786 -0.3014  0.1697  0.1295
10221TIP3    H154858   5.891   4.520   1.803 -0.9802 -0.1414 -1.7228
10221TIP3    H254859   5.999   4.492   1.701  0.7701 -0.7090  0.2267
10222TIP3   OH254860   5.074   2.108   2.585  0.8777 -0.2302 -0.7781
10222TIP3    H154861   4.984   2.124   2.613  1.6716  0.1175  1.8695
10222TIP3    H254862   5.115   2.195   2.588  1.3618 -0.4029 -1.8598
10223TIP3   OH254863   1.226   0.907   2.650 -0.5788 -0.6058  0.0067
10223TIP3    H154864   1.291   0.890   2.582  0.4877 -1.9046  1.2961
10223TIP3    H254865   1.277   0.940   2.724 -1.1645 -2.7944  1.4715
10224TIP3   OH254866   0.755   4.312   3.883 -0.6410 -0.0714 -0.4816
10224TIP3    H154867   0.670   4.305   3.926 -0.2132 -1.7358  0.1786
10224TIP3    H254868   0.794   4.391   3.919 -2.1225  1.0537 -1.2390
10225TIP3   OH254869   5.347   4.956   3.742 -0.0650  0.1070 -0.2272
10225TIP3    H154870   5.396   4.950   3.824 -0.6893  0.7384  0.1986
10225TIP3    H254871   5.402   4.909   3.679  0.2037 -0.7992  0.6462
10226TIP3   OH254872   3.101   2.844   2.104 -0.0360  0.3023 -0.4299
10226TIP3    H154873   3.040   2.777   2.133  0.4025  0.3307  0.6031
10226TIP3    H254874   3.168   2.797   2.054  1.0926 -0.2928  1.5394
10227TIP3   OH254875   2.146   3.336   3.413  0.1188 -0.5766  0.2239
10227TIP3    H154876   2.181   3.402   3.473 -1.9978 -0.4300  1.3780
10227TIP3    H254877   2.059   3.368   3.391  0.2974 -1.3770 -1.8161
10228TIP3   OH254878   2.592   2.758   2.469  0.2358 -0.2090  0.0152
10228TIP3    H154879   2.654   2.747   2.541 -1.0887 -1.1379  1.0430
10228TIP3    H254880   2.642   2.805   2.402  2.3648 -1.7507  0.4110
10229TIP3   OH254881   2.807   6.264   2.297  0.0092 -0.5799 -0.2844
10229TIP3    H154882   2.720   6.301   2.311 -0.7371 -2.7573  1.5074
10229TIP3    H254883   2.807   6.236   2.205 -0.1145  1.8412 -1.0982
10230TIP3   OH254884   3.225   0.054   3.227  0.0725 -0.0721  0.4986
10230TIP3    H154885   3.178   0.133   3.253  0.3213  0.8518 -1.6357
10230TIP3    H254886   3.157  -0.012   3.215 -0.1372 -0.2239  2.3072
10231TIP3   OH254887   3.527   3.859   2.986 -0.1320  0.1951 -0.6231
10231TIP3    H154888   3.475   3.893   2.914  2.1690 -0.3716 -2.6807
10231TIP3    H254889   3.582   3.792   2.947  2.2551  0.8559  1.3367
10232TIP3   OH254890   2.882   3.388   3.550 -0.1819  0.0493 -1.1028
10232TIP3    H154891   2.824   3.428   3.614  2.4193  0.8060  0.9574
10232TIP3    H254892   2.860   3.295   3.552 -0.6717  0.1690  0.3882
10233TIP3   OH254893   4.887   5.806   0.825  0.6898 -0.1693  0.0916
10233TIP3    H154894   4.826   5.758   0.881  0.8543  0.0091  0.4231
10233TIP3    H254895   4.962   5.748   0.817  1.1575  0.2989  1.0164
10234TIP3   OH254896   5.851   5.549   2.994  0.0680 -0.3609 -0.4135
10234TIP3    H154897   5.819   5.636   2.969  1.0153  0.0645 -0.2217
10234TIP3    H254898   5.947   5.559   2.995  0.1612 -1.2108  0.3246
10235TIP3   OH254899   6.582   6.452   1.631 -0.1531  0.1203  0.2086
10235TIP3    H154900   6.640   6.526   1.651  0.5305  0.2184 -1.8639
10235TIP3    H254901   6.639   6.388   1.589 -1.3168 -0.2659 -0.8365
10236TIP3   OH254902   1.205   5.078   3.577 -0.1916  0.0777 -0.3907
10236TIP3    H154903   1.155   5.016   3.524  2.1144 -1.6502 -0.7532
10236TIP3    H254904   1.207   5.039   3.664 -0.7275  0.9008 -0.0042
10237TIP3   OH254905   4.032   0.065   1.345 -0.6102  0.2686 -0.1738
10237TIP3    H154906   3.998   0.150   1.373  0.3516  0.3939  0.6502
10237TIP3    H254907   4.123   0.082   1.323 -0.9596 -0.1097 -2.1478
10238TIP3   OH254908   5.210   1.264   1.166 -0.7774 -0.4184  0.2385
10238TIP3    H154909   5.187   1.337   1.225  0.1973 -0.8241  1.1531
10238TIP3    H254910   5.298   1.238   1.193 -1.1440 -2.0109 -0.0014
10239TIP3   OH254911   2.509   0.780   3.389 -0.3110  0.2918  0.4916
10239TIP3    H154912   2.553   0.830   3.321  0.6127  2.1109  2.3370
10239TIP3    H254913   2.416   0.802   3.378 -0.4587 -1.0259 -1.3771
10240TIP3   OH254914   0.329   5.995   3.027  0.2487 -0.1726 -1.2489
10240TIP3    H154915   0.321   5.982   3.121 -1.2347  1.6396 -1.0650
10240TIP3    H254916   0.298   5.914   2.988 -3.0064  0.4027 -0.1698
10241TIP3   OH254917   3.567   6.505   0.660 -0.2460  0.0044 -0.2975
10241TIP3    H154918   3.550   6.429   0.605  0.9228  1.0399 -2.2251
10241TIP3    H254919   3.661   6.521   0.650  0.0823  0.1480  2.2348
10242TIP3   OH254920   5.983   5.580   3.326  0.2022  0.6798  0.2939
10242TIP3    H154921   6.018   5.662   3.290 -0.7350  1.2467  0.6337
10242TIP3    H254922   5.943   5.606   3.409 -2.5555  0.4235 -0.8650
10243TIP3   OH254923   1.359   3.462   2.901 -0.4786 -0.0350  0.1485
10243TIP3    H154924   1.343   3.371   2.928 -0.6432  0.2518  1.0418
10243TIP3    H254925   1.395   3.504   2.978 -1.8211  1.0381  0.2295
10244TIP3   OH254926   3.126   4.242   2.281 -0.2622 -0.1685  0.1749
10244TIP3    H154927   3.210   4.196   2.285 -0.9069 -1.3571  0.4162
10244TIP3    H254928   3.107   4.264   2.372 -1.5916 -2.5465  0.5686
10245TIP3   OH254929   2.351   1.684   1.217  0.1169 -0.4136 -0.0704
10245TIP3    H154930   2.375   1.686   1.124  0.3289  0.2184 -0.0134
10245TIP3    H254931   2.263   1.723   1.220 -0.1051 -0.9121 -0.0616
10246TIP3   OH254932   5.250   1.564   1.228 -0.0688 -0.0412  0.3245
10246TIP3    H154933   5.164   1.528   1.250  0.4142 -1.2223  0.3395
10246TIP3    H254934   5.236   1.659   1.224 -1.1573 -0.1452  1.2630
10247TIP3   OH254935   0.185   4.052   3.374  0.1068 -0.6560 -0.7150
10247TIP3    H154936   0.271   4.010   3.377 -0.1604 -1.3471 -2.1445
10247TIP3    H254937   0.123   3.980   3.365 -0.5734 -0.1175 -0.4191
10248TIP3   OH254938   5.138   2.345   2.672 -0.2355 -0.1388  0.3777
10248TIP3    H154939   5.089   2.390   2.603  1.2390 -0.2328 -0.7974
10248TIP3    H254940   5.134   2.404   2.747 -1.1253  0.3834 -0.0608
10249TIP3   OH254941   1.006   4.257   0.455 -0.1502 -0.3236 -0.3766
10249TIP3    H154942   0.954   4.250   0.535 -0.8695 -2.1247 -0.9372
10249TIP3    H254943   1.052   4.340   0.463 -1.5467  0.3667  1.0980
10250TIP3   OH254944   0.072   0.469   2.830 -0.2175 -0.1937  0.3345
10250TIP3    H154945   0.094   0.528   2.903  0.1312  1.8820 -1.3504
10250TIP3    H254946   0.003   0.516   2.783 -0.8721 -1.7943 -0.3453
10251TIP3   OH254947   2.542   3.491   0.704  0.0085  0.1168  0.8169
10251TIP3    H154948   2.458   3.458   0.673 -0.0770 -1.9377  2.9699
10251TIP3    H254949   2.546   3.581   0.671 -2.9040  0.1970  0.4013
10252TIP3   OH254950   2.966   6.155   1.350  0.5506  0.5065 -0.3788
10252TIP3    H154951   2.994   6.243   1.323 -1.9224  1.8900  1.1419
10252TIP3    H254952   2.909   6.126   1.280 -1.9334  1.9912  0.8865
10253TIP3   OH254953   4.149   1.688   0.978 -0.0948  0.2016  0.3549
10253TIP3    H154954   4.070   1.717   1.024 -1.5967 -3.6103  0.5137
10253TIP3    H254955   4.208   1.658   1.047  0.4597  0.7039  0.1083
10254TIP3   OH254956   3.865   6.219   2.340  0.1678 -0.2934  0.1348
10254TIP3    H154957   3.872   6.149   2.405 -0.1218  0.6579  1.2401
10254TIP3    H254958   3.890   6.298   2.388 -1.6020  0.6859 -0.4474
10255TIP3   OH254959   3.646   6.682   3.776  0.3557 -0.0119  0.0958
10255TIP3    H154960   3.692   6.732   3.708 -0.0297 -0.7598 -0.7427
10255TIP3    H254961   3.635   6.744   3.848  0.4051  0.9341 -0.6857
10256TIP3   OH254962   0.717   2.223   2.302 -0.2704  0.1988  0.4084
10256TIP3    H154963   0.749   2.176   2.224  0.6524  0.6578  0.5010
10256TIP3    H254964   0.650   2.282   2.267 -0.8037 -0.5360  0.1605
10257TIP3   OH254965   0.464   3.120   3.300  0.7933  0.3971  0.4115
10257TIP3    H154966   0.541   3.107   3.356  1.2203  1.9220  0.2272
10257TIP3    H254967   0.432   3.207   3.323 -2.1041 -0.9141  1.8985
10258TIP3   OH254968   1.711   6.032   1.167  0.1334 -0.9104 -0.7374
10258TIP3    H154969   1.644   6.079   1.118  0.7647  0.2042 -0.5486
10258TIP3    H254970   1.674   6.020   1.254  0.0283 -0.6381 -0.7440
10259TIP3   OH254971   6.238   3.482   2.831  0.1790 -0.1021  0.3290
10259TIP3    H154972   6.249   3.577   2.831 -2.8878  0.3515  0.3325
10259TIP3    H254973   6.147   3.468   2.858  0.8974 -3.1168  1.6391
10260TIP3   OH254974   0.445   0.095   2.749 -0.1646 -0.1659 -0.0026
10260TIP3    H154975   0.392   0.084   2.829 -0.2504  0.3432  0.0167
10260TIP3    H254976   0.381   0.113   2.681 -0.1983 -1.7736 -0.4464
10261TIP3   OH254977   5.023   6.580   0.672  0.0772 -0.1250  0.1894
10261TIP3    H154978   5.030   6.485   0.660  1.8493  0.1499 -1.4328
10261TIP3    H254979   4.937   6.602   0.637 -0.8075 -1.2331  1.5673
10262TIP3   OH254980   6.149   6.260   3.778 -0.8017 -0.1184  0.3750
10262TIP3    H154981   6.113   6.204   3.709  0.3228 -0.3356 -0.0513
10262TIP3    H254982   6.125   6.349   3.750  0.9369 -0.0631 -1.1472
10263TIP3   OH254983   5.275   4.373   0.743  0.4121  0.3473  0.3211
10263TIP3    H154984   5.229   4.302   0.698  0.5637 -0.0520  0.7918
10263TIP3    H254985   5.351   4.391   0.689  0.3792  0.1414  0.2078
10264TIP3   OH254986   0.052   1.891   1.435  0.0796 -0.0702  0.0153
10264TIP3    H154987  -0.018   1.829   1.457  1.0125 -0.9669  0.5257
10264TIP3    H254988   0.007   1.975   1.425 -1.1766 -0.7730 -0.4584
10265TIP3   OH254989   5.114   1.869   2.711 -0.2317  0.3260  0.2823
10265TIP3    H154990   5.041   1.885   2.770 -0.7633 -0.1934 -0.2201
10265TIP3    H254991   5.114   1.943   2.651 -1.8978 -0.8242 -1.2482
10266TIP3   OH254992   0.126   0.641   3.042 -0.1150  0.0098  0.2767
10266TIP3    H154993   0.034   0.664   3.035 -1.0983 -3.3179  0.4832
10266TIP3    H254994   0.141   0.632   3.137  0.2252 -0.0437  0.2193
10267TIP3   OH254995   0.710   0.715   1.606 -0.2641 -0.3830 -0.1744
10267TIP3    H154996   0.671   0.773   1.540 -1.2518 -0.4374  0.3269
10267TIP3    H254997   0.799   0.748   1.618 -0.3579  0.1608 -0.9032
10268TIP3   OH254998   1.921   3.600   1.685  0.3773  0.3857  0.6352
10268TIP3    H154999   1.889   3.549   1.760 -2.2443  1.6478  0.5178
10268TIP3    H255000   1.896   3.690   1.706  1.7214  1.1120 -0.7236
10269TIP3   OH255001   0.967   4.295   1.817 -0.8381  0.2612 -0.3491
10269TIP3    H155002   0.880   4.285   1.854 -0.8957 -0.6048 -0.6907
10269TIP3    H255003   0.970   4.232   1.745 -0.0159  0.4527 -0.4976
10270TIP3   OH255004   2.720   2.522   1.169 -0.7217  0.1243 -0.5855
10270TIP3    H155005   2.769   2.440   1.167  1.3245  1.3110 -0.9636
10270TIP3    H255006   2.729   2.553   1.259 -1.0991  0.1809 -0.5639
10271TIP3   OH255007   1.646   4.759   3.218  0.2946 -0.2797  0.5004
10271TIP3    H155008   1.625   4.668   3.238  1.8113 -1.1011 -1.2998
10271TIP3    H255009   1.565   4.807   3.234 -0.6121 -1.9779  1.2464
10272TIP3   OH255010   3.178   3.919   1.023 -0.3869 -0.2561  0.4126
10272TIP3    H155011   3.109   3.854   1.039 -1.0317  0.8278  2.2407
10272TIP3    H255012   3.211   3.941   1.109 -0.0200  1.6790 -0.1906
10273TIP3   OH255013   5.933   0.664   0.994 -0.1743  0.2170 -1.1733
10273TIP3    H155014   5.966   0.639   0.908 -0.7657  0.3733 -1.4550
10273TIP3    H255015   5.839   0.678   0.980 -0.0978  1.2656 -0.7365
10274TIP3   OH255016   1.131   6.144   3.568  0.2243 -0.2124 -0.0770
10274TIP3    H155017   1.207   6.184   3.611 -0.5148  1.2065 -0.0352
10274TIP3    H255018   1.061   6.209   3.577 -0.9465 -1.3903 -0.3156
10275TIP3   OH255019   1.356   4.577   0.681 -0.2407  0.0861 -0.3858
10275TIP3    H155020   1.437   4.629   0.688  0.5450 -1.0087 -0.9982
10275TIP3    H255021   1.368   4.506   0.743 -1.0995  0.3582  0.0992
10276TIP3   OH255022   1.410   5.719   0.768  0.5036 -0.2271  0.4206
10276TIP3    H155023   1.475   5.650   0.774 -0.2074 -0.9882 -0.2973
10276TIP3    H255024   1.337   5.689   0.822  0.5218  0.3507  0.7716
10277TIP3   OH255025   4.333   1.847   0.875 -0.5049 -0.1225 -0.3346
10277TIP3    H155026   4.279   1.775   0.906  0.7961 -0.5063  1.1957
10277TIP3    H255027   4.291   1.925   0.910  0.7544 -0.5244  2.3438
10278TIP3   OH255028   5.712   1.416   1.362 -0.3548 -0.1025 -0.1061
10278TIP3    H155029   5.730   1.389   1.271 -2.7492 -1.1148 -0.3449
10278TIP3    H255030   5.661   1.496   1.354 -3.1457 -1.7219  0.1198
10279TIP3   OH255031   2.561   3.326   3.445  0.6696  0.2833  0.3068
10279TIP3    H155032   2.604   3.317   3.360  0.7818  3.1487 -0.0138
10279TIP3    H255033   2.486   3.384   3.429  0.5433  0.6915  2.1101
10280TIP3   OH255034   1.654   4.567   0.496 -0.2387 -0.9362 -0.5125
10280TIP3    H155035   1.622   4.627   0.429  1.3732  1.6983  0.9100
10280TIP3    H255036   1.634   4.480   0.462  0.3774  0.2440 -4.3737
10281TIP3   OH255037   6.152   5.954   1.948 -0.2926  0.5479 -0.0496
10281TIP3    H155038   6.229   5.994   1.907 -0.6826 -0.0322 -1.3978
10281TIP3    H255039   6.162   5.973   2.041  1.0475  1.2065 -0.3041
10282TIP3   OH255040   3.440   6.204   0.792  0.0468 -0.4512  0.8438
10282TIP3    H155041   3.512   6.159   0.747  0.6471 -0.0842  1.4050
10282TIP3    H255042   3.379   6.227   0.723  0.2784 -1.1245  0.4033
10283TIP3   OH255043   3.809   1.079   1.918 -0.5134  0.7293  0.1330
10283TIP3    H155044   3.869   1.055   1.847  1.1482  2.1317  0.9796
10283TIP3    H255045   3.722   1.061   1.883  0.3692 -1.2992 -1.1845
10284TIP3   OH255046   3.028   2.678   3.710  0.2501 -0.0571 -0.3453
10284TIP3    H155047   3.057   2.604   3.763  2.8155  0.4186 -0.9210
10284TIP3    H255048   3.082   2.751   3.740 -0.8088  1.1050 -1.1576
10285TIP3   OH255049   3.743   1.923   2.555 -0.6505 -0.4933  1.0686
10285TIP3    H155050   3.758   1.887   2.643 -1.7228 -0.6299  1.2107
10285TIP3    H255051   3.648   1.940   2.552 -0.4461  0.6034  0.3485
10286TIP3   OH255052   3.744   6.447   3.679  0.0947 -0.5376  0.0121
10286TIP3    H155053   3.718   6.528   3.723  0.4701 -1.0064  1.1155
10286TIP3    H255054   3.826   6.422   3.721 -0.4949 -1.9990  0.3360
10287TIP3   OH255055   2.459   1.769   1.541 -0.8761 -0.2957  0.3056
10287TIP3    H155056   2.442   1.863   1.550  0.2799  0.1351 -1.4736
10287TIP3    H255057   2.437   1.750   1.450  0.9954 -1.2632  0.0098
10288TIP3   OH255058   6.550   0.220   2.491 -0.3317  0.4076  0.2886
10288TIP3    H155059   6.486   0.253   2.555 -2.8505  0.0505 -1.9087
10288TIP3    H255060   6.583   0.299   2.449 -0.6207  0.5186  0.2631
10289TIP3   OH255061   3.608   2.529   3.153 -0.8790 -0.9773 -0.7766
10289TIP3    H155062   3.654   2.490   3.079 -0.4665  0.3291 -1.2409
10289TIP3    H255063   3.646   2.488   3.230  0.9925 -0.0548 -1.1607
10290TIP3   OH255064   4.297   2.705   3.100  0.4657 -0.4185  0.3871
10290TIP3    H155065   4.308   2.713   3.195 -0.9691 -1.5406  0.6807
10290TIP3    H255066   4.227   2.767   3.079  0.6311 -0.3294  0.0939
10291TIP3   OH255067   3.110   6.327   3.725  0.0351 -0.2297 -0.0038
10291TIP3    H155068   3.085   6.249   3.677  1.4908 -1.3853  1.0022
10291TIP3    H255069   3.188   6.301   3.775  1.0758  2.0780 -0.2469
10292TIP3   OH255070   2.284   4.857   1.539  0.1821 -0.4049  0.1907
10292TIP3    H155071   2.189   4.871   1.545 -0.1452 -2.5671  1.0604
10292TIP3    H255072   2.307   4.883   1.450 -0.7679  2.3014  0.6267
10293TIP3   OH255073   2.468   0.450   0.844  0.2530 -0.3457 -0.1870
10293TIP3    H155074   2.557   0.481   0.865  0.0898 -1.3915  2.4449
10293TIP3    H255075   2.468   0.359   0.873 -2.1842  0.1490  1.6456
10294TIP3   OH255076   2.529   0.561   3.852 -0.2068 -0.1267  0.0303
10294TIP3    H155077   2.618   0.590   3.831  0.8592 -2.1604  1.4369
10294TIP3    H255078   2.479   0.576   3.771  1.5755  0.3559 -1.0332
10295TIP3   OH255079   2.281   4.401   2.888  0.1310 -0.0978  0.2400
10295TIP3    H155080   2.280   4.438   2.976 -1.7243  0.1261  0.1650
10295TIP3    H255081   2.354   4.444   2.845  0.5407  0.4259  1.4130
10296TIP3   OH255082   0.997   0.209   1.947 -0.2899 -0.2906 -0.0400
10296TIP3    H155083   1.091   0.225   1.941 -0.5340  1.9618  0.9839
10296TIP3    H255084   0.982   0.185   2.038 -0.8959  1.4105  0.3563
10297TIP3   OH255085   1.446   0.658   0.713  0.2989 -1.2414  0.3395
10297TIP3    H155086   1.397   0.617   0.642 -0.2086  0.2924 -0.2289
10297TIP3    H255087   1.389   0.649   0.789 -0.7575  0.2352 -0.2447
10298TIP3   OH255088   4.584   3.694   0.648  0.1849  0.1736  0.3848
10298TIP3    H155089   4.537   3.754   0.590  0.4439  0.9213  0.9372
10298TIP3    H255090   4.618   3.626   0.590 -1.2528 -0.1821 -0.0719
10299TIP3   OH255091   3.330   1.583   0.774 -0.5518  0.2171 -0.0481
10299TIP3    H155092   3.388   1.542   0.710 -0.8880 -1.5748  0.7284
10299TIP3    H255093   3.249   1.600   0.726 -0.0648  0.9334 -0.6376
10300TIP3   OH255094   6.058   0.068   2.829 -0.0806 -0.0076 -0.3746
10300TIP3    H155095   6.036  -0.009   2.777 -0.2939 -0.7295  0.7541
10300TIP3    H255096   5.993   0.134   2.804 -1.8401 -1.1934  0.8495
10301TIP3   OH255097   0.564   4.664   1.072  0.0455  0.2047  0.3292
10301TIP3    H155098   0.595   4.576   1.094  1.0288  0.6629  0.8367
10301TIP3    H255099   0.639   4.707   1.032  0.2484  1.4889  1.9721
10302TIP3   OH255100   1.205   0.464   1.406  0.2232 -0.1352  0.1054
10302TIP3    H155101   1.179   0.531   1.469  0.9388  1.8686 -1.5965
10302TIP3    H255102   1.211   0.384   1.457 -1.3289  0.9350  2.1210
10303TIP3   OH255103   2.549   2.382   2.679 -0.0594 -0.1873 -0.2462
10303TIP3    H155104   2.572   2.394   2.586  1.7388 -0.1704  0.1495
10303TIP3    H255105   2.588   2.458   2.722  0.1857 -0.8306  0.6729
10304TIP3   OH255106   2.842   5.394   0.983 -0.1894  0.2170 -0.0800
10304TIP3    H155107   2.790   5.454   1.037 -0.1548  2.2673 -2.1548
10304TIP3    H255108   2.924   5.440   0.967  0.7878 -1.3822  0.0754
10305TIP3   OH255109   4.686   4.844   2.191 -0.6996  0.2455 -0.2349
10305TIP3    H155110   4.614   4.869   2.249 -1.4211  0.3136 -1.1207
10305TIP3    H255111   4.644   4.836   2.105  0.6861  2.1686 -1.1648
10306TIP3   OH255112   5.882   0.240   1.225 -0.3177 -0.1047 -0.1063
10306TIP3    H155113   5.807   0.299   1.237 -0.7122 -0.5951 -0.1470
10306TIP3    H255114   5.958   0.295   1.244 -0.6263  0.6472 -0.9508
10307TIP3   OH255115   3.174   6.219   0.677  0.3729  0.2777 -0.0209
10307TIP3    H155116   3.137   6.131   0.678  1.1484 -0.0509  0.6682
10307TIP3    H255117   3.103   6.274   0.645 -0.1498 -0.5800 -0.3812
10308TIP3   OH255118   6.585   4.322   0.837 -0.0591 -0.7575 -0.7183
10308TIP3    H155119   6.637   4.396   0.870 -0.2452 -0.0995 -1.8386
10308TIP3    H255120   6.632   4.244   0.865 -0.1411 -0.2425  0.9698
10309TIP3   OH255121   2.737   1.035   3.465 -0.0532 -0.0373 -0.1778
10309TIP3    H155122   2.829   1.049   3.447 -0.6911  2.2841 -1.9997
10309TIP3    H255123   2.702   0.994   3.386 -0.7241 -0.3629  0.2686
10310TIP3   OH255124   0.621   2.222   1.676 -0.2021 -0.3460  0.2230
10310TIP3    H155125   0.657   2.238   1.763 -2.6905 -0.5505  1.3606
10310TIP3    H255126   0.616   2.127   1.669 -0.2133 -0.3251 -0.0633
10311TIP3   OH255127   4.681   1.152   1.129 -0.4116  0.4177 -0.2220
10311TIP3    H155128   4.705   1.114   1.044 -1.1568  0.0475 -0.2839
10311TIP3    H255129   4.739   1.227   1.140  1.5878 -1.1318  0.2299
10312TIP3   OH255130   4.544   6.579   1.741 -0.1627  0.1058 -0.2367
10312TIP3    H155131   4.511   6.664   1.772 -2.7322 -0.8461 -0.1304
10312TIP3    H255132   4.639   6.585   1.752 -0.4053  2.3447  1.3416
10313TIP3   OH255133   0.502   6.380   0.547 -0.6339  0.3962  0.0155
10313TIP3    H155134   0.506   6.474   0.565 -0.7388  0.4352 -0.1640
10313TIP3    H255135   0.593   6.355   0.528 -0.6101  0.4674  0.0362
10314TIP3   OH255136   3.949   0.854   1.335 -0.6233  0.1817 -0.0192
10314TIP3    H155137   4.031   0.892   1.366 -0.1071  0.8559 -2.1179
10314TIP3    H255138   3.921   0.797   1.408  0.7040  1.3602  1.4910
10315TIP3   OH255139   0.447   5.844   3.889  0.4370 -0.1138  0.0672
10315TIP3    H155140   0.359   5.809   3.875  0.5816 -0.7037  0.5756
10315TIP3    H255141   0.434   5.938   3.903  0.2274  0.5299 -3.4087
10316TIP3   OH255142   1.271   5.997   1.861  0.9317  0.0844 -0.1438
10316TIP3    H155143   1.324   6.009   1.940 -0.0053  1.2155  0.3478
10316TIP3    H255144   1.195   5.946   1.891  1.3887 -0.9521 -0.6978
10317TIP3   OH255145   2.195   1.191   1.739  0.3667 -0.1347  0.4025
10317TIP3    H155146   2.273   1.136   1.749  0.5189 -0.2946 -1.2777
10317TIP3    H255147   2.211   1.242   1.660 -0.7541  0.6782  0.6667
10318TIP3   OH255148   1.871   2.489   2.451 -0.5707 -0.6631  0.1967
10318TIP3    H155149   1.858   2.581   2.474  2.5417 -0.1804  0.6011
10318TIP3    H255150   1.818   2.475   2.373 -1.2177  1.4420  0.2095
10319TIP3   OH255151   2.011   5.286   1.995 -0.3710  0.3883  0.1056
10319TIP3    H155152   1.975   5.269   1.908  0.4701 -0.0456 -0.1704
10319TIP3    H255153   2.019   5.382   2.000 -2.8594  0.6154  0.7271
10320TIP3   OH255154   4.671   6.668   1.084 -0.2585  0.1192  0.1271
10320TIP3    H155155   4.634   6.606   1.149  2.4093 -0.1188  1.5559
10320TIP3    H255156   4.597   6.723   1.060 -1.3686  0.5671  3.8267
10321TIP3   OH255157   3.047   0.298   1.827  0.5101  0.2432  0.5438
10321TIP3    H155158   3.122   0.354   1.803  0.4865  0.3716  0.7646
10321TIP3    H255159   3.072   0.261   1.912 -0.3073  1.4627  1.3524
10322TIP3   OH255160   6.037   1.431   2.221 -0.0697  0.1435 -0.3423
10322TIP3    H155161   6.070   1.373   2.291  1.3786  0.7780 -0.4720
10322TIP3    H255162   6.114   1.476   2.189 -1.0518  1.5050 -0.8670
10323TIP3   OH255163   3.135   6.590   4.053  0.1212 -0.1087 -0.1557
10323TIP3    H155164   3.177   6.521   4.104  0.3483 -1.2146 -1.7658
10323TIP3    H255165   3.058   6.547   4.015  0.4923  0.3823 -1.5135
10324TIP3   OH255166   0.389   2.899   2.100  0.4130 -0.2579  0.2952
10324TIP3    H155167   0.370   2.872   2.010  0.8597 -1.3808  0.5186
10324TIP3    H255168   0.460   2.963   2.092 -0.2902  0.4758 -0.2116
10325TIP3   OH255169   1.291   0.660   4.010 -0.1243  0.5697  0.5299
10325TIP3    H155170   1.383   0.684   4.027 -0.2009  0.4685  1.0990
10325TIP3    H255171   1.251   0.741   3.978  0.7259  0.0597 -2.1133
10326TIP3   OH255172   0.749   2.043   2.057 -0.4726 -0.1253  0.1106
10326TIP3    H155173   0.680   2.019   2.119  0.5702 -0.6740  1.0878
10326TIP3    H255174   0.768   1.962   2.010  0.0690 -0.1900  0.4277
10327TIP3   OH255175   6.657   2.486   2.023  0.2317  0.5109 -0.0397
10327TIP3    H155176   6.663   2.393   2.045  3.5903  0.5224 -0.3875
10327TIP3    H255177   6.671   2.489   1.928 -0.0049  1.3789 -0.0566
10328TIP3   OH255178   1.607   1.657   0.919  0.1878 -0.0659 -0.1762
10328TIP3    H155179   1.598   1.752   0.932  2.8494  0.0363  1.4572
10328TIP3    H255180   1.623   1.622   1.006 -0.2956 -2.0032 -0.8168
10329TIP3   OH255181   1.259   3.215   2.519 -0.4855 -0.4123  0.1019
10329TIP3    H155182   1.293   3.297   2.554  0.6355 -0.5475 -0.6158
10329TIP3    H255183   1.176   3.201   2.566 -0.6828  1.1015  0.2526
10330TIP3   OH255184   3.520   6.279   1.042  0.3717  0.1841  0.5040
10330TIP3    H155185   3.498   6.247   0.954 -0.5559  0.8081  0.4943
10330TIP3    H255186   3.476   6.363   1.048  1.5477  0.7736  1.0796
10331TIP3   OH255187   0.449   5.653   2.136  0.0881  0.2492  0.1019
10331TIP3    H155188   0.493   5.624   2.056 -1.5359 -0.8948 -0.4134
10331TIP3    H255189   0.356   5.649   2.115 -0.5824 -2.8349  2.8766
10332TIP3   OH255190   1.591   2.298   1.544  0.2053  0.1073  0.1037
10332TIP3    H155191   1.582   2.383   1.501 -0.9138 -0.3233 -0.5600
10332TIP3    H255192   1.517   2.294   1.605  0.1058 -0.4857 -0.0460
10333TIP3   OH255193   4.397   3.937   3.162 -0.3222 -0.4476 -0.7076
10333TIP3    H155194   4.487   3.903   3.154  0.7764  2.2771 -0.8557
10333TIP3    H255195   4.357   3.880   3.228  1.1997 -2.3146 -1.2914
10334TIP3   OH255196   3.067   4.240   4.617 -0.6939  0.2172 -0.4550
10334TIP3    H155197   2.995   4.286   4.660 -0.8574  0.5570 -1.0725
10334TIP3    H255198   3.098   4.302   4.551 -2.0132 -1.1589 -2.4872
10335TIP3   OH255199   5.559   0.010   1.597 -0.2029  0.0183  0.1117
10335TIP3    H155200   5.647  -0.027   1.594 -0.1494  0.1742 -0.1907
10335TIP3    H255201   5.572   0.104   1.581 -0.6518 -0.2879 -2.4828
10336TIP3   OH255202   1.590   4.453   1.096  0.0284 -0.2304  0.2059
10336TIP3    H155203   1.631   4.522   1.149  0.3800  0.0112 -0.3746
10336TIP3    H255204   1.651   4.439   1.024 -0.3405 -0.7205 -0.0137
10337TIP3   OH255205   5.274   3.837   2.717 -0.1689  0.0096 -0.2656
10337TIP3    H155206   5.337   3.793   2.661 -0.3747  1.4700 -1.7054
10337TIP3    H255207   5.248   3.770   2.780 -0.9948 -2.2089 -2.7509
10338TIP3   OH255208   6.093   3.015   0.464  0.1193 -0.1937  0.0817
10338TIP3    H155209   6.068   2.957   0.392  0.6215 -1.3624  0.8019
10338TIP3    H255210   6.017   3.016   0.522  0.0649 -0.0348  0.0068
10339TIP3   OH255211   5.171   1.299   3.942 -0.0836 -0.4376  0.1367
10339TIP3    H155212   5.200   1.383   3.906 -0.4505  0.4911  1.8808
10339TIP3    H255213   5.076   1.302   3.935 -0.1441 -0.3369  0.9563
10340TIP3   OH255214   0.391   6.166   1.981 -0.5933  0.0339  0.4055
10340TIP3    H155215   0.430   6.081   1.961  1.4333  1.1062 -0.5035
10340TIP3    H255216   0.465   6.226   1.986 -1.8380  1.5503  2.3605
10341TIP3   OH255217   2.950   1.946   0.956 -0.1182  0.3923  0.0532
10341TIP3    H155218   2.949   1.923   0.863  0.3789 -0.0707  0.1575
10341TIP3    H255219   3.043   1.946   0.980 -0.0751  2.4625  0.0846
10342TIP3   OH255220   1.265   2.742   3.153 -0.2766 -0.5196  0.2670
10342TIP3    H155221   1.329   2.698   3.209  0.4393  0.2885  0.1035
10342TIP3    H255222   1.234   2.673   3.095  0.3653 -0.9551  0.4188
10343TIP3   OH255223   5.244   4.552   2.009  0.4065 -0.4220 -1.3259
10343TIP3    H155224   5.314   4.600   2.052  0.8592 -2.4190  0.3732
10343TIP3    H255225   5.189   4.619   1.968  0.7029  1.5702  1.2744
10344TIP3   OH255226   4.782   6.609   2.340  0.4656 -0.0047 -0.2323
10344TIP3    H155227   4.728   6.530   2.340  1.4914 -0.7174 -0.0527
10344TIP3    H255228   4.719   6.681   2.333 -0.5030 -0.8148 -0.0253
10345TIP3   OH255229   4.792   3.538   2.357  0.0988 -0.0491 -0.0459
10345TIP3    H155230   4.878   3.578   2.366  0.6926 -1.4392  0.8691
10345TIP3    H255231   4.788   3.474   2.429 -1.1311 -0.9847 -0.9060
10346TIP3   OH255232   5.880   3.266   0.989 -0.6082  0.5719  0.0122
10346TIP3    H155233   5.816   3.309   0.931 -0.3185  1.1174  0.0877
10346TIP3    H255234   5.962   3.268   0.940 -0.7931 -0.7918 -0.3891
10347TIP3   OH255235   6.115   1.758   2.869 -0.4291  0.5121  0.6826
10347TIP3    H155236   6.163   1.678   2.890 -2.5471 -0.5219  1.8533
10347TIP3    H255237   6.176   1.809   2.816  0.4218 -2.6242 -1.6703
10348TIP3   OH255238   3.169   0.931   2.082  0.3071 -0.0020 -0.1948
10348TIP3    H155239   3.262   0.940   2.101  0.5627 -1.5405 -0.5496
10348TIP3    H255240   3.162   0.946   1.988  0.5054 -1.5528 -0.4991
10349TIP3   OH255241   1.987   5.939   3.938 -0.5952  0.0077 -0.1366
10349TIP3    H155242   2.016   5.913   3.850 -0.4159  1.1252 -0.4228
10349TIP3    H255243   2.068   5.961   3.984 -0.6170 -1.2758  0.5726
10350TIP3   OH255244   1.719   3.130   3.397  0.0168 -0.5534  0.1129
10350TIP3    H155245   1.665   3.206   3.374  1.6368  0.5456 -0.2320
10350TIP3    H255246   1.738   3.142   3.490 -1.2300 -1.5537  0.5230
10351TIP3   OH255247   3.862   4.466   1.531 -0.5361 -0.6342  0.3011
10351TIP3    H155248   3.946   4.511   1.526 -0.9608  0.1627  0.0081
10351TIP3    H255249   3.869   4.409   1.607  0.0522 -0.1214  0.6344
10352TIP3   OH255250   3.466   3.759   1.360 -0.2488 -0.0903 -0.4750
10352TIP3    H155251   3.437   3.692   1.422 -1.5611  0.0842 -0.8642
10352TIP3    H255252   3.555   3.780   1.387 -0.2376 -1.1518  0.3681
10353TIP3   OH255253   5.358   4.295   2.000  0.0709  0.0525  0.5010
10353TIP3    H155254   5.350   4.390   2.010 -2.5678  0.2141 -1.7788
10353TIP3    H255255   5.338   4.259   2.087 -1.4893  1.5735  0.8316
10354TIP3   OH255256   1.712   3.577   1.464  0.2428 -0.1345  0.7027
10354TIP3    H155257   1.689   3.652   1.410  0.2844 -0.6107  0.0153
10354TIP3    H255258   1.797   3.599   1.502 -0.5171  0.9005  1.8889
10355TIP3   OH255259   2.252   0.592   3.399  0.1638  0.2515  0.0897
10355TIP3    H155260   2.239   0.671   3.452 -0.6924  0.3216 -0.2086
10355TIP3    H255261   2.231   0.619   3.310 -0.1516 -0.3093 -0.0133
10356TIP3   OH255262   1.644   4.208   2.922 -0.1543  0.3028 -0.7918
10356TIP3    H155263   1.638   4.136   2.985  0.7082 -0.9791 -2.0837
10356TIP3    H255264   1.587   4.276   2.957  0.2826 -0.3444  1.3474
10357TIP3   OH255265   1.420   1.160   2.487 -0.0581 -0.1744 -0.2367
10357TIP3    H155266   1.339   1.163   2.435  0.3614 -0.1181 -0.9054
10357TIP3    H255267   1.431   1.067   2.508  0.3239 -0.3508 -1.1618
10358TIP3   OH255268   4.159   1.834   2.244 -0.0080  0.1352 -0.3478
10358TIP3    H155269   4.103   1.885   2.302 -0.4357  1.6230 -1.9758
10358TIP3    H255270   4.247   1.844   2.281 -0.0859  2.0861 -0.6066
10359TIP3   OH255271   5.452   1.442   2.101  0.7108  0.5825 -0.0229
10359TIP3    H155272   5.541   1.465   2.074  0.8531 -0.4735 -0.5156
10359TIP3    H255273   5.447   1.468   2.193  1.2255  1.4752 -0.2363
10360TIP3   OH255274   2.780   0.000   2.360  0.0159  0.1882  1.0522
10360TIP3    H155275   2.873  -0.007   2.381  0.8181  1.1254 -1.7695
10360TIP3    H255276   2.773   0.084   2.314 -1.2229 -1.9272 -3.0711
10361TIP3   OH255277   0.258   0.627   1.681  0.1045 -0.8734  0.2471
10361TIP3    H155278   0.320   0.700   1.677  0.9367 -1.5472  0.4981
10361TIP3    H255279   0.303   0.561   1.734  0.0194 -2.1548 -1.2065
10362TIP3   OH255280   6.036   1.306   2.880 -0.4258 -0.0252 -0.1928
10362TIP3    H155281   6.098   1.378   2.864 -0.6268 -0.2169 -2.1803
10362TIP3    H255282   6.079   1.252   2.946  1.3127  0.1522 -1.0920
10363TIP3   OH255283   2.853   6.428   2.971 -0.7821  0.5830 -0.6212
10363TIP3    H155284   2.891   6.342   2.954 -0.5323  0.2507  1.3468
10363TIP3    H255285   2.834   6.464   2.885  1.0463 -0.5757 -1.5532
10364TIP3   OH255286   0.681   0.959   3.699  0.7812  0.4942  0.3568
10364TIP3    H155287   0.650   0.889   3.642 -1.1129  1.1151  0.5303
10364TIP3    H255288   0.772   0.973   3.674  0.2676  0.1759 -1.9325
10365TIP3   OH255289   2.733   1.064   1.367  0.0847 -0.1861  0.3157
10365TIP3    H155290   2.677   1.096   1.296 -1.7723 -2.9200  0.4317
10365TIP3    H255291   2.713   1.123   1.440 -1.2009  0.0809 -0.2099
10366TIP3   OH255292   0.042   5.770   2.422 -0.3708  0.2090  0.3701
10366TIP3    H155293   0.070   5.830   2.491  1.9071 -0.4124  0.0678
10366TIP3    H255294  -0.053   5.764   2.432 -0.5372  2.9170  1.1441
10367TIP3   OH255295   1.777   5.358   4.448  0.6635 -0.4821  0.3240
10367TIP3    H155296   1.719   5.282   4.446 -0.3249  0.2157  1.6078
10367TIP3    H255297   1.726   5.428   4.408  1.6676 -0.5145 -1.1035
10368TIP3   OH255298   6.599   4.614   3.794 -0.0553 -0.3358 -0.6758
10368TIP3    H155299   6.668   4.648   3.851 -1.8256 -1.7331  2.6245
10368TIP3    H255300   6.625   4.523   3.776 -0.9669 -0.9090  0.6875
10369TIP3   OH255301   0.201   6.639   1.301 -0.2928  0.1129 -0.3663
10369TIP3    H155302   0.133   6.679   1.247 -0.5902 -0.1649 -0.1983
10369TIP3    H255303   0.221   6.706   1.367 -0.4273  0.1836 -0.3967
10370TIP3   OH255304   5.250   2.196   1.158  0.5102 -0.8374  0.5039
10370TIP3    H155305   5.287   2.190   1.246  1.2823  0.5928  0.3047
10370TIP3    H255306   5.166   2.240   1.170  1.0819  0.2979  0.4271
10371TIP3   OH255307   6.425   1.972   3.081 -0.7303  0.6388 -0.0384
10371TIP3    H155308   6.424   1.879   3.103  0.9987  0.5440 -0.2507
10371TIP3    H255309   6.334   1.991   3.056 -0.8246 -1.3733 -1.5653
10372TIP3   OH255310   4.323   3.939   1.053  0.2777 -0.1621  0.1283
10372TIP3    H155311   4.252   3.990   1.091  0.5971 -0.9007  1.7900
10372TIP3    H255312   4.362   3.892   1.127  1.3497 -1.1657 -1.0184
10373TIP3   OH255313   5.753   1.320   1.786  0.6872  0.3209 -0.4907
10373TIP3    H155314   5.791   1.335   1.873  0.3326  2.1661 -0.6065
10373TIP3    H255315   5.667   1.360   1.791 -0.5099 -2.0601 -0.8571
10374TIP3   OH255316   5.067   0.596   2.555  0.3995  0.1783  0.1021
10374TIP3    H155317   5.001   0.527   2.570  0.5350  0.0059 -0.0760
10374TIP3    H255318   5.015   0.674   2.537  0.2216 -0.1677 -0.9901
10375TIP3   OH255319   4.870   4.724   1.626  0.5277 -0.0689 -0.0137
10375TIP3    H155320   4.848   4.812   1.595  0.2003 -0.5216 -1.1034
10375TIP3    H255321   4.801   4.703   1.688  1.1249  0.8078  0.9839
10376TIP3   OH255322   0.495   3.726   1.432  0.1500  0.0855  0.2237
10376TIP3    H155323   0.553   3.802   1.421 -1.9488  1.8079  0.3722
10376TIP3    H255324   0.425   3.740   1.368  0.3875 -2.5145 -0.7253
10377TIP3   OH255325   3.214   5.586   0.662  0.6435  0.3963  0.2689
10377TIP3    H155326   3.125   5.581   0.627  0.9858  0.6110 -0.6715
10377TIP3    H255327   3.244   5.495   0.665  1.2043  0.4574 -1.6575
10378TIP3   OH255328   5.407   5.889   3.520 -0.3113  0.3985  0.0549
10378TIP3    H155329   5.410   5.954   3.590  0.7866 -1.4373  1.8336
10378TIP3    H255330   5.321   5.847   3.530 -0.8007  1.1859 -0.7468
10379TIP3   OH255331   0.539   6.238   1.510 -0.1451 -0.0689 -0.0827
10379TIP3    H155332   0.488   6.255   1.589  1.2115  2.0875  0.4216
10379TIP3    H255333   0.493   6.286   1.441 -0.7271 -1.0497 -0.3866
10380TIP3   OH255334   4.269   1.482   4.001 -0.2540 -0.9098  0.2652
10380TIP3    H155335   4.357   1.499   4.036  0.0373  1.3652 -1.3331
10380TIP3    H255336   4.283   1.415   3.934  0.2349 -0.7030  0.1520
10381TIP3   OH255337   4.201   0.408   1.221 -0.2140  0.2924  0.3225
10381TIP3    H155338   4.245   0.490   1.241 -0.0757  0.0925  0.8776
10381TIP3    H255339   4.140   0.429   1.151  0.9299  0.5230 -0.6287
10382TIP3   OH255340   3.772   2.921   1.402  0.0668  0.2867  0.5728
10382TIP3    H155341   3.715   2.846   1.418  1.3171 -1.3250 -1.8541
10382TIP3    H255342   3.717   2.998   1.420 -2.4916 -1.1659 -0.4673
10383TIP3   OH255343   1.607   2.403   0.617  0.1716  0.1726  0.3008
10383TIP3    H155344   1.614   2.310   0.637  0.5208  0.0442 -0.3928
10383TIP3    H255345   1.545   2.437   0.682 -0.4737 -0.6651  0.1470
10384TIP3   OH255346   2.221   4.462   0.625  0.0744 -0.1611  0.4503
10384TIP3    H155347   2.299   4.506   0.592 -0.4818  1.8148  1.5982
10384TIP3    H255348   2.148   4.509   0.584 -0.5278 -0.3980  1.2274
10385TIP3   OH255349   3.515   3.131   0.852 -0.9301  0.3240  0.5826
10385TIP3    H155350   3.451   3.114   0.783 -0.5174 -0.7986  0.4487
10385TIP3    H255351   3.524   3.226   0.855 -0.2825  0.3734 -1.5428
10386TIP3   OH255352   2.030   1.056   1.529  0.3721  0.0267 -0.0732
10386TIP3    H155353   1.950   1.021   1.567  0.6100 -1.7326 -1.0816
10386TIP3    H255354   2.036   1.016   1.443  1.4037  1.5595 -0.7682
10387TIP3   OH255355   4.088   4.627   1.523  0.5894  0.2013 -0.4399
10387TIP3    H155356   4.161   4.622   1.461 -0.0633  0.8867 -1.2854
10387TIP3    H255357   4.123   4.589   1.604  2.0219  0.8942 -0.6950
10388TIP3   OH255358   0.283   4.641   1.079  0.1427 -0.0141 -0.8198
10388TIP3    H155359   0.261   4.734   1.074 -1.0747 -0.2993 -1.0082
10388TIP3    H255360   0.378   4.638   1.065  0.4443  1.3112  0.6593
10389TIP3   OH255361   4.647   2.243   2.058 -0.3948  0.6241  0.1327
10389TIP3    H155362   4.689   2.297   2.126 -0.8402  0.1307  0.8107
10389TIP3    H255363   4.632   2.159   2.101 -1.6568  0.6450 -0.2335
10390TIP3   OH255364   1.792   5.060   1.774  0.6141  0.1342  0.4458
10390TIP3    H155365   1.884   5.087   1.765  0.6561  0.0084  0.4955
10390TIP3    H255366   1.794   4.992   1.841  0.8663 -1.8073 -1.4136
10391TIP3   OH255367   3.693   0.137   4.006 -0.3777  0.0644 -0.1226
10391TIP3    H155368   3.630   0.206   4.024  0.3927  1.1062 -1.2446
10391TIP3    H255369   3.739   0.124   4.089 -1.2470  0.1385  0.3723
10392TIP3   OH255370   4.085   5.252   1.393 -0.2710  0.1739 -0.4507
10392TIP3    H155371   4.034   5.266   1.473  0.5891 -0.2724  0.1946
10392TIP3    H255372   4.025   5.209   1.333 -0.7548 -0.0262  0.1689
10393TIP3   OH255373   0.810   4.846   2.969  0.7632 -0.0330 -0.2479
10393TIP3    H155374   0.764   4.767   2.941 -0.2141  0.6450 -0.6005
10393TIP3    H255375   0.899   4.816   2.988  0.4830 -1.1650 -0.6303
10394TIP3   OH255376   5.359   4.849   3.237 -1.0100 -0.1535  0.2608
10394TIP3    H155377   5.325   4.774   3.286  0.5177 -1.2427 -0.2687
10394TIP3    H255378   5.418   4.893   3.297 -1.6245  0.4379  0.4475
10395TIP3   OH255379   5.814   1.225   2.073  0.3328  0.2858  0.0343
10395TIP3    H155380   5.761   1.305   2.065 -0.5833 -0.0919  1.7843
10395TIP3    H255381   5.883   1.249   2.135 -0.4212 -0.4948  1.1936
10396TIP3   OH255382   5.550   4.025   2.372  0.8068 -0.8915  0.0407
10396TIP3    H155383   5.546   4.032   2.467 -0.1395 -2.2594  0.1448
10396TIP3    H255384   5.618   3.960   2.355  1.4654 -0.1354 -0.2629
10397TIP3   OH255385   2.591   0.428   4.085 -0.4233 -0.5253  0.0175
10397TIP3    H155386   2.541   0.468   4.014  0.4044  0.7806  0.1347
10397TIP3    H255387   2.527   0.416   4.156 -0.6663  0.8273  0.0556
10398TIP3   OH255388   3.251   6.001   1.210  0.0492 -0.0358  0.2323
10398TIP3    H155389   3.339   6.001   1.172  0.1818  0.1480  0.5295
10398TIP3    H255390   3.235   6.093   1.233 -0.0363 -0.1377  0.5907
10399TIP3   OH255391   6.316   5.911   1.648 -0.0196 -0.5047  0.0059
10399TIP3    H155392   6.382   5.878   1.709 -1.2580 -0.6581  1.3097
10399TIP3    H255393   6.346   5.881   1.562  1.9717  0.0569  0.4626
10400TIP3   OH255394   5.481   1.489   3.024  0.1258 -0.1117 -0.3041
10400TIP3    H155395   5.404   1.542   3.004  1.0071  1.0356 -0.7997
10400TIP3    H255396   5.447   1.400   3.037 -1.3756  0.5534  0.4604
10401TIP3   OH255397   0.046   2.237   2.127 -0.3454 -0.0864 -0.4800
10401TIP3    H155398   0.112   2.195   2.072  0.4607 -0.6249  0.8390
10401TIP3    H255399   0.097   2.275   2.200 -1.5120 -0.9802  0.8490
10402TIP3   OH255400   2.337   4.495   1.811 -0.1911 -0.0305  0.0099
10402TIP3    H155401   2.355   4.470   1.901 -1.0673 -0.1362  0.1657
10402TIP3    H255402   2.419   4.533   1.779  0.8298 -2.0004  0.1422
10403TIP3   OH255403   0.730   3.618   2.467  0.0854  0.6727  0.3015
10403TIP3    H155404   0.714   3.530   2.500 -1.9035  1.0531  0.4782
10403TIP3    H255405   0.820   3.638   2.494  1.0851 -1.7590 -0.8868
10404TIP3   OH255406   6.373   5.878   2.134 -0.5384  0.2257 -0.1283
10404TIP3    H155407   6.349   5.805   2.077 -0.4316 -0.1953  0.3623
10404TIP3    H255408   6.433   5.931   2.081 -0.5449 -0.0890 -0.4522
10405TIP3   OH255409   0.992   0.990   3.609  0.6307  0.2652 -0.5840
10405TIP3    H155410   1.032   1.078   3.612  0.5044  0.3007  0.4389
10405TIP3    H255411   0.974   0.969   3.701  0.7326 -0.8730 -0.8113
10406TIP3   OH255412   5.158   2.808   1.916 -0.1130  0.1349  0.0981
10406TIP3    H155413   5.158   2.882   1.976  1.9204 -2.0151  3.0255
10406TIP3    H255414   5.239   2.817   1.866 -0.5068  0.5076 -0.4956
10407TIP3   OH255415   0.853   4.546   3.996  0.4401  0.0521 -0.1619
10407TIP3    H155416   0.946   4.539   3.972  0.2233  1.0348 -1.4198
10407TIP3    H255417   0.828   4.633   3.966 -1.0124 -0.3908 -0.2946
10408TIP3   OH255418   1.313   3.029   0.360  1.0448 -0.1108 -0.2391
10408TIP3    H155419   1.297   2.946   0.404 -0.6655  0.3992  0.1584
10408TIP3    H255420   1.244   3.036   0.295  1.5098  0.7423 -0.6682
10409TIP3   OH255421   6.176   4.800   1.005 -0.3251 -0.0557  0.4875
10409TIP3    H155422   6.216   4.881   0.974  0.0509  0.5551  2.4348
10409TIP3    H255423   6.241   4.732   0.986  0.4348  0.4952  1.0781
10410TIP3   OH255424   2.377   5.938   2.852  0.1171 -0.1093 -0.1438
10410TIP3    H155425   2.463   5.979   2.845  0.6660 -0.7989  1.8649
10410TIP3    H255426   2.393   5.856   2.899 -1.6601 -0.1390  0.4946
10411TIP3   OH255427   0.777   1.649   1.614 -0.1284 -0.0231  0.6659
10411TIP3    H155428   0.719   1.581   1.649  0.3548 -1.1129 -0.5686
10411TIP3    H255429   0.776   1.635   1.519  0.4599  1.3347  0.4269
10412TIP3   OH255430   0.823   4.048   1.029  0.2200  0.1164  0.0089
10412TIP3    H155431   0.738   4.024   1.064  0.0032 -0.4988 -0.8978
10412TIP3    H255432   0.857   3.967   0.989  0.1541  0.9130 -1.7596
10413TIP3   OH255433   0.918   0.657   2.064  0.3658  0.3246 -0.1353
10413TIP3    H155434   0.884   0.699   2.143 -0.1550 -0.3999  0.0302
10413TIP3    H255435   0.937   0.730   2.005 -1.1709  0.7733 -0.1216
10414TIP3   OH255436   5.303   2.871   3.591 -0.0584 -0.4980 -0.0070
10414TIP3    H155437   5.307   2.781   3.624 -0.6271 -1.0288 -1.3433
10414TIP3    H255438   5.394   2.893   3.571 -0.1097 -1.4451 -1.3796
10415TIP3   OH255439   1.663   5.628   2.974 -0.2081 -0.2743 -0.0396
10415TIP3    H155440   1.576   5.626   2.935 -0.4472  1.4648  0.3376
10415TIP3    H255441   1.710   5.695   2.925  0.0146  0.7745  1.5385
10416TIP3   OH255442   0.947   4.501   2.818  0.6212  0.0287 -0.1052
10416TIP3    H155443   0.857   4.526   2.838  0.6611  1.4406 -1.5123
10416TIP3    H255444   0.949   4.406   2.832 -1.2973 -0.1641 -0.8124
10417TIP3   OH255445   5.485   5.501   4.226  0.4695  0.4680  0.3664
10417TIP3    H155446   5.467   5.483   4.134 -2.3260 -1.9029  1.2219
10417TIP3    H255447   5.580   5.512   4.231  0.7859 -0.1468 -2.6281
10418TIP3   OH255448   3.032   4.892   0.992 -0.0473 -0.0113 -0.7283
10418TIP3    H155449   3.016   4.984   1.011  1.4931  0.1045  0.1843
10418TIP3    H255450   3.058   4.890   0.900  0.8037  0.6031 -0.5129
10419TIP3   OH255451   5.810   0.035   1.032  0.2473 -1.0804 -0.0137
10419TIP3    H155452   5.854   0.099   0.977 -0.1297  0.8928  1.8195
10419TIP3    H255453   5.717   0.058   1.025  0.1743 -0.9346  1.1816
10420TIP3   OH255454   2.360   4.250   0.696  0.1931 -0.4661  0.3699
10420TIP3    H155455   2.448   4.263   0.661  0.1050 -0.9447 -0.0498
10420TIP3    H255456   2.310   4.324   0.663  0.7021  0.4477  1.5754
10421TIP3   OH255457   0.837   1.229   4.025  0.0231  0.1544 -0.1241
10421TIP3    H155458   0.828   1.305   4.083  2.0838  0.3588 -0.0136
10421TIP3    H255459   0.820   1.153   4.081 -2.0626  0.4687 -0.2344
10422TIP3   OH255460   2.115   2.798   4.344  0.4058  0.3715  0.1344
10422TIP3    H155461   2.207   2.823   4.351 -0.0853  2.8504 -1.2192
10422TIP3    H255462   2.067   2.874   4.376 -1.2262 -0.8857  0.8497
10423TIP3   OH255463   2.330   2.937   2.221 -0.2899  0.4004  0.0123
10423TIP3    H155464   2.408   2.990   2.206 -0.1372  0.1241 -0.2013
10423TIP3    H255465   2.323   2.883   2.142  0.4251 -0.9712  0.8407
10424TIP3   OH255466   6.565   5.672   0.746 -0.6252 -0.0110  0.2108
10424TIP3    H155467   6.608   5.690   0.829  0.0916 -0.9279  0.0574
10424TIP3    H255468   6.612   5.596   0.711 -1.2583  0.0410 -0.7809
10425TIP3   OH255469   4.421   4.993   1.167  0.4118  0.3077 -0.3341
10425TIP3    H155470   4.472   5.073   1.148  1.2023  0.1296  0.9440
10425TIP3    H255471   4.487   4.928   1.192 -0.2940 -0.5433 -0.6343
10426TIP3   OH255472   1.711   2.969   0.733  0.0729  0.5098  0.1760
10426TIP3    H155473   1.743   3.058   0.722  0.8302  0.2037 -0.1290
10426TIP3    H255474   1.785   2.920   0.769  0.6001 -0.6452 -2.2825
10427TIP3   OH255475   5.818   3.056   2.135  0.6779  0.7721  0.6394
10427TIP3    H155476   5.733   3.035   2.175  0.2762  2.3675  0.6934
10427TIP3    H255477   5.810   3.147   2.108  1.4803  0.2153 -1.7450
10428TIP3   OH255478   2.542   5.441   1.353  0.3035  0.1181  0.2171
10428TIP3    H155479   2.467   5.499   1.345  1.7609  1.8668 -1.8614
10428TIP3    H255480   2.517   5.363   1.303 -0.2100  0.6291 -0.3436
10429TIP3   OH255481   3.602   1.305   3.361  0.8208  0.1515 -0.1245
10429TIP3    H155482   3.664   1.282   3.430  2.5668 -1.6710 -2.1548
10429TIP3    H255483   3.648   1.368   3.306 -0.2818  1.0575 -0.0439
10430TIP3   OH255484   5.083   6.612   2.753 -0.5068  0.3818 -0.7976
10430TIP3    H155485   5.078   6.706   2.737 -0.9883  0.2274 -1.5850
10430TIP3    H255486   5.018   6.597   2.822 -0.2802  0.6519 -0.5201
10431TIP3   OH255487   2.070   5.693   3.038 -0.0901  0.3390  0.5566
10431TIP3    H155488   2.147   5.655   3.080 -0.8511 -0.5234  1.1709
10431TIP3    H255489   2.012   5.716   3.110 -0.2285  1.4232  0.1189
10432TIP3   OH255490   5.154   4.162   1.184  0.3476 -0.4609  0.5054
10432TIP3    H155491   5.071   4.157   1.231  0.6969 -1.1656  1.0753
10432TIP3    H255492   5.184   4.252   1.199 -0.9008  0.1996 -0.7739
10433TIP3   OH255493   0.700   6.045   1.592 -0.1689  0.1134  0.7839
10433TIP3    H155494   0.786   6.082   1.573  0.0624  0.5040  2.4347
10433TIP3    H255495   0.638   6.107   1.555  0.2534  0.1219  0.0867
10434TIP3   OH255496   1.796   2.175   2.217  0.7605  0.0915 -0.0798
10434TIP3    H155497   1.725   2.117   2.246  0.9013  0.4717  1.0637
10434TIP3    H255498   1.875   2.138   2.258  1.0806  0.2286 -0.5657
10435TIP3   OH255499   2.159   5.980   3.363 -0.4032  0.0590  0.7145
10435TIP3    H155500   2.214   5.994   3.286  0.6563 -1.0390  1.2330
10435TIP3    H255501   2.087   6.043   3.353  0.4920  0.9586 -0.4124
10436TIP3   OH255502   1.126   3.242   1.739  0.6389 -0.3607  0.0081
10436TIP3    H155503   1.073   3.278   1.809 -0.1417 -1.3575 -0.0392
10436TIP3    H255504   1.145   3.316   1.682 -0.7649  0.0268 -0.0015
10437TIP3   OH255505   3.731   4.080   3.069  0.1640  0.1853  0.0668
10437TIP3    H155506   3.667   4.012   3.088  0.0340 -0.5536 -2.5831
10437TIP3    H255507   3.808   4.032   3.038  0.4452  1.2032 -0.8494
10438TIP3   OH255508   1.494   4.268   2.613 -0.8305  0.2027 -0.7466
10438TIP3    H155509   1.476   4.262   2.707  0.0335 -0.6328 -0.6281
10438TIP3    H255510   1.463   4.184   2.578 -1.5892  0.6964 -1.2984
10439TIP3   OH255511   2.335   3.945   2.682 -0.5991 -0.2756  0.4084
10439TIP3    H155512   2.270   4.011   2.706  2.4281  2.1296  2.7125
10439TIP3    H255513   2.333   3.882   2.755  1.3638  1.2820  1.8987
   6.70200   6.70200  30.00000
