Generated by CHARMM-GUI FF-Converter
55513
    1DOPE     N    1   3.845   3.899  20.352
    1DOPE   HN1    2   3.852   3.891  20.661
    1DOPE   HN2    3   3.861   3.997  20.262
    1DOPE   HN3    4   3.750   3.866  20.271
    1DOPE   C12    5   3.943   3.803  20.175
    1DOPE  H12A    6   4.044   3.834  20.280
    1DOPE  H12B    7   3.940   3.811  19.845
    1DOPE   C11    8   3.909   3.660  20.316
    1DOPE  H11A    9   3.987   3.588  20.214
    1DOPE  H11B   10   3.814   3.628  20.166
    1DOPE     P   11   4.009   3.651  21.054
    1DOPE   O13   12   4.035   3.512  21.186
    1DOPE   O14   13   3.972   3.752  21.360
    1DOPE   O11   14   4.125   3.699  20.769
    1DOPE   O12   15   3.890   3.653  20.739
    1DOPE    C1   16   4.260   3.730  20.856
    1DOPE    HA   17   4.305   3.660  21.075
    1DOPE    HB   18   4.265   3.833  20.982
    1DOPE    C2   19   4.343   3.728  20.463
    1DOPE    HS   20   4.447   3.760  20.541
    1DOPE   O21   21   4.286   3.822  20.193
    1DOPE   C21   22   4.348   3.849  19.860
    1DOPE   O22   23   4.452   3.801  19.737
    1DOPE   C22   24   4.263   3.957  19.662
    1DOPE   H2R   25   4.189   3.996  19.881
    1DOPE   H2S   26   4.208   3.907  19.416
    1DOPE    C3   27   4.352   3.587  20.265
    1DOPE    HX   28   4.376   3.521  20.520
    1DOPE    HY   29   4.441   3.590  20.070
    1DOPE   O31   30   4.234   3.539  20.055
    1DOPE   C31   31   4.252   3.416  19.893
    1DOPE   O32   32   4.359   3.359  19.872
    1DOPE   C32   33   4.123   3.351  19.755
    1DOPE   H2X   34   4.137   3.241  19.788
    1DOPE   H2Y   35   4.040   3.381  19.956
    1DOPE   C23   36   4.353   4.071  19.524
    1DOPE   H3R   37   4.432   4.092  19.752
    1DOPE   H3S   38   4.293   4.164  19.482
    1DOPE   C24   39   4.414   4.031  19.125
    1DOPE   H4R   40   4.451   3.927  19.146
    1DOPE   H4S   41   4.504   4.086  19.038
    1DOPE   C25   42   4.313   4.050  18.792
    1DOPE   H5R   43   4.301   4.160  18.735
    1DOPE   H5S   44   4.214   4.013  18.891
    1DOPE   C26   45   4.358   3.977  18.417
    1DOPE   H6R   46   4.462   4.010  18.360
    1DOPE   H6S   47   4.299   4.009  18.159
    1DOPE   C27   48   4.359   3.824  18.456
    1DOPE   H7R   49   4.395   3.791  18.756
    1DOPE   H7S   50   4.430   3.784  18.234
    1DOPE   C28   51   4.229   3.753  18.348
    1DOPE   H8R   52   4.206   3.772  18.027
    1DOPE   H8S   53   4.150   3.798  18.534
    1DOPE   C29   54   4.249   3.607  18.447
    1DOPE   H9R   55   4.285   3.593  18.756
    1DOPE  C210   56   4.235   3.498  18.213
    1DOPE  H10R   57   4.250   3.399  18.351
    1DOPE  C211   58   4.194   3.491  17.781
    1DOPE  H11R   59   4.185   3.596  17.661
    1DOPE  H11S   60   4.091   3.453  17.772
    1DOPE  C212   61   4.277   3.419  17.442
    1DOPE  H12R   62   4.328   3.511  17.361
    1DOPE  H12S   63   4.206   3.389  17.211
    1DOPE  C213   64   4.383   3.305  17.475
    1DOPE  H13R   65   4.329   3.211  17.547
    1DOPE  H13S   66   4.437   3.329  17.748
    1DOPE  C214   67   4.488   3.243  17.151
    1DOPE  H14R   68   4.469   3.137  17.193
    1DOPE  H14S   69   4.571   3.249  17.370
    1DOPE  C215   70   4.593   3.279  16.776
    1DOPE  H15R   71   4.615   3.177  16.743
    1DOPE  H15S   72   4.688   3.309  16.920
    1DOPE  C216   73   4.591   3.352  16.323
    1DOPE  H16R   74   4.647   3.446  16.326
    1DOPE  H16S   75   4.496   3.380  16.218
    1DOPE  C217   76   4.613   3.305  15.873
    1DOPE  H17R   77   4.636   3.200  15.864
    1DOPE  H17S   78   4.700   3.362  15.756
    1DOPE  C218   79   4.497   3.328  15.564
    1DOPE  H18R   80   4.466   3.434  15.546
    1DOPE  H18S   81   4.405   3.272  15.633
    1DOPE  H18T   82   4.527   3.294  15.261
    1DOPE   C33   83   4.089   3.382  19.314
    1DOPE   H3X   84   4.001   3.319  19.227
    1DOPE   H3Y   85   4.171   3.354  19.104
    1DOPE   C34   86   4.051   3.529  19.269
    1DOPE   H4X   87   4.008   3.565  19.557
    1DOPE   H4Y   88   4.142   3.590  19.212
    1DOPE   C35   89   3.947   3.554  18.942
    1DOPE   H5X   90   3.854   3.497  19.011
    1DOPE   H5Y   91   3.987   3.515  18.654
    1DOPE   C36   92   3.916   3.703  18.903
    1DOPE   H6X   93   4.000   3.761  19.038
    1DOPE   H6Y   94   3.823   3.727  19.074
    1DOPE   C37   95   3.897   3.747  18.468
    1DOPE   H7X   96   3.981   3.716  18.276
    1DOPE   H7Y   97   3.808   3.693  18.348
    1DOPE   C38   98   3.870   3.899  18.429
    1DOPE   H8X   99   3.802   3.923  18.681
    1DOPE   H8Y  100   3.812   3.910  18.147
    1DOPE   C39  101   3.982   3.999  18.441
    1DOPE   H9X  102   4.030   4.009  18.735
    1DOPE  C310  103   4.024   4.077  18.135
    1DOPE  H10X  104   4.111   4.143  18.177
    1DOPE  C311  105   3.965   4.077  17.721
    1DOPE  H11X  106   3.857   4.052  17.715
    1DOPE  H11Y  107   3.978   4.177  17.583
    1DOPE  C312  108   4.040   3.982  17.448
    1DOPE  H12X  109   3.983   3.974  17.163
    1DOPE  H12Y  110   4.048   3.879  17.577
    1DOPE  C313  111   4.178   4.039  17.358
    1DOPE  H13X  112   4.170   4.147  17.283
    1DOPE  H13Y  113   4.248   4.030  17.610
    1DOPE  C314  114   4.234   3.969  16.998
    1DOPE  H14X  115   4.151   3.965  16.773
    1DOPE  H14Y  116   4.255   3.861  17.055
    1DOPE  C315  117   4.342   4.052  16.779
    1DOPE  H15X  118   4.284   4.132  16.647
    1DOPE  H15Y  119   4.349   3.988  16.527
    1DOPE  C316  120   4.478   4.110  16.974
    1DOPE  H16X  121   4.463   4.114  17.295
    1DOPE  H16Y  122   4.463   4.211  16.875
    1DOPE  C317  123   4.634   4.134  16.845
    1DOPE  H17X  124   4.635   4.215  16.617
    1DOPE  H17Y  125   4.683   4.176  17.115
    1DOPE  C318  126   4.744   4.041  16.674
    1DOPE  H18X  127   4.824   4.113  16.581
    1DOPE  H18Y  128   4.782   3.963  16.884
    1DOPE  H18Z  129   4.712   3.987  16.404
    2DOPE     N  130   4.521   4.437  20.697
    2DOPE   HN1  131   4.523   4.531  20.835
    2DOPE   HN2  132   4.605   4.425  20.514
    2DOPE   HN3  133   4.436   4.430  20.520
    2DOPE   C12  134   4.524   4.326  21.012
    2DOPE  H12A  135   4.422   4.318  21.141
    2DOPE  H12B  136   4.593   4.356  21.252
    2DOPE   C11  137   4.569   4.188  20.844
    2DOPE  H11A  138   4.527   4.169  20.541
    2DOPE  H11B  139   4.527   4.111  21.051
    2DOPE     P  140   4.786   4.044  20.706
    2DOPE   O13  141   4.692   3.930  20.727
    2DOPE   O14  142   4.915   4.034  20.928
    2DOPE   O11  143   4.817   4.085  20.250
    2DOPE   O12  144   4.712   4.179  20.847
    2DOPE    C1  145   4.870   4.218  20.199
    2DOPE    HA  146   4.960   4.232  20.394
    2DOPE    HB  147   4.795   4.294  20.295
    2DOPE    C2  148   4.918   4.256  19.767
    2DOPE    HS  149   4.965   4.357  19.791
    2DOPE   O21  150   4.815   4.264  19.473
    2DOPE   C21  151   4.709   4.336  19.530
    2DOPE   O22  152   4.687   4.416  19.800
    2DOPE   C22  153   4.607   4.297  19.218
    2DOPE   H2R  154   4.531   4.244  19.398
    2DOPE   H2S  155   4.653   4.227  18.999
    2DOPE    C3  156   5.026   4.158  19.599
    2DOPE    HX  157   5.105   4.149  19.833
    2DOPE    HY  158   5.075   4.204  19.332
    2DOPE   O31  159   4.973   4.027  19.512
    2DOPE   C31  160   4.908   4.014  19.161
    2DOPE   O32  161   4.912   4.094  18.888
    2DOPE   C32  162   4.831   3.880  19.149
    2DOPE   H2X  163   4.885   3.808  19.344
    2DOPE   H2Y  164   4.732   3.899  19.287
    2DOPE   C23  165   4.532   4.411  18.996
    2DOPE   H3R  166   4.512   4.496  19.200
    2DOPE   H3S  167   4.433   4.369  18.903
    2DOPE   C24  168   4.600   4.459  18.612
    2DOPE   H4R  169   4.701   4.499  18.675
    2DOPE   H4S  170   4.539   4.541  18.483
    2DOPE   C25  171   4.611   4.349  18.294
    2DOPE   H5R  172   4.515   4.292  18.291
    2DOPE   H5S  173   4.690   4.275  18.375
    2DOPE   C26  174   4.636   4.408  17.871
    2DOPE   H6R  175   4.741   4.381  17.784
    2DOPE   H6S  176   4.621   4.518  17.862
    2DOPE   C27  177   4.543   4.344  17.562
    2DOPE   H7R  178   4.554   4.238  17.661
    2DOPE   H7S  179   4.580   4.355  17.250
    2DOPE   C28  180   4.394   4.385  17.568
    2DOPE   H8R  181   4.368   4.409  17.886
    2DOPE   H8S  182   4.335   4.293  17.502
    2DOPE   C29  183   4.354   4.502  17.298
    2DOPE   H9R  184   4.369   4.598  17.448
    2DOPE  C210  185   4.326   4.506  16.896
    2DOPE  H10R  186   4.314   4.603  16.740
    2DOPE  C211  187   4.332   4.386  16.629
    2DOPE  H11R  188   4.306   4.305  16.839
    2DOPE  H11S  189   4.440   4.382  16.548
    2DOPE  C212  190   4.271   4.340  16.224
    2DOPE  H12R  191   4.163   4.314  16.248
    2DOPE  H12S  192   4.318   4.242  16.143
    2DOPE  C213  193   4.305   4.435  15.882
    2DOPE  H13R  194   4.274   4.538  15.966
    2DOPE  H13S  195   4.250   4.400  15.612
    2DOPE  C214  196   4.449   4.440  15.732
    2DOPE  H14R  197   4.473   4.340  15.606
    2DOPE  H14S  198   4.522   4.463  15.972
    2DOPE  C215  199   4.457   4.544  15.396
    2DOPE  H15R  200   4.444   4.643  15.537
    2DOPE  H15S  201   4.371   4.529  15.186
    2DOPE  C216  202   4.587   4.536  15.159
    2DOPE  H16R  203   4.670   4.521  15.378
    2DOPE  H16S  204   4.606   4.632  15.000
    2DOPE  C217  205   4.586   4.421  14.853
    2DOPE  H17R  206   4.553   4.461  14.559
    2DOPE  H17S  207   4.512   4.344  14.946
    2DOPE  C218  208   4.721   4.351  14.802
    2DOPE  H18R  209   4.723   4.292  14.523
    2DOPE  H18S  210   4.747   4.289  15.066
    2DOPE  H18T  211   4.802   4.421  14.751
    2DOPE   C33  212   4.809   3.818  18.720
    2DOPE   H3X  213   4.781   3.711  18.765
    2DOPE   H3Y  214   4.903   3.816  18.552
    2DOPE   C34  215   4.699   3.889  18.465
    2DOPE   H4X  216   4.609   3.890  18.660
    2DOPE   H4Y  217   4.733   3.993  18.408
    2DOPE   C35  218   4.664   3.825  18.054
    2DOPE   H5X  219   4.618   3.725  18.096
    2DOPE   H5Y  220   4.762   3.808  17.904
    2DOPE   C36  221   4.581   3.906  17.730
    2DOPE   H6X  222   4.668   3.927  17.532
    2DOPE   H6Y  223   4.549   4.008  17.808
    2DOPE   C37  224   4.473   3.831  17.460
    2DOPE   H7X  225   4.476   3.729  17.583
    2DOPE   H7Y  226   4.370   3.861  17.523
    2DOPE   C38  227   4.520   3.837  16.995
    2DOPE   H8X  228   4.587   3.760  17.064
    2DOPE   H8Y  229   4.590   3.914  17.019
    2DOPE   C39  230   4.509   3.808  16.533
    2DOPE   H9X  231   4.508   3.702  16.476
    2DOPE  C310  232   4.503   3.873  16.167
    2DOPE  H10X  233   4.499   3.807  15.906
    2DOPE  C311  234   4.505   4.021  16.026
    2DOPE  H11X  235   4.405   4.041  15.891
    2DOPE  H11Y  236   4.503   4.097  16.260
    2DOPE  C312  237   4.612   4.076  15.741
    2DOPE  H12X  238   4.709   4.098  15.882
    2DOPE  H12Y  239   4.577   4.174  15.615
    2DOPE  C313  240   4.621   3.983  15.390
    2DOPE  H13X  241   4.696   4.026  15.186
    2DOPE  H13Y  242   4.658   3.884  15.489
    2DOPE  C314  243   4.478   3.976  15.222
    2DOPE  H14X  244   4.428   4.075  15.228
    2DOPE  H14Y  245   4.420   3.906  15.414
    2DOPE  C315  246   4.465   3.916  14.811
    2DOPE  H15X  247   4.363   3.871  14.790
    2DOPE  H15Y  248   4.539   3.835  14.826
    2DOPE  C316  249   4.480   4.015  14.463
    2DOPE  H16X  250   4.409   4.099  14.514
    2DOPE  H16Y  251   4.448   3.970  14.175
    2DOPE  C317  252   4.619   4.078  14.430
    2DOPE  H17X  253   4.623   4.148  14.169
    2DOPE  H17Y  254   4.618   4.137  14.712
    2DOPE  C318  255   4.749   3.995  14.445
    2DOPE  H18X  256   4.834   4.063  14.514
    2DOPE  H18Y  257   4.746   3.919  14.685
    2DOPE  H18Z  258   4.770   3.943  14.157
    3DOPE     N  259   3.622   5.152  20.172
    3DOPE   HN1  260   3.704   5.152  20.364
    3DOPE   HN2  261   3.622   5.061  20.019
    3DOPE   HN3  262   3.641   5.228  19.968
    3DOPE   C12  263   3.490   5.172  20.388
    3DOPE  H12A  264   3.409   5.168  20.160
    3DOPE  H12B  265   3.491   5.272  20.529
    3DOPE   C11  266   3.465   5.063  20.709
    3DOPE  H11A  267   3.551   5.065  20.922
    3DOPE  H11B  268   3.468   4.963  20.559
    3DOPE     P  269   3.214   4.995  20.841
    3DOPE   O13  270   3.110   5.021  21.147
    3DOPE   O14  271   3.258   4.856  20.778
    3DOPE   O11  272   3.169   5.060  20.430
    3DOPE   O12  273   3.344   5.084  20.928
    3DOPE    C1  274   3.063   5.003  20.199
    3DOPE    HA  275   3.003   5.085  20.070
    3DOPE    HB  276   2.995   4.939  20.385
    3DOPE    C2  277   3.118   4.920  19.842
    3DOPE    HS  278   3.177   4.837  19.983
    3DOPE   O21  279   3.200   5.005  19.593
    3DOPE   C21  280   3.293   4.935  19.398
    3DOPE   O22  281   3.305   4.815  19.413
    3DOPE   C22  282   3.393   5.030  19.200
    3DOPE   H2R  283   3.412   5.115  19.404
    3DOPE   H2S  284   3.347   5.068  18.924
    3DOPE    C3  285   3.001   4.861  19.596
    3DOPE    HX  286   2.941   4.799  19.806
    3DOPE    HY  287   3.042   4.792  19.362
    3DOPE   O31  288   2.919   4.968  19.443
    3DOPE   C31  289   2.923   4.987  19.047
    3DOPE   O32  290   2.963   4.907  18.801
    3DOPE   C32  291   2.876   5.130  18.954
    3DOPE   H2X  292   2.766   5.128  18.927
    3DOPE   H2Y  293   2.905   5.195  19.212
    3DOPE   C23  294   3.523   4.954  19.101
    3DOPE   H3R  295   3.549   4.885  19.353
    3DOPE   H3S  296   3.608   5.025  19.062
    3DOPE   C24  297   3.508   4.873  18.714
    3DOPE   H4R  298   3.402   4.842  18.675
    3DOPE   H4S  299   3.567   4.779  18.732
    3DOPE   C25  300   3.553   4.952  18.342
    3DOPE   H5R  301   3.664   4.950  18.330
    3DOPE   H5S  302   3.522   5.058  18.366
    3DOPE   C26  303   3.495   4.895  17.952
    3DOPE   H6R  304   3.503   4.784  17.955
    3DOPE   H6S  305   3.558   4.933  17.700
    3DOPE   C27  306   3.349   4.934  17.877
    3DOPE   H7R  307   3.346   5.023  17.679
    3DOPE   H7S  308   3.304   4.963  18.171
    3DOPE   C28  309   3.261   4.827  17.676
    3DOPE   H8R  310   3.273   4.730  17.838
    3DOPE   H8S  311   3.296   4.811  17.364
    3DOPE   C29  312   3.117   4.872  17.691
    3DOPE   H9R  313   3.059   4.836  17.949
    3DOPE  C210  314   3.058   4.956  17.430
    3DOPE  H10R  315   2.952   4.982  17.478
    3DOPE  C211  316   3.121   5.022  17.070
    3DOPE  H11R  317   3.190   4.953  16.911
    3DOPE  H11S  318   3.183   5.109  17.166
    3DOPE  C212  319   3.013   5.073  16.773
    3DOPE  H12R  320   3.066   5.111  16.500
    3DOPE  H12S  321   2.960   5.159  16.911
    3DOPE  C213  322   2.910   4.967  16.644
    3DOPE  H13R  323   2.832   5.015  16.452
    3DOPE  H13S  324   2.858   4.922  16.908
    3DOPE  C214  325   2.976   4.856  16.398
    3DOPE  H14R  326   3.066   4.818  16.554
    3DOPE  H14S  327   3.008   4.906  16.119
    3DOPE  C215  328   2.886   4.736  16.296
    3DOPE  H15R  329   2.798   4.770  16.119
    3DOPE  H15S  330   2.849   4.690  16.578
    3DOPE  C216  331   2.965   4.631  16.062
    3DOPE  H16R  332   3.052   4.599  16.248
    3DOPE  H16S  333   3.004   4.675  15.780
    3DOPE  C217  334   2.889   4.507  15.930
    3DOPE  H17R  335   2.844   4.454  16.191
    3DOPE  H17S  336   2.968   4.442  15.801
    3DOPE  C218  337   2.786   4.531  15.600
    3DOPE  H18R  338   2.833   4.589  15.351
    3DOPE  H18S  339   2.699   4.587  15.717
    3DOPE  H18T  340   2.750   4.434  15.474
    3DOPE   C33  341   2.942   5.184  18.570
    3DOPE   H3X  342   2.897   5.282  18.486
    3DOPE   H3Y  343   2.925   5.115  18.315
    3DOPE   C34  344   3.093   5.205  18.630
    3DOPE   H4X  345   3.110   5.292  18.837
    3DOPE   H4Y  346   3.138   5.116  18.774
    3DOPE   C35  347   3.167   5.229  18.237
    3DOPE   H5X  348   3.115   5.308  18.063
    3DOPE   H5Y  349   3.163   5.135  18.054
    3DOPE   C36  350   3.313   5.270  18.300
    3DOPE   H6X  351   3.368   5.189  18.450
    3DOPE   H6Y  352   3.315   5.359  18.501
    3DOPE   C37  353   3.382   5.303  17.907
    3DOPE   H7X  354   3.393   5.212  17.721
    3DOPE   H7Y  355   3.313   5.368  17.739
    3DOPE   C38  356   3.519   5.373  17.955
    3DOPE   H8X  357   3.526   5.412  18.267
    3DOPE   H8Y  358   3.517   5.463  17.757
    3DOPE   C39  359   3.640   5.290  17.850
    3DOPE   H9X  360   3.710   5.269  18.096
    3DOPE  C310  361   3.667   5.243  17.481
    3DOPE  H10X  362   3.763   5.191  17.430
    3DOPE  C311  363   3.583   5.264  17.109
    3DOPE  H11X  364   3.491   5.323  17.178
    3DOPE  H11Y  365   3.638   5.327  16.893
    3DOPE  C312  366   3.535   5.136  16.890
    3DOPE  H12X  367   3.501   5.164  16.581
    3DOPE  H12Y  368   3.444   5.101  17.052
    3DOPE  C313  369   3.634   5.018  16.860
    3DOPE  H13X  370   3.695   5.025  16.584
    3DOPE  H13Y  371   3.704   5.019  17.118
    3DOPE  C314  372   3.562   4.882  16.887
    3DOPE  H14X  373   3.489   4.888  17.136
    3DOPE  H14Y  374   3.634   4.801  16.956
    3DOPE  C315  375   3.482   4.844  16.512
    3DOPE  H15X  376   3.413   4.928  16.443
    3DOPE  H15Y  377   3.418   4.756  16.587
    3DOPE  C316  378   3.569   4.810  16.149
    3DOPE  H16X  379   3.526   4.720  15.999
    3DOPE  H16Y  380   3.671   4.782  16.245
    3DOPE  C317  381   3.576   4.926  15.849
    3DOPE  H17X  382   3.479   4.981  15.846
    3DOPE  H17Y  383   3.653   4.997  15.957
    3DOPE  C318  384   3.611   4.887  15.417
    3DOPE  H18X  385   3.699   4.821  15.417
    3DOPE  H18Y  386   3.537   4.830  15.252
    3DOPE  H18Z  387   3.627   4.979  15.243
    4DOPE     N  388   4.342   2.502  20.214
    4DOPE   HN1  389   4.276   2.582  20.259
    4DOPE   HN2  390   4.396   2.520  19.953
    4DOPE   HN3  391   4.286   2.415  20.178
    4DOPE   C12  392   4.438   2.484  20.556
    4DOPE  H12A  393   4.466   2.378  20.553
    4DOPE  H12B  394   4.383   2.500  20.835
    4DOPE   C11  395   4.564   2.574  20.529
    4DOPE  H11A  396   4.534   2.679  20.469
    4DOPE  H11B  397   4.629   2.543  20.274
    4DOPE     P  398   4.669   2.451  21.168
    4DOPE   O13  399   4.544   2.443  21.411
    4DOPE   O14  400   4.798   2.468  21.381
    4DOPE   O11  401   4.673   2.338  20.841
    4DOPE   O12  402   4.642   2.574  20.886
    4DOPE    C1  403   4.637   2.201  20.859
    4DOPE    HA  404   4.546   2.187  21.048
    4DOPE    HB  405   4.720   2.143  21.006
    4DOPE    C2  406   4.613   2.141  20.427
    4DOPE    HS  407   4.708   2.093  20.337
    4DOPE   O21  408   4.574   2.242  20.136
    4DOPE   C21  409   4.672   2.305  19.962
    4DOPE   O22  410   4.781   2.330  20.091
    4DOPE   C22  411   4.637   2.340  19.536
    4DOPE   H2R  412   4.529   2.356  19.494
    4DOPE   H2S  413   4.669   2.250  19.359
    4DOPE    C3  414   4.500   2.033  20.406
    4DOPE    HX  415   4.405   2.089  20.391
    4DOPE    HY  416   4.495   1.977  20.691
    4DOPE   O31  417   4.510   1.937  20.073
    4DOPE   C31  418   4.476   1.985  19.710
    4DOPE   O32  419   4.444   2.100  19.644
    4DOPE   C32  420   4.480   1.877  19.380
    4DOPE   H2X  421   4.569   1.814  19.413
    4DOPE   H2Y  422   4.389   1.815  19.410
    4DOPE   C23  423   4.724   2.459  19.407
    4DOPE   H3R  424   4.832   2.445  19.482
    4DOPE   H3S  425   4.694   2.554  19.557
    4DOPE   C24  426   4.717   2.473  18.960
    4DOPE   H4R  427   4.615   2.512  18.891
    4DOPE   H4S  428   4.725   2.373  18.807
    4DOPE   C25  429   4.822   2.564  18.777
    4DOPE   H5R  430   4.918   2.511  18.717
    4DOPE   H5S  431   4.844   2.652  18.972
    4DOPE   C26  432   4.757   2.607  18.393
    4DOPE   H6R  433   4.663   2.659  18.486
    4DOPE   H6S  434   4.729   2.517  18.216
    4DOPE   C27  435   4.831   2.702  18.120
    4DOPE   H7R  436   4.925   2.658  17.997
    4DOPE   H7S  437   4.857   2.794  18.288
    4DOPE   C28  438   4.733   2.724  17.775
    4DOPE   H8R  439   4.721   2.622  17.649
    4DOPE   H8S  440   4.782   2.784  17.532
    4DOPE   C29  441   4.596   2.785  17.871
    4DOPE   H9R  442   4.599   2.882  18.027
    4DOPE  C210  443   4.476   2.730  17.796
    4DOPE  H10R  444   4.387   2.791  17.850
    4DOPE  C211  445   4.448   2.596  17.604
    4DOPE  H11R  446   4.346   2.559  17.691
    4DOPE  H11S  447   4.519   2.521  17.733
    4DOPE  C212  448   4.461   2.593  17.142
    4DOPE  H12R  449   4.388   2.665  17.013
    4DOPE  H12S  450   4.431   2.493  17.028
    4DOPE  C213  451   4.603   2.631  17.007
    4DOPE  H13R  452   4.684   2.558  17.055
    4DOPE  H13S  453   4.625   2.725  17.166
    4DOPE  C214  454   4.620   2.691  16.602
    4DOPE  H14R  455   4.721   2.738  16.569
    4DOPE  H14S  456   4.543   2.770  16.611
    4DOPE  C215  457   4.588   2.594  16.275
    4DOPE  H15R  458   4.526   2.650  16.059
    4DOPE  H15S  459   4.524   2.516  16.407
    4DOPE  C216  460   4.711   2.535  16.071
    4DOPE  H16R  461   4.680   2.436  15.951
    4DOPE  H16S  462   4.792   2.517  16.296
    4DOPE  C217  463   4.758   2.632  15.747
    4DOPE  H17R  464   4.844   2.688  15.879
    4DOPE  H17S  465   4.677   2.706  15.693
    4DOPE  C218  466   4.795   2.579  15.333
    4DOPE  H18R  467   4.708   2.541  15.165
    4DOPE  H18S  468   4.869   2.497  15.366
    4DOPE  H18T  469   4.840   2.662  15.156
    4DOPE   C33  470   4.480   1.952  18.972
    4DOPE   H3X  471   4.565   2.025  18.978
    4DOPE   H3Y  472   4.387   2.012  18.963
    4DOPE   C34  473   4.487   1.879  18.567
    4DOPE   H4X  474   4.590   1.839  18.519
    4DOPE   H4Y  475   4.416   1.793  18.555
    4DOPE   C35  476   4.452   1.977  18.219
    4DOPE   H5X  477   4.343   1.998  18.228
    4DOPE   H5Y  478   4.475   1.930  17.925
    4DOPE   C36  479   4.525   2.112  18.255
    4DOPE   H6X  480   4.635   2.093  18.267
    4DOPE   H6Y  481   4.497   2.164  18.537
    4DOPE   C37  482   4.497   2.212  17.913
    4DOPE   H7X  483   4.402   2.186  17.754
    4DOPE   H7Y  484   4.485   2.314  18.045
    4DOPE   C38  485   4.616   2.210  17.628
    4DOPE   H8X  486   4.624   2.106  17.520
    4DOPE   H8Y  487   4.706   2.229  17.817
    4DOPE   C39  488   4.619   2.310  17.295
    4DOPE   H9X  489   4.639   2.411  17.400
    4DOPE  C310  490   4.612   2.284  16.899
    4DOPE  H10X  491   4.613   2.367  16.683
    4DOPE  C311  492   4.598   2.147  16.725
    4DOPE  H11X  493   4.583   2.070  16.959
    4DOPE  H11Y  494   4.505   2.143  16.548
    4DOPE  C312  495   4.723   2.100  16.488
    4DOPE  H12X  496   4.737   1.993  16.566
    4DOPE  H12Y  497   4.815   2.156  16.572
    4DOPE  C313  498   4.716   2.110  16.035
    4DOPE  H13X  499   4.700   2.217  15.951
    4DOPE  H13Y  500   4.812   2.077  15.900
    4DOPE  C314  501   4.603   2.026  15.867
    4DOPE  H14X  502   4.514   2.052  16.041
    4DOPE  H14Y  503   4.620   1.916  15.906
    4DOPE  C315  504   4.577   2.062  15.435
    4DOPE  H15X  505   4.616   1.981  15.246
    4DOPE  H15Y  506   4.639   2.152  15.366
    4DOPE  C316  507   4.431   2.101  15.360
    4DOPE  H16X  508   4.427   2.186  15.150
    4DOPE  H16Y  509   4.383   2.130  15.645
    4DOPE  C317  510   4.339   1.999  15.171
    4DOPE  H17X  511   4.380   1.969  14.877
    4DOPE  H17Y  512   4.336   1.910  15.369
    4DOPE  C318  513   4.200   2.060  15.111
    4DOPE  H18X  514   4.124   1.982  15.045
    4DOPE  H18Y  515   4.169   2.116  15.384
    4DOPE  H18Z  516   4.203   2.132  14.859
    5DOPE     N  517   1.681   4.263  20.283
    5DOPE   HN1  518   1.609   4.190  20.247
    5DOPE   HN2  519   1.639   4.356  20.352
    5DOPE   HN3  520   1.735   4.274  20.016
    5DOPE   C12  521   1.776   4.237  20.613
    5DOPE  H12A  522   1.717   4.218  20.886
    5DOPE  H12B  523   1.835   4.331  20.652
    5DOPE   C11  524   1.865   4.117  20.520
    5DOPE  H11A  525   1.935   4.132  20.265
    5DOPE  H11B  526   1.805   4.028  20.436
    5DOPE     P  527   2.048   4.190  21.036
    5DOPE   O13  528   2.159   4.100  21.153
    5DOPE   O14  529   1.983   4.276  21.342
    5DOPE   O11  530   2.074   4.271  20.625
    5DOPE   O12  531   1.939   4.089  20.868
    5DOPE    C1  532   2.199   4.322  20.493
    5DOPE    HA  533   2.282   4.249  20.544
    5DOPE    HB  534   2.224   4.414  20.667
    5DOPE    C2  535   2.209   4.358  20.028
    5DOPE    HS  536   2.305   4.413  19.989
    5DOPE   O21  537   2.098   4.440  19.893
    5DOPE   C21  538   2.034   4.407  19.557
    5DOPE   O22  539   2.080   4.399  19.218
    5DOPE   C22  540   1.895   4.355  19.689
    5DOPE   H2R  541   1.857   4.429  19.908
    5DOPE   H2S  542   1.915   4.265  19.863
    5DOPE    C3  543   2.221   4.226  19.773
    5DOPE    HX  544   2.293   4.159  19.929
    5DOPE    HY  545   2.269   4.261  19.488
    5DOPE   O31  546   2.098   4.151  19.710
    5DOPE   C31  547   2.099   4.082  19.365
    5DOPE   O32  548   2.188   4.086  19.119
    5DOPE   C32  549   1.970   4.001  19.326
    5DOPE   H2X  550   1.982   3.916  19.533
    5DOPE   H2Y  551   1.884   4.059  19.434
    5DOPE   C23  552   1.796   4.325  19.338
    5DOPE   H3R  553   1.791   4.218  19.260
    5DOPE   H3S  554   1.831   4.378  19.062
    5DOPE   C24  555   1.652   4.372  19.401
    5DOPE   H4R  556   1.652   4.481  19.380
    5DOPE   H4S  557   1.614   4.350  19.695
    5DOPE   C25  558   1.547   4.319  19.104
    5DOPE   H5R  559   1.450   4.370  19.152
    5DOPE   H5S  560   1.533   4.210  19.170
    5DOPE   C26  561   1.583   4.326  18.660
    5DOPE   H6R  562   1.522   4.245  18.519
    5DOPE   H6S  563   1.689   4.298  18.609
    5DOPE   C27  564   1.552   4.455  18.429
    5DOPE   H7R  565   1.611   4.537  18.558
    5DOPE   H7S  566   1.447   4.485  18.462
    5DOPE   C28  567   1.588   4.448  17.982
    5DOPE   H8R  568   1.692   4.409  17.949
    5DOPE   H8S  569   1.585   4.548  17.841
    5DOPE   C29  570   1.486   4.357  17.799
    5DOPE   H9R  571   1.384   4.399  17.766
    5DOPE  C210  572   1.507   4.229  17.724
    5DOPE  H10R  573   1.417   4.168  17.688
    5DOPE  C211  574   1.634   4.151  17.802
    5DOPE  H11R  575   1.614   4.051  17.928
    5DOPE  H11S  576   1.697   4.200  18.033
    5DOPE  C212  577   1.722   4.135  17.430
    5DOPE  H12R  578   1.804   4.065  17.514
    5DOPE  H12S  579   1.769   4.231  17.346
    5DOPE  C213  580   1.652   4.077  17.061
    5DOPE  H13R  581   1.620   4.160  16.863
    5DOPE  H13S  582   1.561   4.022  17.151
    5DOPE  C214  583   1.747   3.980  16.845
    5DOPE  H14R  584   1.780   3.902  17.064
    5DOPE  H14S  585   1.838   4.036  16.752
    5DOPE  C215  586   1.684   3.912  16.482
    5DOPE  H15R  587   1.609   3.838  16.587
    5DOPE  H15S  588   1.763   3.856  16.317
    5DOPE  C216  589   1.614   4.010  16.194
    5DOPE  H16R  590   1.521   4.047  16.341
    5DOPE  H16S  591   1.583   3.955  15.918
    5DOPE  C217  592   1.700   4.129  16.071
    5DOPE  H17R  593   1.749   4.176  16.335
    5DOPE  H17S  594   1.638   4.208  15.933
    5DOPE  C218  595   1.806   4.091  15.768
    5DOPE  H18R  596   1.882   4.171  15.744
    5DOPE  H18S  597   1.763   4.073  15.468
    5DOPE  H18T  598   1.855   3.998  15.867
    5DOPE   C33  599   1.944   3.951  18.894
    5DOPE   H3X  600   1.881   3.860  18.924
    5DOPE   H3Y  601   2.039   3.919  18.744
    5DOPE   C34  602   1.866   4.048  18.621
    5DOPE   H4X  603   1.839   3.998  18.336
    5DOPE   H4Y  604   1.769   4.071  18.771
    5DOPE   C35  605   1.936   4.182  18.528
    5DOPE   H5X  606   1.967   4.228  18.816
    5DOPE   H5Y  607   1.866   4.252  18.381
    5DOPE   C36  608   2.061   4.177  18.261
    5DOPE   H6X  609   2.136   4.113  18.411
    5DOPE   H6Y  610   2.103   4.280  18.243
    5DOPE   C37  611   2.035   4.126  17.835
    5DOPE   H7X  612   1.976   4.031  17.853
    5DOPE   H7Y  613   1.976   4.198  17.655
    5DOPE   C38  614   2.166   4.091  17.622
    5DOPE   H8X  615   2.151   3.997  17.451
    5DOPE   H8Y  616   2.239   4.065  17.859
    5DOPE   C39  617   2.222   4.201  17.364
    5DOPE   H9X  618   2.211   4.303  17.490
    5DOPE  C310  619   2.277   4.184  17.001
    5DOPE  H10X  620   2.309   4.273  16.833
    5DOPE  C311  621   2.294   4.053  16.785
    5DOPE  H11X  622   2.371   4.061  16.545
    5DOPE  H11Y  623   2.330   3.972  16.986
    5DOPE  C312  624   2.162   4.002  16.605
    5DOPE  H12X  625   2.084   3.998  16.842
    5DOPE  H12Y  626   2.175   3.897  16.497
    5DOPE  C313  627   2.113   4.088  16.260
    5DOPE  H13X  628   2.006   4.063  16.218
    5DOPE  H13Y  629   2.116   4.195  16.347
    5DOPE  C314  630   2.191   4.063  15.873
    5DOPE  H14X  631   2.196   3.953  15.816
    5DOPE  H14Y  632   2.295   4.099  15.921
    5DOPE  C315  633   2.131   4.133  15.507
    5DOPE  H15X  634   2.093   4.233  15.606
    5DOPE  H15Y  635   2.043   4.076  15.393
    5DOPE  C316  636   2.231   4.155  15.165
    5DOPE  H16X  637   2.235   4.065  14.970
    5DOPE  H16Y  638   2.332   4.169  15.297
    5DOPE  C317  639   2.199   4.282  14.925
    5DOPE  H17X  640   2.184   4.367  15.135
    5DOPE  H17Y  641   2.287   4.307  14.739
    5DOPE  C318  642   2.080   4.274  14.640
    5DOPE  H18X  643   1.987   4.246  14.802
    5DOPE  H18Y  644   2.064   4.372  14.493
    5DOPE  H18Z  645   2.100   4.200  14.400
    6DOPE     N  646   1.875   5.215  21.213
    6DOPE   HN1  647   1.840   5.117  21.231
    6DOPE   HN2  648   1.868   5.264  21.489
    6DOPE   HN3  649   1.826   5.266  20.982
    6DOPE   C12  650   2.015   5.200  21.066
    6DOPE  H12A  651   2.070   5.139  21.288
    6DOPE  H12B  652   2.060   5.301  21.042
    6DOPE   C11  653   2.010   5.127  20.658
    6DOPE  H11A  654   2.112   5.090  20.580
    6DOPE  H11B  655   1.982   5.201  20.427
    6DOPE     P  656   1.953   4.877  20.772
    6DOPE   O13  657   2.038   4.890  21.135
    6DOPE   O14  658   2.006   4.807  20.421
    6DOPE   O11  659   1.824   4.807  20.925
    6DOPE   O12  660   1.910   5.025  20.652
    6DOPE    C1  661   1.711   4.868  21.093
    6DOPE    HA  662   1.718   4.979  21.087
    6DOPE    HB  663   1.700   4.839  21.414
    6DOPE    C2  664   1.585   4.827  20.859
    6DOPE    HS  665   1.534   4.745  21.027
    6DOPE   O21  666   1.614   4.785  20.454
    6DOPE   C21  667   1.641   4.664  20.358
    6DOPE   O22  668   1.644   4.563  20.565
    6DOPE   C22  669   1.654   4.651  19.902
    6DOPE   H2R  670   1.558   4.635  19.749
    6DOPE   H2S  671   1.710   4.557  19.881
    6DOPE    C3  672   1.493   4.952  20.841
    6DOPE    HX  673   1.484   4.991  21.156
    6DOPE    HY  674   1.392   4.926  20.736
    6DOPE   O31  675   1.548   5.056  20.592
    6DOPE   C31  676   1.530   5.031  20.208
    6DOPE   O32  677   1.452   4.950  20.067
    6DOPE   C32  678   1.631   5.112  19.971
    6DOPE   H2X  679   1.644   5.211  20.118
    6DOPE   H2Y  680   1.727   5.057  19.989
    6DOPE   C23  681   1.737   4.755  19.668
    6DOPE   H3R  682   1.792   4.820  19.884
    6DOPE   H3S  683   1.666   4.817  19.509
    6DOPE   C24  684   1.841   4.695  19.374
    6DOPE   H4R  685   1.868   4.596  19.491
    6DOPE   H4S  686   1.933   4.754  19.434
    6DOPE   C25  687   1.809   4.677  18.912
    6DOPE   H5R  688   1.749   4.586  18.900
    6DOPE   H5S  689   1.906   4.657  18.759
    6DOPE   C26  690   1.739   4.795  18.687
    6DOPE   H6R  691   1.818   4.860  18.573
    6DOPE   H6S  692   1.676   4.836  18.918
    6DOPE   C27  693   1.638   4.800  18.333
    6DOPE   H7R  694   1.567   4.718  18.363
    6DOPE   H7S  695   1.686   4.787  18.042
    6DOPE   C28  696   1.567   4.940  18.324
    6DOPE   H8R  697   1.646   5.018  18.306
    6DOPE   H8S  698   1.517   4.955  18.615
    6DOPE   C29  699   1.465   4.973  18.012
    6DOPE   H9R  700   1.361   4.981  18.117
    6DOPE  C210  701   1.489   5.010  17.637
    6DOPE  H10R  702   1.402   5.023  17.436
    6DOPE  C211  703   1.622   5.026  17.442
    6DOPE  H11R  704   1.707   5.008  17.649
    6DOPE  H11S  705   1.636   5.129  17.313
    6DOPE  C212  706   1.619   4.925  17.100
    6DOPE  H12R  707   1.592   4.824  17.217
    6DOPE  H12S  708   1.720   4.918  16.962
    6DOPE  C213  709   1.516   4.965  16.779
    6DOPE  H13R  710   1.524   5.075  16.731
    6DOPE  H13S  711   1.413   4.942  16.881
    6DOPE  C214  712   1.538   4.895  16.383
    6DOPE  H14R  713   1.521   4.786  16.419
    6DOPE  H14S  714   1.644   4.910  16.290
    6DOPE  C215  715   1.448   4.952  16.056
    6DOPE  H15R  716   1.467   5.061  16.023
    6DOPE  H15S  717   1.341   4.941  16.143
    6DOPE  C216  718   1.473   4.882  15.660
    6DOPE  H16R  719   1.581   4.885  15.588
    6DOPE  H16S  720   1.419   4.938  15.420
    6DOPE  C217  721   1.424   4.737  15.660
    6DOPE  H17R  722   1.358   4.719  15.924
    6DOPE  H17S  723   1.511   4.669  15.693
    6DOPE  C218  724   1.346   4.705  15.279
    6DOPE  H18R  725   1.309   4.601  15.279
    6DOPE  H18S  726   1.411   4.720  15.012
    6DOPE  H18T  727   1.257   4.768  15.249
    6DOPE   C33  728   1.583   5.132  19.536
    6DOPE   H3X  729   1.583   5.240  19.479
    6DOPE   H3Y  730   1.477   5.102  19.503
    6DOPE   C34  731   1.661   5.055  19.209
    6DOPE   H4X  732   1.603   4.963  19.227
    6DOPE   H4Y  733   1.639   5.102  18.915
    6DOPE   C35  734   1.816   5.042  19.245
    6DOPE   H5X  735   1.859   5.009  19.536
    6DOPE   H5Y  736   1.815   5.147  19.272
    6DOPE   C36  737   1.921   5.046  18.891
    6DOPE   H6X  738   1.971   5.144  18.864
    6DOPE   H6Y  739   1.872   5.039  18.597
    6DOPE   C37  740   2.042   4.954  18.942
    6DOPE   H7X  741   2.104   4.987  19.203
    6DOPE   H7Y  742   2.006   4.854  19.029
    6DOPE   C38  743   2.133   4.944  18.570
    6DOPE   H8X  744   2.238   4.955  18.672
    6DOPE   H8Y  745   2.114   5.025  18.348
    6DOPE   C39  746   2.109   4.805  18.411
    6DOPE   H9X  747   2.125   4.728  18.642
    6DOPE  C310  748   2.080   4.763  18.045
    6DOPE  H10X  749   2.067   4.654  18.003
    6DOPE  C311  750   2.062   4.845  17.673
    6DOPE  H11X  751   2.004   4.937  17.736
    6DOPE  H11Y  752   2.161   4.873  17.544
    6DOPE  C312  753   1.989   4.755  17.373
    6DOPE  H12X  754   2.050   4.664  17.310
    6DOPE  H12Y  755   1.976   4.809  17.085
    6DOPE  C313  756   1.851   4.717  17.532
    6DOPE  H13X  757   1.854   4.659  17.820
    6DOPE  H13Y  758   1.802   4.815  17.589
    6DOPE  C314  759   1.767   4.638  17.235
    6DOPE  H14X  760   1.760   4.698  16.956
    6DOPE  H14Y  761   1.663   4.627  17.346
    6DOPE  C315  762   1.825   4.500  17.154
    6DOPE  H15X  763   1.794   4.432  17.400
    6DOPE  H15Y  764   1.936   4.501  17.151
    6DOPE  C316  765   1.779   4.451  16.749
    6DOPE  H16X  766   1.670   4.473  16.716
    6DOPE  H16Y  767   1.792   4.341  16.722
    6DOPE  C317  768   1.858   4.520  16.413
    6DOPE  H17X  769   1.870   4.629  16.473
    6DOPE  H17Y  770   1.960   4.476  16.395
    6DOPE  C318  771   1.784   4.503  16.023
    6DOPE  H18X  772   1.682   4.547  16.053
    6DOPE  H18Y  773   1.834   4.555  15.774
    6DOPE  H18Z  774   1.775   4.395  15.951
    7DOPE     N  775   4.903   5.807  21.639
    7DOPE   HN1  776   5.005   5.821  21.588
    7DOPE   HN2  777   4.864   5.898  21.738
    7DOPE   HN3  778   4.891   5.735  21.867
    7DOPE   C12  779   4.828   5.763  21.267
    7DOPE  H12A  780   4.721   5.774  21.339
    7DOPE  H12B  781   4.853   5.656  21.210
    7DOPE   C11  782   4.855   5.847  20.886
    7DOPE  H11A  783   4.960   5.832  20.790
    7DOPE  H11B  784   4.840   5.955  20.949
    7DOPE     P  785   4.625   5.864  20.484
    7DOPE   O13  786   4.636   6.004  20.349
    7DOPE   O14  787   4.538   5.835  20.832
    7DOPE   O11  788   4.570   5.784  20.118
    7DOPE   O12  789   4.770   5.803  20.568
    7DOPE    C1  790   4.611   5.651  20.031
    7DOPE    HA  791   4.518   5.590  20.004
    7DOPE    HB  792   4.673   5.604  20.271
    7DOPE    C2  793   4.685   5.642  19.626
    7DOPE    HS  794   4.669   5.535  19.539
    7DOPE   O21  795   4.827   5.677  19.659
    7DOPE   C21  796   4.887   5.633  19.326
    7DOPE   O22  797   4.831   5.556  19.098
    7DOPE   C22  798   5.024   5.698  19.257
    7DOPE   H2R  799   5.088   5.675  19.518
    7DOPE   H2S  800   5.010   5.807  19.236
    7DOPE    C3  801   4.618   5.733  19.302
    7DOPE    HX  802   4.513   5.753  19.398
    7DOPE    HY  803   4.616   5.677  19.014
    7DOPE   O31  804   4.683   5.860  19.269
    7DOPE   C31  805   4.728   5.905  18.927
    7DOPE   O32  806   4.745   5.843  18.618
    7DOPE   C32  807   4.751   6.055  18.993
    7DOPE   H2X  808   4.724   6.080  19.305
    7DOPE   H2Y  809   4.857   6.080  18.939
    7DOPE   C23  810   5.096   5.648  18.870
    7DOPE   H3R  811   5.131   5.544  18.912
    7DOPE   H3S  812   5.188   5.709  18.822
    7DOPE   C24  813   5.010   5.654  18.492
    7DOPE   H4R  814   4.980   5.758  18.417
    7DOPE   H4S  815   4.917   5.595  18.519
    7DOPE   C25  816   5.074   5.589  18.132
    7DOPE   H5R  817   5.092   5.481  18.195
    7DOPE   H5S  818   5.173   5.636  18.084
    7DOPE   C26  819   4.976   5.600  17.781
    7DOPE   H6R  820   4.955   5.706  17.703
    7DOPE   H6S  821   4.880   5.562  17.895
    7DOPE   C27  822   5.024   5.523  17.409
    7DOPE   H7R  823   4.953   5.511  17.160
    7DOPE   H7S  824   5.053   5.420  17.514
    7DOPE   C28  825   5.145   5.592  17.241
    7DOPE   H8R  826   5.201   5.525  17.034
    7DOPE   H8S  827   5.203   5.604  17.517
    7DOPE   C29  828   5.142   5.733  17.106
    7DOPE   H9R  829   5.097   5.805  17.319
    7DOPE  C210  830   5.183   5.777  16.752
    7DOPE  H10R  831   5.180   5.885  16.704
    7DOPE  C211  832   5.238   5.703  16.395
    7DOPE  H11R  833   5.345   5.676  16.419
    7DOPE  H11S  834   5.238   5.776  16.146
    7DOPE  C212  835   5.146   5.596  16.206
    7DOPE  H12R  836   5.120   5.515  16.422
    7DOPE  H12S  837   5.211   5.555  15.969
    7DOPE  C213  838   5.020   5.666  16.023
    7DOPE  H13R  839   5.058   5.763  15.912
    7DOPE  H13S  840   4.953   5.683  16.284
    7DOPE  C214  841   4.935   5.637  15.636
    7DOPE  H14R  842   4.849   5.705  15.693
    7DOPE  H14S  843   4.883   5.540  15.627
    7DOPE  C215  844   4.997   5.688  15.228
    7DOPE  H15R  845   5.087   5.633  15.159
    7DOPE  H15S  846   5.041   5.789  15.252
    7DOPE  C216  847   4.923   5.668  14.823
    7DOPE  H16R  848   4.817   5.699  14.853
    7DOPE  H16S  849   4.923   5.558  14.781
    7DOPE  C217  850   4.990   5.733  14.445
    7DOPE  H17R  851   4.993   5.841  14.493
    7DOPE  H17S  852   4.932   5.733  14.163
    7DOPE  C218  853   5.124   5.676  14.301
    7DOPE  H18R  854   5.175   5.758  14.136
    7DOPE  H18S  855   5.110   5.590  14.091
    7DOPE  H18T  856   5.189   5.640  14.544
    7DOPE   C33  857   4.659   6.136  18.717
    7DOPE   H3X  858   4.659   6.243  18.816
    7DOPE   H3Y  859   4.553   6.100  18.732
    7DOPE   C34  860   4.709   6.126  18.291
    7DOPE   H4X  861   4.814   6.088  18.282
    7DOPE   H4Y  862   4.646   6.050  18.135
    7DOPE   C35  863   4.707   6.258  18.069
    7DOPE   H5X  864   4.805   6.310  18.114
    7DOPE   H5Y  865   4.628   6.327  18.177
    7DOPE   C36  866   4.686   6.226  17.631
    7DOPE   H6X  867   4.582   6.245  17.541
    7DOPE   H6Y  868   4.707   6.118  17.577
    7DOPE   C37  869   4.780   6.305  17.370
    7DOPE   H7X  870   4.787   6.409  17.478
    7DOPE   H7Y  871   4.882   6.266  17.409
    7DOPE   C38  872   4.735   6.308  16.929
    7DOPE   H8X  873   4.826   6.333  16.767
    7DOPE   H8Y  874   4.667   6.391  16.878
    7DOPE   C39  875   4.668   6.188  16.749
    7DOPE   H9X  876   4.646   6.111  16.971
    7DOPE  C310  877   4.649   6.156  16.362
    7DOPE  H10X  878   4.606   6.056  16.320
    7DOPE  C311  879   4.685   6.224  15.969
    7DOPE  H11X  880   4.731   6.324  15.999
    7DOPE  H11Y  881   4.769   6.174  15.825
    7DOPE  C312  882   4.572   6.230  15.654
    7DOPE  H12X  883   4.608   6.257  15.348
    7DOPE  H12Y  884   4.510   6.311  15.765
    7DOPE  C313  885   4.470   6.117  15.630
    7DOPE  H13X  886   4.452   6.071  15.927
    7DOPE  H13Y  887   4.371   6.158  15.534
    7DOPE  C314  888   4.515   6.015  15.324
    7DOPE  H14X  889   4.624   6.024  15.276
    7DOPE  H14Y  890   4.475   6.040  15.027
    7DOPE  C315  891   4.480   5.874  15.444
    7DOPE  H15X  892   4.370   5.861  15.465
    7DOPE  H15Y  893   4.521   5.848  15.741
    7DOPE  C316  894   4.535   5.782  15.120
    7DOPE  H16X  895   4.643   5.806  15.075
    7DOPE  H16Y  896   4.481   5.806  14.838
    7DOPE  C317  897   4.519   5.636  15.228
    7DOPE  H17X  898   4.620   5.590  15.252
    7DOPE  H17Y  899   4.478   5.631  15.534
    7DOPE  C318  900   4.431   5.560  14.934
    7DOPE  H18X  901   4.459   5.577  14.619
    7DOPE  H18Y  902   4.431   5.451  15.003
    7DOPE  H18Z  903   4.328   5.595  14.922
    8DOPE     N  904   5.486   5.544  21.609
    8DOPE   HN1  905   5.410   5.483  21.726
    8DOPE   HN2  906   5.541   5.474  21.438
    8DOPE   HN3  907   5.543   5.583  21.843
    8DOPE   C12  908   5.433   5.648  21.330
    8DOPE  H12A  909   5.520   5.700  21.192
    8DOPE  H12B  910   5.371   5.719  21.501
    8DOPE   C11  911   5.355   5.580  20.991
    8DOPE  H11A  912   5.308   5.655  20.790
    8DOPE  H11B  913   5.275   5.518  21.123
    8DOPE     P  914   5.385   5.388  20.499
    8DOPE   O13  915   5.271   5.440  20.268
    8DOPE   O14  916   5.369   5.275  20.781
    8DOPE   O11  917   5.509   5.366  20.226
    8DOPE   O12  918   5.447   5.501  20.769
    8DOPE    C1  919   5.623   5.311  20.421
    8DOPE    HA  920   5.600   5.241  20.670
    8DOPE    HB  921   5.687   5.393  20.535
    8DOPE    C2  922   5.694   5.221  20.121
    8DOPE    HS  923   5.791   5.191  20.241
    8DOPE   O21  924   5.716   5.291  19.761
    8DOPE   C21  925   5.804   5.385  19.806
    8DOPE   O22  926   5.869   5.413  20.103
    8DOPE   C22  927   5.811   5.460  19.419
    8DOPE   H2R  928   5.918   5.484  19.380
    8DOPE   H2S  929   5.749   5.552  19.443
    8DOPE    C3  930   5.615   5.091  20.037
    8DOPE    HX  931   5.595   5.040  20.328
    8DOPE    HY  932   5.683   5.025  19.866
    8DOPE   O31  933   5.490   5.111  19.839
    8DOPE   C31  934   5.497   5.109  19.446
    8DOPE   O32  935   5.596   5.087  19.242
    8DOPE   C32  936   5.358   5.113  19.275
    8DOPE   H2X  937   5.344   5.010  19.167
    8DOPE   H2Y  938   5.284   5.139  19.509
    8DOPE   C23  939   5.772   5.379  19.050
    8DOPE   H3R  940   5.665   5.350  19.053
    8DOPE   H3S  941   5.828   5.286  19.029
    8DOPE   C24  942   5.816   5.454  18.684
    8DOPE   H4R  943   5.925   5.473  18.687
    8DOPE   H4S  944   5.766   5.550  18.714
    8DOPE   C25  945   5.778   5.383  18.300
    8DOPE   H5R  946   5.765   5.458  18.057
    8DOPE   H5S  947   5.681   5.329  18.345
    8DOPE   C26  948   5.888   5.287  18.180
    8DOPE   H6R  949   5.961   5.280  18.429
    8DOPE   H6S  950   5.942   5.328  17.919
    8DOPE   C27  951   5.837   5.147  18.087
    8DOPE   H7R  952   5.753   5.121  18.291
    8DOPE   H7S  953   5.920   5.075  18.150
    8DOPE   C28  954   5.797   5.141  17.649
    8DOPE   H8R  955   5.881   5.173  17.457
    8DOPE   H8S  956   5.713   5.213  17.604
    8DOPE   C29  957   5.758   5.003  17.529
    8DOPE   H9R  958   5.840   4.941  17.436
    8DOPE  C210  959   5.636   4.952  17.553
    8DOPE  H10R  960   5.615   4.855  17.409
    8DOPE  C211  961   5.518   5.028  17.709
    8DOPE  H11R  962   5.546   5.106  17.931
    8DOPE  H11S  963   5.445   4.959  17.850
    8DOPE  C212  964   5.457   5.095  17.343
    8DOPE  H12R  965   5.525   5.174  17.217
    8DOPE  H12S  966   5.363   5.146  17.436
    8DOPE  C213  967   5.427   4.993  17.019
    8DOPE  H13R  968   5.402   4.894  17.151
    8DOPE  H13S  969   5.515   4.978  16.818
    8DOPE  C214  970   5.311   5.041  16.773
    8DOPE  H14R  971   5.218   5.048  16.959
    8DOPE  H14S  972   5.297   4.959  16.551
    8DOPE  C215  973   5.343   5.177  16.590
    8DOPE  H15R  974   5.445   5.172  16.458
    8DOPE  H15S  975   5.345   5.257  16.821
    8DOPE  C216  976   5.245   5.214  16.260
    8DOPE  H16R  977   5.292   5.298  16.095
    8DOPE  H16S  978   5.151   5.251  16.395
    8DOPE  C217  979   5.221   5.095  15.978
    8DOPE  H17R  980   5.311   5.030  15.990
    8DOPE  H17S  981   5.218   5.126  15.660
    8DOPE  C218  982   5.100   5.007  16.077
    8DOPE  H18R  983   5.006   5.061  16.020
    8DOPE  H18S  984   5.097   4.971  16.389
    8DOPE  H18T  985   5.106   4.916  15.885
    8DOPE   C33  986   5.351   5.207  18.915
    8DOPE   H3X  987   5.256   5.189  18.747
    8DOPE   H3Y  988   5.436   5.181  18.711
    8DOPE   C34  989   5.355   5.353  19.044
    8DOPE   H4X  990   5.251   5.385  19.113
    8DOPE   H4Y  991   5.413   5.366  19.326
    8DOPE   C35  992   5.415   5.446  18.726
    8DOPE   H5X  993   5.524   5.456  18.774
    8DOPE   H5Y  994   5.372   5.548  18.765
    8DOPE   C36  995   5.395   5.400  18.294
    8DOPE   H6X  996   5.286   5.393  18.225
    8DOPE   H6Y  997   5.440   5.301  18.228
    8DOPE   C37  998   5.462   5.500  18.018
    8DOPE   H7X  999   5.442   5.601  18.144
    8DOPE   H7Y 1000   5.571   5.485  18.021
    8DOPE   C38 1001   5.419   5.484  17.586
    8DOPE   H8X 1002   5.314   5.448  17.586
    8DOPE   H8Y 1003   5.475   5.400  17.448
    8DOPE   C39 1004   5.439   5.620  17.397
    8DOPE   H9X 1005   5.384   5.702  17.544
    8DOPE  C310 1006   5.522   5.649  17.100
    8DOPE  H10X 1007   5.532   5.753  16.998
    8DOPE  C311 1008   5.609   5.542  16.920
    8DOPE  H11X 1009   5.560   5.442  16.932
    8DOPE  H11Y 1010   5.623   5.561  16.602
    8DOPE  C312 1011   5.744   5.537  17.142
    8DOPE  H12X 1012   5.720   5.542  17.469
    8DOPE  H12Y 1013   5.804   5.627  17.067
    8DOPE  C313 1014   5.824   5.406  17.088
    8DOPE  H13X 1015   5.879   5.389  17.373
    8DOPE  H13Y 1016   5.751   5.324  17.052
    8DOPE  C314 1017   5.925   5.399  16.737
    8DOPE  H14X 1018   6.023   5.440  16.830
    8DOPE  H14Y 1019   5.891   5.469  16.500
    8DOPE  C315 1020   5.937   5.263  16.518
    8DOPE  H15X 1021   5.993   5.184  16.683
    8DOPE  H15Y 1022   5.998   5.282  16.245
    8DOPE  C316 1023   5.803   5.204  16.386
    8DOPE  H16X 1024   5.750   5.157  16.644
    8DOPE  H16Y 1025   5.823   5.122  16.176
    8DOPE  C317 1026   5.712   5.304  16.173
    8DOPE  H17X 1027   5.614   5.257  16.101
    8DOPE  H17Y 1028   5.689   5.386  16.380
    8DOPE  C318 1029   5.773   5.357  15.783
    8DOPE  H18X 1030   5.877   5.322  15.735
    8DOPE  H18Y 1031   5.769   5.465  15.753
    8DOPE  H18Z 1032   5.710   5.329  15.525
    9DOPE     N 1033   1.319   4.699  19.989
    9DOPE   HN1 1034   1.422   4.693  19.971
    9DOPE   HN2 1035   1.276   4.720  19.710
    9DOPE   HN3 1036   1.301   4.781  20.175
    9DOPE   C12 1037   1.253   4.580  20.181
    9DOPE  H12A 1038   1.266   4.492  19.986
    9DOPE  H12B 1039   1.145   4.603  20.196
    9DOPE   C11 1040   1.301   4.558  20.616
    9DOPE  H11A 1041   1.398   4.504  20.598
    9DOPE  H11B 1042   1.229   4.490  20.769
    9DOPE     P 1043   1.222   4.737  21.156
    9DOPE   O13 1044   1.259   4.877  21.252
    9DOPE   O14 1045   1.210   4.643  21.495
    9DOPE   O11 1046   1.093   4.739  20.898
    9DOPE   O12 1047   1.322   4.680  20.826
    9DOPE    C1 1048   0.960   4.720  21.030
    9DOPE    HA 1049   0.924   4.813  21.180
    9DOPE    HB 1050   0.951   4.635  21.243
    9DOPE    C2 1051   0.873   4.694  20.658
    9DOPE    HS 1052   0.771   4.660  20.751
    9DOPE   O21 1053   0.935   4.601  20.391
    9DOPE   C21 1054   0.886   4.481  20.361
    9DOPE   O22 1055   0.804   4.430  20.583
    9DOPE   C22 1056   0.946   4.415  19.989
    9DOPE   H2R 1057   0.881   4.329  19.941
    9DOPE   H2S 1058   1.047   4.380  20.061
    9DOPE    C3 1059   0.854   4.824  20.412
    9DOPE    HX 1060   0.778   4.883  20.580
    9DOPE    HY 1061   0.809   4.797  20.118
    9DOPE   O31 1062   0.971   4.909  20.364
    9DOPE   C31 1063   1.051   4.881  20.064
    9DOPE   O32 1064   1.054   4.781  19.863
    9DOPE   C32 1065   1.130   5.004  19.947
    9DOPE   H2X 1066   1.056   5.085  19.905
    9DOPE   H2Y 1067   1.198   5.031  20.196
    9DOPE   C23 1068   0.940   4.501  19.599
    9DOPE   H3R 1069   1.011   4.584  19.635
    9DOPE   H3S 1070   0.838   4.543  19.560
    9DOPE   C24 1071   0.985   4.434  19.206
    9DOPE   H4R 1072   0.988   4.511  18.966
    9DOPE   H4S 1073   0.911   4.358  19.113
    9DOPE   C25 1074   1.123   4.371  19.242
    9DOPE   H5R 1075   1.125   4.307  19.515
    9DOPE   H5S 1076   1.202   4.449  19.278
    9DOPE   C26 1077   1.160   4.277  18.900
    9DOPE   H6R 1078   1.082   4.202  18.834
    9DOPE   H6S 1079   1.248   4.223  19.023
    9DOPE   C27 1080   1.212   4.344  18.516
    9DOPE   H7R 1081   1.293   4.282  18.381
    9DOPE   H7S 1082   1.260   4.437  18.618
    9DOPE   C28 1083   1.106   4.374  18.192
    9DOPE   H8R 1084   1.159   4.433  17.958
    9DOPE   H8S 1085   1.032   4.444  18.324
    9DOPE   C29 1086   1.035   4.256  18.009
    9DOPE   H9R 1087   0.957   4.212  18.204
    9DOPE  C210 1088   1.062   4.197  17.652
    9DOPE  H10R 1089   1.004   4.109  17.562
    9DOPE  C211 1090   1.171   4.241  17.367
    9DOPE  H11R 1091   1.253   4.168  17.403
    9DOPE  H11S 1092   1.211   4.340  17.451
    9DOPE  C212 1093   1.151   4.246  16.908
    9DOPE  H12R 1094   1.084   4.331  16.830
    9DOPE  H12S 1095   1.104   4.152  16.800
    9DOPE  C213 1096   1.287   4.264  16.695
    9DOPE  H13R 1097   1.341   4.166  16.701
    9DOPE  H13S 1098   1.349   4.336  16.866
    9DOPE  C214 1099   1.275   4.315  16.260
    9DOPE  H14R 1100   1.250   4.423  16.275
    9DOPE  H14S 1101   1.192   4.262  16.107
    9DOPE  C215 1102   1.403   4.299  16.008
    9DOPE  H15R 1103   1.424   4.191  15.948
    9DOPE  H15S 1104   1.489   4.341  16.179
    9DOPE  C216 1105   1.393   4.373  15.609
    9DOPE  H16R 1106   1.352   4.471  15.696
    9DOPE  H16S 1107   1.319   4.324  15.405
    9DOPE  C217 1108   1.526   4.400  15.393
    9DOPE  H17R 1109   1.602   4.423  15.618
    9DOPE  H17S 1110   1.516   4.491  15.204
    9DOPE  C218 1111   1.578   4.288  15.126
    9DOPE  H18R 1112   1.631   4.211  15.300
    9DOPE  H18S 1113   1.648   4.326  14.892
    9DOPE  H18T 1114   1.490   4.241  14.982
    9DOPE   C33 1115   1.210   4.981  19.554
    9DOPE   H3X 1116   1.281   4.897  19.581
    9DOPE   H3Y 1117   1.275   5.070  19.506
    9DOPE   C34 1118   1.128   4.956  19.176
    9DOPE   H4X 1119   1.060   4.870  19.215
    9DOPE   H4Y 1120   1.061   5.042  19.104
    9DOPE   C35 1121   1.216   4.927  18.810
    9DOPE   H5X 1122   1.308   4.988  18.810
    9DOPE   H5Y 1123   1.155   4.960  18.552
    9DOPE   C36 1124   1.247   4.777  18.783
    9DOPE   H6X 1125   1.163   4.719  18.912
    9DOPE   H6Y 1126   1.337   4.756  18.969
    9DOPE   C37 1127   1.275   4.721  18.360
    9DOPE   H7X 1128   1.382   4.733  18.303
    9DOPE   H7Y 1129   1.258   4.612  18.360
    9DOPE   C38 1130   1.203   4.781  17.997
    9DOPE   H8X 1131   1.276   4.774  17.745
    9DOPE   H8Y 1132   1.183   4.889  18.024
    9DOPE   C39 1133   1.077   4.710  17.895
    9DOPE   H9X 1134   1.022   4.664  18.147
    9DOPE  C310 1135   1.022   4.711  17.529
    9DOPE  H10X 1136   0.925   4.662  17.481
    9DOPE  C311 1137   1.079   4.784  17.172
    9DOPE  H11X 1138   1.037   4.887  17.145
    9DOPE  H11Y 1139   1.190   4.795  17.184
    9DOPE  C312 1140   1.045   4.707  16.791
    9DOPE  H12X 1141   0.935   4.710  16.731
    9DOPE  H12Y 1142   1.074   4.600  16.824
    9DOPE  C313 1143   1.122   4.763  16.431
    9DOPE  H13X 1144   1.231   4.761  16.488
    9DOPE  H13Y 1145   1.105   4.687  16.197
    9DOPE  C314 1146   1.080   4.902  16.275
    9DOPE  H14X 1147   1.149   4.977  16.401
    9DOPE  H14Y 1148   0.977   4.929  16.374
    9DOPE  C315 1149   1.084   4.902  15.813
    9DOPE  H15X 1150   0.987   4.864  15.699
    9DOPE  H15Y 1151   1.161   4.829  15.726
    9DOPE  C316 1152   1.117   5.035  15.609
    9DOPE  H16X 1153   1.221   5.062  15.681
    9DOPE  H16Y 1154   1.049   5.112  15.741
    9DOPE  C317 1155   1.097   5.037  15.150
    9DOPE  H17X 1156   1.022   4.959  15.063
    9DOPE  H17Y 1157   1.052   5.136  15.072
    9DOPE  C318 1158   1.223   5.023  14.889
    9DOPE  H18X 1159   1.306   5.084  15.012
    9DOPE  H18Y 1160   1.257   4.918  14.868
    9DOPE  H18Z 1161   1.203   5.056  14.577
   10DOPE     N 1162   2.061   6.196  21.015
   10DOPE   HN1 1163   1.998   6.209  21.258
   10DOPE   HN2 1164   2.141   6.134  21.099
   10DOPE   HN3 1165   2.085   6.287  20.880
   10DOPE   C12 1166   1.985   6.116  20.721
   10DOPE  H12A 1167   1.978   6.172  20.436
   10DOPE  H12B 1168   1.884   6.102  20.853
   10DOPE   C11 1169   2.055   5.983  20.670
   10DOPE  H11A 1170   2.165   5.992  20.655
   10DOPE  H11B 1171   2.023   5.950  20.364
   10DOPE     P 1172   1.970   5.750  20.892
   10DOPE   O13 1173   2.033   5.646  21.144
   10DOPE   O14 1174   1.973   5.740  20.460
   10DOPE   O11 1175   1.816   5.762  21.009
   10DOPE   O12 1176   2.019   5.896  21.000
   10DOPE    C1 1177   1.738   5.642  21.027
   10DOPE    HA 1178   1.664   5.650  21.276
   10DOPE    HB 1179   1.800   5.554  21.117
   10DOPE    C2 1180   1.660   5.599  20.634
   10DOPE    HS 1181   1.613   5.501  20.709
   10DOPE   O21 1182   1.752   5.584  20.301
   10DOPE   C21 1183   1.851   5.490  20.343
   10DOPE   O22 1184   1.849   5.401  20.595
   10DOPE   C22 1185   1.961   5.508  20.019
   10DOPE   H2R 1186   2.046   5.564  20.136
   10DOPE   H2S 1187   1.921   5.569  19.776
   10DOPE    C3 1188   1.534   5.697  20.508
   10DOPE    HX 1189   1.479   5.724  20.781
   10DOPE    HY 1190   1.481   5.617  20.358
   10DOPE   O31 1191   1.538   5.813  20.244
   10DOPE   C31 1192   1.441   5.860  19.980
   10DOPE   O32 1193   1.328   5.814  19.968
   10DOPE   C32 1194   1.484   5.981  19.656
   10DOPE   H2X 1195   1.389   6.032  19.590
   10DOPE   H2Y 1196   1.538   6.038  19.854
   10DOPE   C23 1197   2.021   5.379  19.854
   10DOPE   H3R 1198   2.084   5.328  20.076
   10DOPE   H3S 1199   2.086   5.404  19.593
   10DOPE   C24 1200   1.914   5.292  19.680
   10DOPE   H4R 1201   1.854   5.241  19.911
   10DOPE   H4S 1202   1.972   5.213  19.518
   10DOPE   C25 1203   1.828   5.369  19.374
   10DOPE   H5R 1204   1.788   5.458  19.512
   10DOPE   H5S 1205   1.736   5.322  19.266
   10DOPE   C26 1206   1.910   5.392  18.999
   10DOPE   H6R 1207   2.007   5.339  19.017
   10DOPE   H6S 1208   1.935   5.499  19.026
   10DOPE   C27 1209   1.839   5.354  18.603
   10DOPE   H7R 1210   1.813   5.246  18.609
   10DOPE   H7S 1211   1.908   5.367  18.345
   10DOPE   C28 1212   1.709   5.430  18.534
   10DOPE   H8R 1213   1.636   5.410  18.777
   10DOPE   H8S 1214   1.658   5.392  18.261
   10DOPE   C29 1215   1.748   5.575  18.513
   10DOPE   H9R 1216   1.804   5.611  18.774
   10DOPE  C210 1217   1.707   5.667  18.255
   10DOPE  H10R 1218   1.748   5.769  18.285
   10DOPE  C211 1219   1.609   5.644  17.925
   10DOPE  H11R 1220   1.587   5.740  17.775
   10DOPE  H11S 1221   1.514   5.609  18.060
   10DOPE  C212 1222   1.666   5.546  17.607
   10DOPE  H12R 1223   1.588   5.520  17.388
   10DOPE  H12S 1224   1.701   5.451  17.739
   10DOPE  C213 1225   1.785   5.609  17.394
   10DOPE  H13R 1226   1.857   5.642  17.625
   10DOPE  H13S 1227   1.749   5.699  17.232
   10DOPE  C214 1228   1.860   5.518  17.100
   10DOPE  H14R 1229   1.910   5.435  17.259
   10DOPE  H14S 1230   1.940   5.580  16.959
   10DOPE  C215 1231   1.768   5.463  16.770
   10DOPE  H15R 1232   1.690   5.539  16.704
   10DOPE  H15S 1233   1.717   5.372  16.884
   10DOPE  C216 1234   1.843   5.432  16.377
   10DOPE  H16R 1235   1.952   5.443  16.425
   10DOPE  H16S 1236   1.812   5.507  16.146
   10DOPE  C217 1237   1.812   5.295  16.200
   10DOPE  H17R 1238   1.803   5.220  16.446
   10DOPE  H17S 1239   1.897   5.264  16.008
   10DOPE  C218 1240   1.685   5.297  15.945
   10DOPE  H18R 1241   1.597   5.321  16.134
   10DOPE  H18S 1242   1.668   5.198  15.798
   10DOPE  H18T 1243   1.693   5.375  15.708
   10DOPE   C33 1244   1.585   5.999  19.254
   10DOPE   H3X 1245   1.513   6.022  19.011
   10DOPE   H3Y 1246   1.639   5.911  19.170
   10DOPE   C34 1247   1.710   6.098  19.185
   10DOPE   H4X 1248   1.712   6.114  18.852
   10DOPE   H4Y 1249   1.693   6.199  19.293
   10DOPE   C35 1250   1.862   6.066  19.269
   10DOPE   H5X 1251   1.884   6.034  19.578
   10DOPE   H5Y 1252   1.917   6.163  19.245
   10DOPE   C36 1253   1.943   5.968  18.999
   10DOPE   H6X 1254   1.954   6.010  18.693
   10DOPE   H6Y 1255   1.888   5.872  18.975
   10DOPE   C37 1256   2.084   5.937  19.176
   10DOPE   H7X 1257   2.142   6.031  19.197
   10DOPE   H7Y 1258   2.074   5.899  19.488
   10DOPE   C38 1259   2.170   5.835  18.942
   10DOPE   H8X 1260   2.266   5.828  19.107
   10DOPE   H8Y 1261   2.194   5.881  18.648
   10DOPE   C39 1262   2.123   5.692  18.900
   10DOPE   H9X 1263   2.120   5.636  19.182
   10DOPE  C310 1264   2.077   5.631  18.567
   10DOPE  H10X 1265   2.064   5.522  18.576
   10DOPE  C311 1266   2.058   5.685  18.156
   10DOPE  H11X 1267   2.023   5.601  17.964
   10DOPE  H11Y 1268   1.978   5.763  18.153
   10DOPE  C312 1269   2.186   5.739  17.970
   10DOPE  H12X 1270   2.270   5.671  18.048
   10DOPE  H12Y 1271   2.210   5.841  18.078
   10DOPE  C313 1272   2.173   5.745  17.517
   10DOPE  H13X 1273   2.270   5.779  17.385
   10DOPE  H13Y 1274   2.151   5.643  17.403
   10DOPE  C314 1275   2.065   5.839  17.361
   10DOPE  H14X 1276   2.079   5.942  17.478
   10DOPE  H14Y 1277   1.964   5.805  17.454
   10DOPE  C315 1278   2.078   5.835  16.905
   10DOPE  H15X 1279   2.098   5.729  16.815
   10DOPE  H15Y 1280   2.168   5.894  16.818
   10DOPE  C316 1281   1.956   5.883  16.677
   10DOPE  H16X 1282   1.934   5.988  16.758
   10DOPE  H16Y 1283   1.867   5.821  16.755
   10DOPE  C317 1284   1.985   5.870  16.233
   10DOPE  H17X 1285   1.914   5.936  16.074
   10DOPE  H17Y 1286   2.089   5.905  16.170
   10DOPE  C318 1287   1.968   5.729  16.068
   10DOPE  H18X 1288   2.032   5.656  16.230
   10DOPE  H18Y 1289   1.861   5.700  16.104
   10DOPE  H18Z 1290   1.992   5.724  15.744
   11DOPE     N 1291   1.468   3.010  21.480
   11DOPE   HN1 1292   1.491   3.011  21.783
   11DOPE   HN2 1293   1.502   3.094  21.330
   11DOPE   HN3 1294   1.364   3.010  21.426
   11DOPE   C12 1295   1.526   2.894  21.240
   11DOPE  H12A 1296   1.497   2.799  21.390
   11DOPE  H12B 1297   1.636   2.904  21.234
   11DOPE   C11 1298   1.466   2.899  20.820
   11DOPE  H11A 1299   1.472   2.799  20.673
   11DOPE  H11B 1300   1.523   2.967  20.619
   11DOPE     P 1301   1.247   2.974  20.469
   11DOPE   O13 1302   1.322   3.079  20.259
   11DOPE   O14 1303   1.108   2.993  20.589
   11DOPE   O11 1304   1.266   2.838  20.241
   11DOPE   O12 1305   1.331   2.945  20.856
   11DOPE    C1 1306   1.220   2.721  20.454
   11DOPE    HA 1307   1.132   2.740  20.661
   11DOPE    HB 1308   1.301   2.678  20.643
   11DOPE    C2 1309   1.174   2.613  20.157
   11DOPE    HS 1310   1.164   2.519  20.334
   11DOPE   O21 1311   1.262   2.591  19.821
   11DOPE   C21 1312   1.388   2.578  19.854
   11DOPE   O22 1313   1.453   2.573  20.169
   11DOPE   C22 1314   1.455   2.575  19.425
   11DOPE   H2R 1315   1.553   2.585  19.563
   11DOPE   H2S 1316   1.436   2.667  19.254
   11DOPE    C3 1317   1.034   2.645  19.980
   11DOPE    HX 1318   0.960   2.636  20.226
   11DOPE    HY 1319   1.015   2.563  19.761
   11DOPE   O31 1320   1.020   2.775  19.794
   11DOPE   C31 1321   1.088   2.798  19.461
   11DOPE   O32 1322   1.152   2.718  19.266
   11DOPE   C32 1323   1.059   2.936  19.296
   11DOPE   H2X 1324   0.950   2.941  19.239
   11DOPE   H2Y 1325   1.086   3.014  19.518
   11DOPE   C23 1326   1.491   2.446  19.164
   11DOPE   H3R 1327   1.431   2.362  19.275
   11DOPE   H3S 1328   1.596   2.420  19.236
   11DOPE   C24 1329   1.489   2.439  18.696
   11DOPE   H4R 1330   1.421   2.362  18.567
   11DOPE   H4S 1331   1.588   2.394  18.609
   11DOPE   C25 1332   1.479   2.570  18.465
   11DOPE   H5R 1333   1.544   2.565  18.195
   11DOPE   H5S 1334   1.517   2.650  18.660
   11DOPE   C26 1335   1.341   2.615  18.318
   11DOPE   H6R 1336   1.293   2.680  18.549
   11DOPE   H6S 1337   1.281   2.525  18.297
   11DOPE   C27 1338   1.358   2.685  17.910
   11DOPE   H7R 1339   1.395   2.611  17.688
   11DOPE   H7S 1340   1.442   2.756  17.964
   11DOPE   C28 1341   1.244   2.770  17.727
   11DOPE   H8R 1342   1.295   2.832  17.499
   11DOPE   H8S 1343   1.211   2.840  17.967
   11DOPE   C29 1344   1.119   2.710  17.541
   11DOPE   H9R 1345   1.040   2.687  17.760
   11DOPE  C210 1346   1.097   2.684  17.148
   11DOPE  H10R 1347   0.996   2.650  17.058
   11DOPE  C211 1348   1.193   2.709  16.809
   11DOPE  H11R 1349   1.245   2.806  16.863
   11DOPE  H11S 1350   1.139   2.719  16.518
   11DOPE  C212 1351   1.302   2.600  16.773
   11DOPE  H12R 1352   1.259   2.510  16.626
   11DOPE  H12S 1353   1.335   2.572  17.079
   11DOPE  C213 1354   1.430   2.646  16.551
   11DOPE  H13R 1355   1.468   2.741  16.686
   11DOPE  H13S 1356   1.402   2.672  16.236
   11DOPE  C214 1357   1.543   2.540  16.545
   11DOPE  H14R 1358   1.507   2.447  16.692
   11DOPE  H14S 1359   1.631   2.574  16.722
   11DOPE  C215 1360   1.580   2.513  16.107
   11DOPE  H15R 1361   1.678   2.465  16.047
   11DOPE  H15S 1362   1.584   2.612  15.960
   11DOPE  C216 1363   1.471   2.431  15.909
   11DOPE  H16R 1364   1.382   2.427  16.110
   11DOPE  H16S 1365   1.508   2.327  15.876
   11DOPE  C217 1366   1.432   2.481  15.495
   11DOPE  H17R 1367   1.409   2.590  15.495
   11DOPE  H17S 1368   1.340   2.429  15.393
   11DOPE  C218 1369   1.546   2.450  15.207
   11DOPE  H18R 1370   1.627   2.525  15.225
   11DOPE  H18S 1371   1.511   2.438  14.898
   11DOPE  H18T 1372   1.593   2.355  15.303
   11DOPE   C33 1373   1.138   2.952  18.897
   11DOPE   H3X 1374   1.116   2.868  18.687
   11DOPE   H3Y 1375   1.247   2.952  18.957
   11DOPE   C34 1376   1.094   3.081  18.696
   11DOPE   H4X 1377   0.986   3.066  18.633
   11DOPE   H4Y 1378   1.107   3.160  18.927
   11DOPE   C35 1379   1.161   3.126  18.306
   11DOPE   H5X 1380   1.079   3.164  18.111
   11DOPE   H5Y 1381   1.205   3.039  18.147
   11DOPE   C36 1382   1.262   3.241  18.348
   11DOPE   H6X 1383   1.313   3.239  18.642
   11DOPE   H6Y 1384   1.218   3.342  18.330
   11DOPE   C37 1385   1.361   3.241  18.000
   11DOPE   H7X 1386   1.460   3.275  18.114
   11DOPE   H7Y 1387   1.366   3.138  17.886
   11DOPE   C38 1388   1.324   3.328  17.640
   11DOPE   H8X 1389   1.398   3.313  17.394
   11DOPE   H8Y 1390   1.332   3.433  17.748
   11DOPE   C39 1391   1.183   3.300  17.511
   11DOPE   H9X 1392   1.121   3.390  17.520
   11DOPE  C310 1393   1.128   3.195  17.331
   11DOPE  H10X 1394   1.024   3.206  17.232
   11DOPE  C311 1395   1.192   3.066  17.187
   11DOPE  H11X 1396   1.297   3.051  17.283
   11DOPE  H11Y 1397   1.131   2.976  17.250
   11DOPE  C312 1398   1.181   3.108  16.752
   11DOPE  H12X 1399   1.238   3.204  16.707
   11DOPE  H12Y 1400   1.072   3.119  16.680
   11DOPE  C313 1401   1.229   3.030  16.392
   11DOPE  H13X 1402   1.338   3.008  16.389
   11DOPE  H13Y 1403   1.173   2.935  16.350
   11DOPE  C314 1404   1.192   3.132  16.071
   11DOPE  H14X 1405   1.276   3.205  16.041
   11DOPE  H14Y 1406   1.102   3.190  16.158
   11DOPE  C315 1407   1.153   3.075  15.678
   11DOPE  H15X 1408   1.227   2.998  15.627
   11DOPE  H15Y 1409   1.159   3.157  15.453
   11DOPE  C316 1410   1.019   3.004  15.645
   11DOPE  H16X 1411   0.949   3.078  15.534
   11DOPE  H16Y 1412   0.986   2.960  15.930
   11DOPE  C317 1413   1.023   2.901  15.315
   11DOPE  H17X 1414   1.075   2.811  15.426
   11DOPE  H17Y 1415   0.921   2.872  15.210
   11DOPE  C318 1416   1.100   2.965  14.970
   11DOPE  H18X 1417   1.058   3.063  14.907
   11DOPE  H18Y 1418   1.206   2.983  15.042
   11DOPE  H18Z 1419   1.097   2.906  14.697
   12DOPE     N 1420   3.111   6.502  20.772
   12DOPE   HN1 1421   3.019   6.490  20.634
   12DOPE   HN2 1422   3.190   6.485  20.568
   12DOPE   HN3 1423   3.120   6.432  21.003
   12DOPE   C12 1424   3.131   6.639  20.934
   12DOPE  H12A 1425   3.063   6.654  21.189
   12DOPE  H12B 1426   3.108   6.712  20.691
   12DOPE   C11 1427   3.278   6.656  21.054
   12DOPE  H11A 1428   3.307   6.584  21.291
   12DOPE  H11B 1429   3.286   6.759  21.186
   12DOPE     P 1430   3.482   6.736  20.646
   12DOPE   O13 1431   3.540   6.707  20.247
   12DOPE   O14 1432   3.572   6.726  21.000
   12DOPE   O11 1433   3.392   6.869  20.628
   12DOPE   O12 1434   3.363   6.633  20.718
   12DOPE    C1 1435   3.407   6.969  20.319
   12DOPE    HA 1436   3.484   6.939  20.094
   12DOPE    HB 1437   3.451   7.060  20.460
   12DOPE    C2 1438   3.277   7.018  20.076
   12DOPE    HS 1439   3.275   7.129  20.121
   12DOPE   O21 1440   3.149   6.961  20.196
   12DOPE   C21 1441   3.044   7.022  20.016
   12DOPE   O22 1442   3.050   7.129  19.845
   12DOPE   C22 1443   2.913   6.943  20.061
   12DOPE   H2R 1444   2.830   7.015  20.019
   12DOPE   H2S 1445   2.909   6.904  20.370
   12DOPE    C3 1446   3.298   6.990  19.617
   12DOPE    HX 1447   3.388   7.046  19.515
   12DOPE    HY 1448   3.212   7.027  19.434
   12DOPE   O31 1449   3.316   6.850  19.560
   12DOPE   C31 1450   3.340   6.804  19.200
   12DOPE   O32 1451   3.329   6.863  18.882
   12DOPE   C32 1452   3.393   6.661  19.266
   12DOPE   H2X 1453   3.464   6.666  19.524
   12DOPE   H2Y 1454   3.307   6.601  19.368
   12DOPE   C23 1455   2.888   6.827  19.764
   12DOPE   H3R 1456   2.873   6.867  19.455
   12DOPE   H3S 1457   2.793   6.777  19.854
   12DOPE   C24 1458   3.003   6.726  19.773
   12DOPE   H4R 1459   3.021   6.695  20.088
   12DOPE   H4S 1460   3.094   6.777  19.662
   12DOPE   C25 1461   2.979   6.602  19.515
   12DOPE   H5R 1462   2.898   6.542  19.662
   12DOPE   H5S 1463   3.071   6.539  19.509
   12DOPE   C26 1464   2.933   6.631  19.083
   12DOPE   H6R 1465   2.834   6.680  19.101
   12DOPE   H6S 1466   2.923   6.532  18.936
   12DOPE   C27 1467   3.013   6.723  18.801
   12DOPE   H7R 1468   3.115   6.683  18.750
   12DOPE   H7S 1469   3.025   6.824  18.939
   12DOPE   C28 1470   2.939   6.734  18.396
   12DOPE   H8R 1471   2.840   6.780  18.447
   12DOPE   H8S 1472   2.920   6.630  18.291
   12DOPE   C29 1473   3.015   6.812  18.084
   12DOPE   H9R 1474   3.052   6.910  18.192
   12DOPE  C210 1475   3.042   6.774  17.706
   12DOPE  H10R 1476   3.104   6.841  17.520
   12DOPE  C211 1477   3.003   6.647  17.493
   12DOPE  H11R 1478   2.938   6.581  17.679
   12DOPE  H11S 1479   3.095   6.589  17.427
   12DOPE  C212 1480   2.931   6.672  17.091
   12DOPE  H12R 1481   2.831   6.718  17.139
   12DOPE  H12S 1482   2.914   6.573  16.944
   12DOPE  C213 1483   3.011   6.761  16.806
   12DOPE  H13R 1484   3.118   6.729  16.800
   12DOPE  H13S 1485   3.009   6.866  16.917
   12DOPE  C214 1486   2.954   6.757  16.383
   12DOPE  H14R 1487   2.845   6.777  16.395
   12DOPE  H14S 1488   2.968   6.656  16.251
   12DOPE  C215 1489   3.021   6.862  16.122
   12DOPE  H15R 1490   3.130   6.841  16.107
   12DOPE  H15S 1491   3.008   6.962  16.263
   12DOPE  C216 1492   2.962   6.863  15.705
   12DOPE  H16R 1493   2.856   6.897  15.720
   12DOPE  H16S 1494   2.960   6.760  15.579
   12DOPE  C217 1495   3.037   6.953  15.414
   12DOPE  H17R 1496   3.036   7.059  15.492
   12DOPE  H17S 1497   2.971   6.953  15.153
   12DOPE  C218 1498   3.181   6.913  15.318
   12DOPE  H18R 1499   3.231   6.985  15.117
   12DOPE  H18S 1500   3.180   6.816  15.162
   12DOPE  H18T 1501   3.243   6.905  15.594
   12DOPE   C33 1502   3.464   6.596  18.903
   12DOPE   H3X 1503   3.573   6.594  18.963
   12DOPE   H3Y 1504   3.447   6.655  18.624
   12DOPE   C34 1505   3.415   6.453  18.834
   12DOPE   H4X 1506   3.480   6.402  18.615
   12DOPE   H4Y 1507   3.431   6.399  19.119
   12DOPE   C35 1508   3.267   6.449  18.702
   12DOPE   H5X 1509   3.208   6.518  18.888
   12DOPE   H5Y 1510   3.221   6.351  18.765
   12DOPE   C36 1511   3.245   6.479  18.255
   12DOPE   H6X 1512   3.276   6.584  18.192
   12DOPE   H6Y 1513   3.137   6.471  18.183
   12DOPE   C37 1514   3.325   6.382  17.994
   12DOPE   H7X 1515   3.433   6.404  18.030
   12DOPE   H7Y 1516   3.306   6.280  18.111
   12DOPE   C38 1517   3.294   6.389  17.547
   12DOPE   H8X 1518   3.318   6.491  17.436
   12DOPE   H8Y 1519   3.186   6.374  17.487
   12DOPE   C39 1520   3.377   6.280  17.358
   12DOPE   H9X 1521   3.344   6.178  17.433
   12DOPE  C310 1522   3.484   6.296  17.118
   12DOPE  H10X 1523   3.537   6.207  17.007
   12DOPE  C311 1524   3.541   6.428  16.989
   12DOPE  H11X 1525   3.524   6.507  17.220
   12DOPE  H11Y 1526   3.651   6.419  16.956
   12DOPE  C312 1527   3.484   6.477  16.587
   12DOPE  H12X 1528   3.500   6.400  16.353
   12DOPE  H12Y 1529   3.542   6.568  16.497
   12DOPE  C313 1530   3.336   6.517  16.590
   12DOPE  H13X 1531   3.272   6.425  16.599
   12DOPE  H13Y 1532   3.313   6.575  16.866
   12DOPE  C314 1533   3.297   6.601  16.224
   12DOPE  H14X 1534   3.352   6.698  16.236
   12DOPE  H14Y 1535   3.189   6.625  16.239
   12DOPE  C315 1536   3.326   6.530  15.825
   12DOPE  H15X 1537   3.274   6.432  15.828
   12DOPE  H15Y 1538   3.435   6.513  15.795
   12DOPE  C316 1539   3.277   6.611  15.465
   12DOPE  H16X 1540   3.338   6.704  15.447
   12DOPE  H16Y 1541   3.171   6.639  15.516
   12DOPE  C317 1542   3.289   6.535  15.066
   12DOPE  H17X 1543   3.395   6.504  15.024
   12DOPE  H17Y 1544   3.227   6.443  15.087
   12DOPE  C318 1545   3.244   6.616  14.697
   12DOPE  H18X 1546   3.260   6.558  14.418
   12DOPE  H18Y 1547   3.136   6.642  14.718
   12DOPE  H18Z 1548   3.302   6.711  14.673
   13DOPE     N 1549   2.500   1.109  21.588
   13DOPE   HN1 1550   2.469   1.207  21.642
   13DOPE   HN2 1551   2.476   1.048  21.828
   13DOPE   HN3 1552   2.604   1.115  21.567
   13DOPE   C12 1553   2.442   1.053  21.210
   13DOPE  H12A 1554   2.335   1.031  21.255
   13DOPE  H12B 1555   2.496   0.958  21.138
   13DOPE   C11 1556   2.463   1.150  20.865
   13DOPE  H11A 1557   2.403   1.242  20.913
   13DOPE  H11B 1558   2.422   1.099  20.589
   13DOPE     P 1559   2.648   1.224  20.391
   13DOPE   O13 1560   2.773   1.302  20.391
   13DOPE   O14 1561   2.531   1.284  20.196
   13DOPE   O11 1562   2.678   1.078  20.226
   13DOPE   O12 1563   2.602   1.182  20.832
   13DOPE    C1 1564   2.792   1.014  20.412
   13DOPE    HA 1565   2.770   0.991  20.730
   13DOPE    HB 1566   2.881   1.081  20.409
   13DOPE    C2 1567   2.837   0.881  20.205
   13DOPE    HS 1568   2.930   0.850  20.358
   13DOPE   O21 1569   2.860   0.893  19.779
   13DOPE   C21 1570   2.967   0.963  19.686
   13DOPE   O22 1571   3.049   1.006  19.923
   13DOPE   C22 1572   2.975   0.988  19.242
   13DOPE   H2R 1573   2.889   0.941  19.083
   13DOPE   H2S 1574   3.070   0.946  19.125
   13DOPE    C3 1575   2.735   0.766  20.268
   13DOPE    HX 1576   2.745   0.727  20.577
   13DOPE    HY 1577   2.767   0.684  20.070
   13DOPE   O31 1578   2.598   0.802  20.196
   13DOPE   C31 1579   2.568   0.827  19.815
   13DOPE   O32 1580   2.630   0.791  19.521
   13DOPE   C32 1581   2.437   0.904  19.800
   13DOPE   H2X 1582   2.357   0.831  19.872
   13DOPE   H2Y 1583   2.440   0.981  20.037
   13DOPE   C23 1584   2.973   1.141  19.206
   13DOPE   H3R 1585   2.978   1.170  18.885
   13DOPE   H3S 1586   3.063   1.183  19.359
   13DOPE   C24 1587   2.848   1.199  19.407
   13DOPE   H4R 1588   2.837   1.168  19.722
   13DOPE   H4S 1589   2.760   1.162  19.239
   13DOPE   C25 1590   2.841   1.351  19.410
   13DOPE   H5R 1591   2.930   1.393  19.560
   13DOPE   H5S 1592   2.752   1.382  19.587
   13DOPE   C26 1593   2.828   1.399  18.981
   13DOPE   H6R 1594   2.827   1.310  18.780
   13DOPE   H6S 1595   2.920   1.453  18.900
   13DOPE   C27 1596   2.698   1.476  18.894
   13DOPE   H7R 1597   2.713   1.585  18.942
   13DOPE   H7S 1598   2.619   1.445  19.110
   13DOPE   C28 1599   2.655   1.441  18.465
   13DOPE   H8R 1600   2.646   1.331  18.450
   13DOPE   H8S 1601   2.738   1.466  18.261
   13DOPE   C29 1602   2.527   1.498  18.306
   13DOPE   H9R 1603   2.459   1.547  18.522
   13DOPE  C210 1604   2.494   1.486  17.916
   13DOPE  H10R 1605   2.399   1.527  17.811
   13DOPE  C211 1606   2.577   1.416  17.601
   13DOPE  H11R 1607   2.545   1.310  17.580
   13DOPE  H11S 1608   2.686   1.415  17.667
   13DOPE  C212 1609   2.555   1.483  17.196
   13DOPE  H12R 1610   2.596   1.586  17.193
   13DOPE  H12S 1611   2.445   1.491  17.142
   13DOPE  C213 1612   2.613   1.406  16.836
   13DOPE  H13R 1613   2.590   1.297  16.866
   13DOPE  H13S 1614   2.723   1.417  16.815
   13DOPE  C214 1615   2.545   1.463  16.467
   13DOPE  H14R 1616   2.558   1.573  16.461
   13DOPE  H14S 1617   2.437   1.440  16.503
   13DOPE  C215 1618   2.584   1.407  16.059
   13DOPE  H15R 1619   2.570   1.296  16.053
   13DOPE  H15S 1620   2.690   1.429  15.987
   13DOPE  C216 1621   2.491   1.473  15.753
   13DOPE  H16R 1622   2.514   1.581  15.741
   13DOPE  H16S 1623   2.390   1.468  15.885
   13DOPE  C217 1624   2.501   1.410  15.336
   13DOPE  H17R 1625   2.467   1.304  15.333
   13DOPE  H17S 1626   2.609   1.408  15.306
   13DOPE  C218 1627   2.448   1.488  14.973
   13DOPE  H18R 1628   2.341   1.470  14.916
   13DOPE  H18S 1629   2.502   1.460  14.694
   13DOPE  H18T 1630   2.460   1.597  15.012
   13DOPE   C33 1631   2.413   0.971  19.389
   13DOPE   H3X 1632   2.312   1.017  19.383
   13DOPE   H3Y 1633   2.421   0.898  19.140
   13DOPE   C34 1634   2.515   1.082  19.326
   13DOPE   H4X 1635   2.519   1.147  19.599
   13DOPE   H4Y 1636   2.615   1.035  19.299
   13DOPE   C35 1637   2.488   1.173  18.969
   13DOPE   H5X 1638   2.560   1.256  18.990
   13DOPE   H5Y 1639   2.387   1.218  18.996
   13DOPE   C36 1640   2.503   1.109  18.555
   13DOPE   H6X 1641   2.484   1.186  18.324
   13DOPE   H6Y 1642   2.426   1.030  18.516
   13DOPE   C37 1643   2.644   1.052  18.489
   13DOPE   H7X 1644   2.719   1.129  18.579
   13DOPE   H7Y 1645   2.660   0.964  18.690
   13DOPE   C38 1646   2.670   1.014  18.051
   13DOPE   H8X 1647   2.775   0.981  18.012
   13DOPE   H8Y 1648   2.655   1.104  17.859
   13DOPE   C39 1649   2.576   0.902  17.943
   13DOPE   H9X 1650   2.582   0.815  18.144
   13DOPE  C310 1651   2.488   0.900  17.640
   13DOPE  H10X 1652   2.428   0.809  17.598
   13DOPE  C311 1653   2.462   1.008  17.334
   13DOPE  H11X 1654   2.353   1.017  17.277
   13DOPE  H11Y 1655   2.495   1.108  17.439
   13DOPE  C312 1656   2.535   0.970  16.944
   13DOPE  H12X 1657   2.532   0.859  16.908
   13DOPE  H12Y 1658   2.642   0.999  16.965
   13DOPE  C313 1659   2.472   1.028  16.560
   13DOPE  H13X 1660   2.361   1.030  16.599
   13DOPE  H13Y 1661   2.505   1.133  16.515
   13DOPE  C314 1662   2.504   0.943  16.185
   13DOPE  H14X 1663   2.425   0.959  15.954
   13DOPE  H14Y 1664   2.502   0.835  16.269
   13DOPE  C315 1665   2.640   0.981  16.002
   13DOPE  H15X 1666   2.695   1.041  16.233
   13DOPE  H15Y 1667   2.625   1.046  15.738
   13DOPE  C316 1668   2.734   0.865  15.888
   13DOPE  H16X 1669   2.697   0.816  15.612
   13DOPE  H16Y 1670   2.734   0.788  16.131
   13DOPE  C317 1671   2.877   0.921  15.840
   13DOPE  H17X 1672   2.867   1.032  15.810
   13DOPE  H17Y 1673   2.935   0.901  16.119
   13DOPE  C318 1674   2.960   0.874  15.480
   13DOPE  H18X 1675   3.052   0.823  15.579
   13DOPE  H18Y 1676   2.904   0.804  15.285
   13DOPE  H18Z 1677   2.994   0.960  15.297
   14DOPE     N 1678   6.784   4.560  21.630
   14DOPE   HN1 1679   6.808   4.546  21.933
   14DOPE   HN2 1680   6.784   4.662  21.561
   14DOPE   HN3 1681   6.689   4.522  21.564
   14DOPE   C12 1682   6.885   4.493  21.360
   14DOPE  H12A 1683   6.861   4.385  21.348
   14DOPE  H12B 1684   6.985   4.506  21.492
   14DOPE   C11 1685   6.884   4.550  20.934
   14DOPE  H11A 1686   6.951   4.487  20.742
   14DOPE  H11B 1687   6.929   4.652  20.946
   14DOPE     P 1688   6.738   4.623  20.346
   14DOPE   O13 1689   6.594   4.625  20.250
   14DOPE   O14 1690   6.833   4.564  20.061
   14DOPE   O11 1691   6.787   4.769  20.469
   14DOPE   O12 1692   6.751   4.551  20.778
   14DOPE    C1 1693   6.722   4.850  20.766
   14DOPE    HA 1694   6.794   4.881  21.003
   14DOPE    HB 1695   6.640   4.794  20.919
   14DOPE    C2 1696   6.654   4.977  20.583
   14DOPE    HS 1697   6.581   5.010  20.814
   14DOPE   O21 1698   6.592   4.947  20.214
   14DOPE   C21 1699   6.467   4.912  20.232
   14DOPE   O22 1700   6.408   4.881  20.538
   14DOPE   C22 1701   6.419   4.937  19.806
   14DOPE   H2R 1702   6.467   5.030  19.695
   14DOPE   H2S 1703   6.310   4.953  19.797
   14DOPE    C3 1704   6.740   5.102  20.478
   14DOPE    HX 1705   6.790   5.135  20.757
   14DOPE    HY 1706   6.669   5.185  20.406
   14DOPE   O31 1707   6.833   5.077  20.151
   14DOPE   C31 1708   6.793   5.114  19.785
   14DOPE   O32 1709   6.700   5.187  19.707
   14DOPE   C32 1710   6.888   5.061  19.455
   14DOPE   H2X 1711   6.918   5.150  19.278
   14DOPE   H2Y 1712   6.977   5.014  19.587
   14DOPE   C23 1713   6.454   4.821  19.530
   14DOPE   H3R 1714   6.376   4.743  19.566
   14DOPE   H3S 1715   6.551   4.773  19.611
   14DOPE   C24 1716   6.460   4.866  19.092
   14DOPE   H4R 1717   6.561   4.899  19.008
   14DOPE   H4S 1718   6.389   4.949  19.029
   14DOPE   C25 1719   6.429   4.745  18.846
   14DOPE   H5R 1720   6.322   4.722  18.891
   14DOPE   H5S 1721   6.484   4.658  18.981
   14DOPE   C26 1722   6.464   4.750  18.405
   14DOPE   H6R 1723   6.398   4.670  18.303
   14DOPE   H6S 1724   6.567   4.720  18.339
   14DOPE   C27 1725   6.431   4.872  18.144
   14DOPE   H7R 1726   6.514   4.945  18.177
   14DOPE   H7S 1727   6.338   4.921  18.252
   14DOPE   C28 1728   6.421   4.823  17.700
   14DOPE   H8R 1729   6.518   4.783  17.610
   14DOPE   H8S 1730   6.397   4.911  17.514
   14DOPE   C29 1731   6.319   4.714  17.652
   14DOPE   H9R 1732   6.241   4.734  17.868
   14DOPE  C210 1733   6.308   4.595  17.472
   14DOPE  H10R 1734   6.212   4.542  17.511
   14DOPE  C211 1735   6.400   4.514  17.223
   14DOPE  H11R 1736   6.446   4.441  17.427
   14DOPE  H11S 1737   6.486   4.571  17.103
   14DOPE  C212 1738   6.317   4.436  16.905
   14DOPE  H12R 1739   6.213   4.420  17.010
   14DOPE  H12S 1740   6.353   4.331  16.884
   14DOPE  C213 1741   6.312   4.502  16.485
   14DOPE  H13R 1742   6.210   4.542  16.467
   14DOPE  H13S 1743   6.315   4.424  16.251
   14DOPE  C214 1744   6.420   4.612  16.413
   14DOPE  H14R 1745   6.520   4.565  16.449
   14DOPE  H14S 1746   6.407   4.688  16.656
   14DOPE  C215 1747   6.425   4.698  16.026
   14DOPE  H15R 1748   6.523   4.752  16.026
   14DOPE  H15S 1749   6.350   4.780  16.047
   14DOPE  C216 1750   6.411   4.624  15.624
   14DOPE  H16R 1751   6.328   4.551  15.642
   14DOPE  H16S 1752   6.506   4.568  15.576
   14DOPE  C217 1753   6.386   4.718  15.264
   14DOPE  H17R 1754   6.418   4.667  14.985
   14DOPE  H17S 1755   6.449   4.810  15.291
   14DOPE  C218 1756   6.239   4.754  15.207
   14DOPE  H18R 1757   6.207   4.829  15.426
   14DOPE  H18S 1758   6.177   4.666  15.264
   14DOPE  H18T 1759   6.218   4.793  14.901
   14DOPE   C33 1760   6.818   4.958  19.179
   14DOPE   H3X 1761   6.853   4.960  18.861
   14DOPE   H3Y 1762   6.713   4.990  19.173
   14DOPE   C34 1763   6.835   4.816  19.353
   14DOPE   H4X 1764   6.940   4.800  19.449
   14DOPE   H4Y 1765   6.773   4.818  19.632
   14DOPE   C35 1766   6.789   4.693  19.110
   14DOPE   H5X 1767   6.686   4.707  19.005
   14DOPE   H5Y 1768   6.788   4.606  19.323
   14DOPE   C36 1769   6.878   4.652  18.750
   14DOPE   H6X 1770   6.969   4.604  18.873
   14DOPE   H6Y 1771   6.902   4.743  18.576
   14DOPE   C37 1772   6.810   4.554  18.465
   14DOPE   H7X 1773   6.778   4.468  18.654
   14DOPE   H7Y 1774   6.721   4.603  18.339
   14DOPE   C38 1775   6.891   4.501  18.102
   14DOPE   H8X 1776   6.824   4.443  17.901
   14DOPE   H8Y 1777   6.967   4.429  18.213
   14DOPE   C39 1778   6.960   4.606  17.856
   14DOPE   H9X 1779   7.068   4.603  17.913
   14DOPE  C310 1780   6.911   4.688  17.571
   14DOPE  H10X 1781   6.979   4.764  17.442
   14DOPE  C311 1782   6.770   4.696  17.421
   14DOPE  H11X 1783   6.717   4.599  17.463
   14DOPE  H11Y 1784   6.716   4.772  17.604
   14DOPE  C312 1785   6.756   4.740  16.974
   14DOPE  H12X 1786   6.778   4.849  16.953
   14DOPE  H12Y 1787   6.649   4.726  16.884
   14DOPE  C313 1788   6.845   4.666  16.671
   14DOPE  H13X 1789   6.951   4.674  16.770
   14DOPE  H13Y 1790   6.818   4.558  16.662
   14DOPE  C314 1791   6.835   4.726  16.248
   14DOPE  H14X 1792   6.838   4.837  16.275
   14DOPE  H14Y 1793   6.737   4.698  16.110
   14DOPE  C315 1794   6.950   4.686  15.963
   14DOPE  H15X 1795   7.047   4.687  16.122
   14DOPE  H15Y 1796   6.955   4.763  15.723
   14DOPE  C316 1797   6.929   4.549  15.765
   14DOPE  H16X 1798   6.824   4.541  15.660
   14DOPE  H16Y 1799   6.947   4.470  15.993
   14DOPE  C317 1800   7.020   4.528  15.399
   14DOPE  H17X 1801   7.123   4.563  15.471
   14DOPE  H17Y 1802   7.026   4.418  15.342
   14DOPE  C318 1803   6.968   4.599  15.024
   14DOPE  H18X 1804   6.966   4.709  15.063
   14DOPE  H18Y 1805   7.033   4.579  14.760
   14DOPE  H18Z 1806   6.865   4.564  14.952
   15DOPE     N 1807   1.192   1.793  20.514
   15DOPE   HN1 1808   1.093   1.767  20.565
   15DOPE   HN2 1809   1.192   1.896  20.445
   15DOPE   HN3 1810   1.230   1.738  20.277
   15DOPE   C12 1811   1.278   1.786  20.883
   15DOPE  H12A 1812   1.385   1.791  20.790
   15DOPE  H12B 1813   1.261   1.694  21.051
   15DOPE   C11 1814   1.243   1.908  21.135
   15DOPE  H11A 1815   1.300   1.914  21.420
   15DOPE  H11B 1816   1.133   1.913  21.195
   15DOPE     P 1817   1.211   2.151  20.868
   15DOPE   O13 1818   1.290   2.242  21.126
   15DOPE   O14 1819   1.066   2.134  20.922
   15DOPE   O11 1820   1.243   2.161  20.415
   15DOPE   O12 1821   1.281   2.012  20.889
   15DOPE    C1 1822   1.379   2.136  20.301
   15DOPE    HA 1823   1.391   2.029  20.226
   15DOPE    HB 1824   1.451   2.164  20.544
   15DOPE    C2 1825   1.422   2.217  19.932
   15DOPE    HS 1826   1.423   2.326  20.016
   15DOPE   O21 1827   1.334   2.188  19.593
   15DOPE   C21 1828   1.222   2.263  19.632
   15DOPE   O22 1829   1.201   2.341  19.902
   15DOPE   C22 1830   1.130   2.262  19.269
   15DOPE   H2R 1831   1.025   2.276  19.377
   15DOPE   H2S 1832   1.138   2.169  19.092
   15DOPE    C3 1833   1.571   2.182  19.842
   15DOPE    HX 1834   1.626   2.184  20.133
   15DOPE    HY 1835   1.616   2.263  19.662
   15DOPE   O31 1836   1.580   2.049  19.671
   15DOPE   C31 1837   1.594   2.053  19.272
   15DOPE   O32 1838   1.639   2.146  19.080
   15DOPE   C32 1839   1.545   1.926  19.083
   15DOPE   H2X 1840   1.637   1.875  18.972
   15DOPE   H2Y 1841   1.495   1.860  19.302
   15DOPE   C23 1842   1.172   2.388  19.032
   15DOPE   H3R 1843   1.267   2.358  18.897
   15DOPE   H3S 1844   1.191   2.475  19.233
   15DOPE   C24 1845   1.081   2.433  18.693
   15DOPE   H4R 1846   1.102   2.539  18.615
   15DOPE   H4S 1847   0.976   2.429  18.798
   15DOPE   C25 1848   1.106   2.339  18.336
   15DOPE   H5R 1849   1.022   2.269  18.381
   15DOPE   H5S 1850   1.197   2.277  18.378
   15DOPE   C26 1851   1.116   2.399  17.910
   15DOPE   H6R 1852   1.217   2.436  17.829
   15DOPE   H6S 1853   1.047   2.485  17.886
   15DOPE   C27 1854   1.083   2.296  17.589
   15DOPE   H7R 1855   1.166   2.222  17.571
   15DOPE   H7S 1856   1.075   2.345  17.289
   15DOPE   C28 1857   0.954   2.223  17.697
   15DOPE   H8R 1858   0.974   2.149  17.940
   15DOPE   H8S 1859   0.928   2.160  17.439
   15DOPE   C29 1860   0.846   2.320  17.826
   15DOPE   H9R 1861   0.867   2.385  18.084
   15DOPE  C210 1862   0.726   2.326  17.664
   15DOPE  H10R 1863   0.649   2.391  17.796
   15DOPE  C211 1864   0.683   2.236  17.334
   15DOPE  H11R 1865   0.577   2.210  17.385
   15DOPE  H11S 1866   0.740   2.144  17.349
   15DOPE  C212 1867   0.705   2.269  16.899
   15DOPE  H12R 1868   0.646   2.358  16.848
   15DOPE  H12S 1869   0.661   2.186  16.719
   15DOPE  C213 1870   0.850   2.280  16.770
   15DOPE  H13R 1871   0.903   2.187  16.863
   15DOPE  H13S 1872   0.900   2.367  16.911
   15DOPE  C214 1873   0.863   2.284  16.320
   15DOPE  H14R 1874   0.872   2.390  16.224
   15DOPE  H14S 1875   0.776   2.237  16.182
   15DOPE  C215 1876   0.976   2.201  16.158
   15DOPE  H15R 1877   0.947   2.159  15.861
   15DOPE  H15S 1878   0.996   2.114  16.350
   15DOPE  C216 1879   1.098   2.288  16.122
   15DOPE  H16R 1880   1.145   2.298  16.422
   15DOPE  H16S 1881   1.070   2.391  16.023
   15DOPE  C217 1882   1.187   2.226  15.810
   15DOPE  H17R 1883   1.202   2.119  15.885
   15DOPE  H17S 1884   1.284   2.276  15.828
   15DOPE  C218 1885   1.130   2.242  15.387
   15DOPE  H18R 1886   1.073   2.150  15.303
   15DOPE  H18S 1887   1.209   2.260  15.165
   15DOPE  H18T 1888   1.061   2.329  15.372
   15DOPE   C33 1889   1.453   1.958  18.726
   15DOPE   H3X 1890   1.484   2.053  18.570
   15DOPE   H3Y 1891   1.347   1.969  18.816
   15DOPE   C34 1892   1.477   1.847  18.423
   15DOPE   H4X 1893   1.582   1.871  18.333
   15DOPE   H4Y 1894   1.472   1.746  18.564
   15DOPE   C35 1895   1.394   1.851  18.045
   15DOPE   H5X 1896   1.456   1.825  17.778
   15DOPE   H5Y 1897   1.364   1.957  18.009
   15DOPE   C36 1898   1.277   1.753  18.066
   15DOPE   H6X 1899   1.222   1.772  18.351
   15DOPE   H6Y 1900   1.315   1.648  18.075
   15DOPE   C37 1901   1.178   1.768  17.721
   15DOPE   H7X 1902   1.220   1.721  17.442
   15DOPE   H7Y 1903   1.084   1.713  17.796
   15DOPE   C38 1904   1.149   1.915  17.640
   15DOPE   H8X 1905   1.242   1.966  17.547
   15DOPE   H8Y 1906   1.116   1.964  17.925
   15DOPE   C39 1907   1.047   1.933  17.319
   15DOPE   H9X 1908   0.943   1.929  17.424
   15DOPE  C310 1909   1.072   1.946  16.929
   15DOPE  H10X 1910   0.987   1.960  16.722
   15DOPE  C311 1911   1.209   1.946  16.746
   15DOPE  H11X 1912   1.264   1.859  16.869
   15DOPE  H11Y 1913   1.202   1.930  16.416
   15DOPE  C312 1914   1.299   2.069  16.818
   15DOPE  H12X 1915   1.280   2.114  17.118
   15DOPE  H12Y 1916   1.276   2.147  16.593
   15DOPE  C313 1917   1.448   2.031  16.797
   15DOPE  H13X 1918   1.509   2.123  16.833
   15DOPE  H13Y 1919   1.470   1.964  17.055
   15DOPE  C314 1920   1.489   1.961  16.401
   15DOPE  H14X 1921   1.424   1.872  16.350
   15DOPE  H14Y 1922   1.593   1.922  16.443
   15DOPE  C315 1923   1.489   2.060  16.047
   15DOPE  H15X 1924   1.593   2.098  16.023
   15DOPE  H15Y 1925   1.426   2.146  16.134
   15DOPE  C316 1926   1.445   2.016  15.624
   15DOPE  H16X 1927   1.336   1.992  15.615
   15DOPE  H16Y 1928   1.501   1.926  15.534
   15DOPE  C317 1929   1.472   2.128  15.315
   15DOPE  H17X 1930   1.418   2.218  15.417
   15DOPE  H17Y 1931   1.580   2.152  15.333
   15DOPE  C318 1932   1.430   2.108  14.877
   15DOPE  H18X 1933   1.490   2.172  14.673
   15DOPE  H18Y 1934   1.445   2.003  14.793
   15DOPE  H18Z 1935   1.323   2.132  14.832
   16DOPE     N 1936   0.478   3.709  21.438
   16DOPE   HN1 1937   0.497   3.753  21.159
   16DOPE   HN2 1938   0.394   3.754  21.576
   16DOPE   HN3 1939   0.563   3.715  21.612
   16DOPE   C12 1940   0.458   3.564  21.348
   16DOPE  H12A 1941   0.367   3.551  21.165
   16DOPE  H12B 1942   0.448   3.508  21.633
   16DOPE   C11 1943   0.581   3.519  21.111
   16DOPE  H11A 1944   0.576   3.407  21.093
   16DOPE  H11B 1945   0.676   3.541  21.273
   16DOPE     P 1946   0.592   3.494  20.349
   16DOPE   O13 1947   0.701   3.395  20.400
   16DOPE   O14 1948   0.580   3.573  19.980
   16DOPE   O11 1949   0.452   3.424  20.433
   16DOPE   O12 1950   0.587   3.587  20.733
   16DOPE    C1 1951   0.418   3.293  20.298
   16DOPE    HA 1952   0.336   3.253  20.487
   16DOPE    HB 1953   0.504   3.222  20.322
   16DOPE    C2 1954   0.372   3.294  19.857
   16DOPE    HS 1955   0.313   3.201  19.815
   16DOPE   O21 1956   0.493   3.285  19.644
   16DOPE   C21 1957   0.480   3.272  19.263
   16DOPE   O22 1958   0.398   3.204  19.083
   16DOPE   C22 1959   0.591   3.344  19.074
   16DOPE   H2R 1960   0.636   3.418  19.284
   16DOPE   H2S 1961   0.553   3.397  18.807
   16DOPE    C3 1962   0.291   3.420  19.716
   16DOPE    HX 1963   0.356   3.510  19.746
   16DOPE    HY 1964   0.213   3.433  19.938
   16DOPE   O31 1965   0.233   3.415  19.314
   16DOPE   C31 1966   0.161   3.307  19.221
   16DOPE   O32 1967   0.132   3.216  19.446
   16DOPE   C32 1968   0.124   3.294  18.765
   16DOPE   H2X 1969   0.158   3.192  18.687
   16DOPE   H2Y 1970   0.013   3.295  18.759
   16DOPE   C23 1971   0.684   3.229  18.972
   16DOPE   H3R 1972   0.730   3.179  19.233
   16DOPE   H3S 1973   0.760   3.283  18.813
   16DOPE   C24 1974   0.625   3.135  18.657
   16DOPE   H4R 1975   0.546   3.197  18.513
   16DOPE   H4S 1976   0.573   3.048  18.795
   16DOPE   C25 1977   0.726   3.093  18.339
   16DOPE   H5R 1978   0.747   2.985  18.366
   16DOPE   H5S 1979   0.823   3.146  18.378
   16DOPE   C26 1980   0.681   3.129  17.913
   16DOPE   H6R 1981   0.739   3.066  17.700
   16DOPE   H6S 1982   0.709   3.233  17.850
   16DOPE   C27 1983   0.531   3.110  17.835
   16DOPE   H7R 1984   0.470   3.196  17.940
   16DOPE   H7S 1985   0.497   3.020  18.009
   16DOPE   C28 1986   0.505   3.078  17.394
   16DOPE   H8R 1987   0.399   3.045  17.367
   16DOPE   H8S 1988   0.571   2.991  17.352
   16DOPE   C29 1989   0.532   3.181  17.070
   16DOPE   H9R 1990   0.454   3.258  17.052
   16DOPE  C210 1991   0.636   3.194  16.812
   16DOPE  H10R 1992   0.626   3.270  16.581
   16DOPE  C211 1993   0.763   3.118  16.743
   16DOPE  H11R 1994   0.789   3.049  16.992
   16DOPE  H11S 1995   0.847   3.190  16.716
   16DOPE  C212 1996   0.756   3.046  16.332
   16DOPE  H12R 1997   0.682   2.965  16.311
   16DOPE  H12S 1998   0.855   2.997  16.308
   16DOPE  C213 1999   0.732   3.137  15.972
   16DOPE  H13R 2000   0.776   3.091  15.702
   16DOPE  H13S 2001   0.780   3.235  16.026
   16DOPE  C214 2002   0.588   3.152  15.822
   16DOPE  H14R 2003   0.587   3.247  15.648
   16DOPE  H14S 2004   0.514   3.161  16.068
   16DOPE  C215 2005   0.548   3.041  15.522
   16DOPE  H15R 2006   0.535   2.946  15.693
   16DOPE  H15S 2007   0.630   3.023  15.303
   16DOPE  C216 2008   0.420   3.077  15.297
   16DOPE  H16R 2009   0.348   3.115  15.528
   16DOPE  H16S 2010   0.372   2.987  15.171
   16DOPE  C217 2011   0.436   3.185  14.970
   16DOPE  H17R 2012   0.482   3.275  15.108
   16DOPE  H17S 2013   0.334   3.215  14.865
   16DOPE  C218 2014   0.517   3.147  14.595
   16DOPE  H18R 2015   0.539   3.239  14.418
   16DOPE  H18S 2016   0.460   3.080  14.394
   16DOPE  H18T 2017   0.613   3.100  14.676
   16DOPE   C33 2018   0.173   3.391  18.426
   16DOPE   H3X 2019   0.120   3.360  18.147
   16DOPE   H3Y 2020   0.280   3.375  18.360
   16DOPE   C34 2021   0.127   3.534  18.522
   16DOPE   H4X 2022   0.018   3.526  18.471
   16DOPE   H4Y 2023   0.147   3.554  18.843
   16DOPE   C35 2024   0.172   3.661  18.297
   16DOPE   H5X 2025   0.103   3.741  18.405
   16DOPE   H5Y 2026   0.152   3.648  17.973
   16DOPE   C36 2027   0.317   3.710  18.369
   16DOPE   H6X 2028   0.332   3.742  18.687
   16DOPE   H6Y 2029   0.333   3.799  18.174
   16DOPE   C37 2030   0.412   3.595  18.264
   16DOPE   H7X 2031   0.398   3.522  18.513
   16DOPE   H7Y 2032   0.367   3.556  17.982
   16DOPE   C38 2033   0.565   3.609  18.219
   16DOPE   H8X 2034   0.615   3.610  18.519
   16DOPE   H8Y 2035   0.598   3.698  18.051
   16DOPE   C39 2036   0.593   3.479  18.000
   16DOPE   H9X 2037   0.601   3.390  18.192
   16DOPE  C310 2038   0.612   3.465  17.604
   16DOPE  H10X 2039   0.616   3.364  17.481
   16DOPE  C311 2040   0.611   3.574  17.292
   16DOPE  H11X 2041   0.619   3.673  17.439
   16DOPE  H11Y 2042   0.706   3.560  17.127
   16DOPE  C312 2043   0.502   3.584  16.968
   16DOPE  H12X 2044   0.506   3.690  16.872
   16DOPE  H12Y 2045   0.401   3.567  17.088
   16DOPE  C313 2046   0.535   3.502  16.593
   16DOPE  H13X 2047   0.638   3.462  16.626
   16DOPE  H13Y 2048   0.464   3.418  16.554
   16DOPE  C314 2049   0.542   3.588  16.215
   16DOPE  H14X 2050   0.612   3.672  16.281
   16DOPE  H14Y 2051   0.441   3.631  16.149
   16DOPE  C315 2052   0.594   3.519  15.840
   16DOPE  H15X 2053   0.520   3.443  15.741
   16DOPE  H15Y 2054   0.691   3.468  15.900
   16DOPE  C316 2055   0.612   3.626  15.519
   16DOPE  H16X 2056   0.700   3.689  15.594
   16DOPE  H16Y 2057   0.521   3.690  15.525
   16DOPE  C317 2058   0.626   3.578  15.087
   16DOPE  H17X 2059   0.721   3.523  15.063
   16DOPE  H17Y 2060   0.542   3.510  15.009
   16DOPE  C318 2061   0.629   3.698  14.802
   16DOPE  H18X 2062   0.617   3.665  14.487
   16DOPE  H18Y 2063   0.546   3.767  14.874
   16DOPE  H18Z 2064   0.723   3.755  14.835
   17DOPE     N 2065   2.756   7.207  21.450
   17DOPE   HN1 2066   2.664   7.190  21.309
   17DOPE   HN2 2067   2.785   7.116  21.579
   17DOPE   HN3 2068   2.744   7.281  21.666
   17DOPE   C12 2069   2.853   7.244  21.123
   17DOPE  H12A 2070   2.953   7.204  21.201
   17DOPE  H12B 2071   2.859   7.354  21.096
   17DOPE   C11 2072   2.802   7.185  20.730
   17DOPE  H11A 2073   2.878   7.204  20.487
   17DOPE  H11B 2074   2.709   7.237  20.637
   17DOPE     P 2075   2.645   6.971  20.808
   17DOPE   O13 2076   2.664   6.835  20.967
   17DOPE   O14 2077   2.588   6.983  20.406
   17DOPE   O11 2078   2.553   7.050  21.129
   17DOPE   O12 2079   2.784   7.046  20.796
   17DOPE    C1 2080   2.425   6.986  21.207
   17DOPE    HA 2081   2.380   7.033  21.480
   17DOPE    HB 2082   2.434   6.878  21.285
   17DOPE    C2 2083   2.317   7.008  20.865
   17DOPE    HS 2084   2.217   6.984  20.994
   17DOPE   O21 2085   2.332   6.927  20.505
   17DOPE   C21 2086   2.337   6.794  20.553
   17DOPE   O22 2087   2.305   6.739  20.865
   17DOPE   C22 2088   2.386   6.721  20.166
   17DOPE   H2R 2089   2.330   6.627  20.139
   17DOPE   H2S 2090   2.491   6.692  20.226
   17DOPE    C3 2091   2.313   7.158  20.739
   17DOPE    HX 2092   2.296   7.218  21.009
   17DOPE    HY 2093   2.225   7.168  20.532
   17DOPE   O31 2094   2.435   7.200  20.553
   17DOPE   C31 2095   2.421   7.289  20.265
   17DOPE   O32 2096   2.327   7.366  20.241
   17DOPE   C32 2097   2.538   7.278  19.971
   17DOPE   H2X 2098   2.579   7.380  19.932
   17DOPE   H2Y 2099   2.616   7.213  20.100
   17DOPE   C23 2100   2.372   6.807  19.776
   17DOPE   H3R 2101   2.462   6.873  19.776
   17DOPE   H3S 2102   2.284   6.872  19.830
   17DOPE   C24 2103   2.349   6.755  19.335
   17DOPE   H4R 2104   2.434   6.783  19.137
   17DOPE   H4S 2105   2.270   6.823  19.245
   17DOPE   C25 2106   2.289   6.617  19.212
   17DOPE   H5R 2107   2.187   6.605  19.329
   17DOPE   H5S 2108   2.351   6.541  19.368
   17DOPE   C26 2109   2.294   6.579  18.750
   17DOPE   H6R 2110   2.267   6.471  18.723
   17DOPE   H6S 2111   2.400   6.589  18.663
   17DOPE   C27 2112   2.222   6.652  18.396
   17DOPE   H7R 2113   2.228   6.762  18.432
   17DOPE   H7S 2114   2.116   6.619  18.387
   17DOPE   C28 2115   2.289   6.626  17.979
   17DOPE   H8R 2116   2.311   6.518  17.973
   17DOPE   H8S 2117   2.387   6.678  17.991
   17DOPE   C29 2118   2.218   6.664  17.592
   17DOPE   H9R 2119   2.110   6.681  17.619
   17DOPE  C210 2120   2.275   6.672  17.223
   17DOPE  H10R 2121   2.215   6.702  16.962
   17DOPE  C211 2122   2.420   6.643  17.130
   17DOPE  H11R 2123   2.458   6.572  17.358
   17DOPE  H11S 2124   2.482   6.735  17.160
   17DOPE  C212 2125   2.452   6.576  16.725
   17DOPE  H12R 2126   2.387   6.487  16.677
   17DOPE  H12S 2127   2.557   6.539  16.743
   17DOPE  C213 2128   2.452   6.664  16.353
   17DOPE  H13R 2129   2.498   6.763  16.428
   17DOPE  H13S 2130   2.348   6.681  16.248
   17DOPE  C214 2131   2.538   6.599  16.026
   17DOPE  H14R 2132   2.500   6.497  15.954
   17DOPE  H14S 2133   2.642   6.588  16.143
   17DOPE  C215 2134   2.544   6.683  15.645
   17DOPE  H15R 2135   2.627   6.647  15.447
   17DOPE  H15S 2136   2.567   6.787  15.732
   17DOPE  C216 2137   2.414   6.680  15.408
   17DOPE  H16R 2138   2.326   6.686  15.606
   17DOPE  H16S 2139   2.409   6.583  15.249
   17DOPE  C217 2140   2.411   6.792  15.099
   17DOPE  H17R 2141   2.518   6.812  15.033
   17DOPE  H17S 2142   2.373   6.886  15.234
   17DOPE  C218 2143   2.341   6.758  14.703
   17DOPE  H18R 2144   2.347   6.650  14.634
   17DOPE  H18S 2145   2.388   6.814  14.451
   17DOPE  H18T 2146   2.234   6.785  14.703
   17DOPE   C33 2147   2.494   7.211  19.578
   17DOPE   H3X 2148   2.429   7.282  19.407
   17DOPE   H3Y 2149   2.437   7.119  19.647
   17DOPE   C34 2150   2.608   7.168  19.299
   17DOPE   H4X 2151   2.687   7.245  19.299
   17DOPE   H4Y 2152   2.653   7.074  19.413
   17DOPE   C35 2153   2.554   7.151  18.870
   17DOPE   H5X 2154   2.468   7.222  18.834
   17DOPE   H5Y 2155   2.514   7.049  18.834
   17DOPE   C36 2156   2.652   7.185  18.534
   17DOPE   H6X 2157   2.727   7.104  18.504
   17DOPE   H6Y 2158   2.710   7.276  18.606
   17DOPE   C37 2159   2.575   7.209  18.141
   17DOPE   H7X 2160   2.492   7.281  18.207
   17DOPE   H7Y 2161   2.641   7.258  17.916
   17DOPE   C38 2162   2.513   7.082  17.961
   17DOPE   H8X 2163   2.451   7.111  17.700
   17DOPE   H8Y 2164   2.444   7.035  18.183
   17DOPE   C39 2165   2.623   6.986  17.850
   17DOPE   H9X 2166   2.678   6.942  18.105
   17DOPE  C310 2167   2.661   6.951  17.478
   17DOPE  H10X 2168   2.749   6.885  17.448
   17DOPE  C311 2169   2.602   6.999  17.091
   17DOPE  H11X 2170   2.532   6.923  16.971
   17DOPE  H11Y 2171   2.545   7.094  17.121
   17DOPE  C312 2172   2.712   7.020  16.776
   17DOPE  H12X 2173   2.787   6.938  16.794
   17DOPE  H12Y 2174   2.765   7.115  16.842
   17DOPE  C313 2175   2.657   7.022  16.347
   17DOPE  H13X 2176   2.728   6.966  16.158
   17DOPE  H13Y 2177   2.559   6.969  16.326
   17DOPE  C314 2178   2.643   7.164  16.179
   17DOPE  H14X 2179   2.710   7.233  16.350
   17DOPE  H14Y 2180   2.539   7.200  16.215
   17DOPE  C315 2181   2.691   7.168  15.744
   17DOPE  H15X 2182   2.800   7.149  15.741
   17DOPE  H15Y 2183   2.676   7.269  15.609
   17DOPE  C316 2184   2.627   7.068  15.459
   17DOPE  H16X 2185   2.516   7.066  15.492
   17DOPE  H16Y 2186   2.665   6.966  15.519
   17DOPE  C317 2187   2.668   7.112  15.036
   17DOPE  H17X 2188   2.622   7.212  14.979
   17DOPE  H17Y 2189   2.778   7.125  15.033
   17DOPE  C318 2190   2.628   7.017  14.706
   17DOPE  H18X 2191   2.683   6.921  14.742
   17DOPE  H18Y 2192   2.519   6.996  14.721
   17DOPE  H18Z 2193   2.649   7.060  14.406
   18DOPE     N 2194   7.531   3.109  21.318
   18DOPE   HN1 2195   7.481   3.193  21.426
   18DOPE   HN2 2196   7.566   3.050  21.552
   18DOPE   HN3 2197   7.614   3.144  21.153
   18DOPE   C12 2198   7.432   3.034  21.066
   18DOPE  H12A 2199   7.366   2.979  21.276
   18DOPE  H12B 2200   7.487   2.963  20.871
   18DOPE   C11 2201   7.347   3.130  20.814
   18DOPE  H11A 2202   7.244   3.088  20.769
   18DOPE  H11B 2203   7.395   3.133  20.511
   18DOPE     P 2204   7.329   3.381  20.697
   18DOPE   O13 2205   7.318   3.503  20.946
   18DOPE   O14 2206   7.224   3.347  20.400
   18DOPE   O11 2207   7.472   3.364  20.526
   18DOPE   O12 2208   7.337   3.258  21.000
   18DOPE    C1 2209   7.590   3.397  20.733
   18DOPE    HA 2210   7.602   3.340  21.015
   18DOPE    HB 2211   7.594   3.505  20.811
   18DOPE    C2 2212   7.700   3.362  20.430
   18DOPE    HS 2213   7.800   3.387  20.562
   18DOPE   O21 2214   7.678   3.438  20.070
   18DOPE   C21 2215   7.700   3.568  20.112
   18DOPE   O22 2216   7.753   3.621  20.400
   18DOPE   C22 2217   7.669   3.643  19.731
   18DOPE   H2R 2218   7.758   3.634  19.530
   18DOPE   H2S 2219   7.659   3.750  19.818
   18DOPE    C3 2220   7.702   3.207  20.334
   18DOPE    HX 2221   7.686   3.155  20.622
   18DOPE    HY 2222   7.802   3.181  20.214
   18DOPE   O31 2223   7.599   3.167  20.061
   18DOPE   C31 2224   7.594   3.041  19.947
   18DOPE   O32 2225   7.657   2.949  20.100
   18DOPE   C32 2226   7.478   3.026  19.650
   18DOPE   H2X 2227   7.395   2.979  19.821
   18DOPE   H2Y 2228   7.444   3.128  19.557
   18DOPE   C23 2229   7.540   3.593  19.533
   18DOPE   H3R 2230   7.473   3.680  19.515
   18DOPE   H3S 2231   7.484   3.518  19.710
   18DOPE   C24 2232   7.564   3.544  19.107
   18DOPE   H4R 2233   7.646   3.470  19.107
   18DOPE   H4S 2234   7.599   3.634  18.942
   18DOPE   C25 2235   7.439   3.488  18.900
   18DOPE   H5R 2236   7.352   3.529  19.065
   18DOPE   H5S 2237   7.433   3.377  18.930
   18DOPE   C26 2238   7.433   3.536  18.459
   18DOPE   H6R 2239   7.475   3.459  18.252
   18DOPE   H6S 2240   7.498   3.626  18.432
   18DOPE   C27 2241   7.294   3.585  18.333
   18DOPE   H7R 2242   7.269   3.672  18.528
   18DOPE   H7S 2243   7.222   3.504  18.393
   18DOPE   C28 2244   7.279   3.629  17.889
   18DOPE   H8R 2245   7.176   3.668  17.853
   18DOPE   H8S 2246   7.282   3.536  17.706
   18DOPE   C29 2247   7.375   3.732  17.730
   18DOPE   H9R 2248   7.355   3.836  17.823
   18DOPE  C210 2249   7.474   3.708  17.469
   18DOPE  H10R 2250   7.539   3.791  17.373
   18DOPE  C211 2251   7.507   3.574  17.289
   18DOPE  H11R 2252   7.504   3.495  17.526
   18DOPE  H11S 2253   7.612   3.575  17.178
   18DOPE  C212 2254   7.414   3.529  16.944
   18DOPE  H12R 2255   7.318   3.492  17.070
   18DOPE  H12S 2256   7.461   3.443  16.791
   18DOPE  C213 2257   7.383   3.636  16.626
   18DOPE  H13R 2258   7.325   3.717  16.770
   18DOPE  H13S 2259   7.318   3.591  16.392
   18DOPE  C214 2260   7.509   3.690  16.413
   18DOPE  H14R 2261   7.590   3.706  16.635
   18DOPE  H14S 2262   7.488   3.788  16.269
   18DOPE  C215 2263   7.554   3.592  16.086
   18DOPE  H15R 2264   7.475   3.586  15.852
   18DOPE  H15S 2265   7.563   3.492  16.227
   18DOPE  C216 2266   7.688   3.626  15.888
   18DOPE  H16R 2267   7.761   3.655  16.125
   18DOPE  H16S 2268   7.676   3.712  15.681
   18DOPE  C217 2269   7.743   3.506  15.657
   18DOPE  H17R 2270   7.742   3.416  15.858
   18DOPE  H17S 2271   7.850   3.527  15.582
   18DOPE  C218 2272   7.667   3.474  15.273
   18DOPE  H18R 2273   7.643   3.566  15.102
   18DOPE  H18S 2274   7.572   3.421  15.333
   18DOPE  H18T 2275   7.727   3.408  15.078
   18DOPE   C33 2276   7.510   2.941  19.275
   18DOPE   H3X 2277   7.414   2.897  19.167
   18DOPE   H3Y 2278   7.578   2.856  19.350
   18DOPE   C34 2279   7.568   3.025  18.930
   18DOPE   H4X 2280   7.498   3.109  18.864
   18DOPE   H4Y 2281   7.664   3.070  19.032
   18DOPE   C35 2282   7.594   2.947  18.540
   18DOPE   H5X 2283   7.503   2.892  18.453
   18DOPE   H5Y 2284   7.674   2.871  18.597
   18DOPE   C36 2285   7.637   3.039  18.192
   18DOPE   H6X 2286   7.735   3.083  18.273
   18DOPE   H6Y 2287   7.564   3.122  18.159
   18DOPE   C37 2288   7.654   2.969  17.784
   18DOPE   H7X 2289   7.705   2.871  17.838
   18DOPE   H7Y 2290   7.555   2.948  17.649
   18DOPE   C38 2291   7.743   3.049  17.487
   18DOPE   H8X 2292   7.770   2.980  17.238
   18DOPE   H8Y 2293   7.839   3.073  17.640
   18DOPE   C39 2294   7.681   3.175  17.322
   18DOPE   H9X 2295   7.698   3.266  17.502
   18DOPE  C310 2296   7.609   3.186  16.983
   18DOPE  H10X 2297   7.574   3.285  16.890
   18DOPE  C311 2298   7.574   3.075  16.695
   18DOPE  H11X 2299   7.630   3.087  16.410
   18DOPE  H11Y 2300   7.603   2.976  16.824
   18DOPE  C312 2301   7.423   3.064  16.599
   18DOPE  H12X 2302   7.366   3.066  16.884
   18DOPE  H12Y 2303   7.403   2.966  16.452
   18DOPE  C313 2304   7.368   3.174  16.323
   18DOPE  H13X 2305   7.257   3.170  16.341
   18DOPE  H13Y 2306   7.400   3.274  16.437
   18DOPE  C314 2307   7.406   3.163  15.879
   18DOPE  H14X 2308   7.355   3.075  15.738
   18DOPE  H14Y 2309   7.516   3.146  15.855
   18DOPE  C315 2310   7.373   3.291  15.648
   18DOPE  H15X 2311   7.396   3.282  15.324
   18DOPE  H15Y 2312   7.437   3.371  15.777
   18DOPE  C316 2313   7.229   3.341  15.693
   18DOPE  H16X 2314   7.214   3.351  16.020
   18DOPE  H16Y 2315   7.155   3.268  15.576
   18DOPE  C317 2316   7.207   3.482  15.528
   18DOPE  H17X 2317   7.304   3.535  15.531
   18DOPE  H17Y 2318   7.173   3.475  15.210
   18DOPE  C318 2319   7.107   3.564  15.780
   18DOPE  H18X 2320   7.008   3.515  15.786
   18DOPE  H18Y 2321   7.141   3.574  16.095
   18DOPE  H18Z 2322   7.096   3.666  15.651
   19DOPE     N 2323   7.522   4.289  21.450
   19DOPE   HN1 2324   7.441   4.223  21.453
   19DOPE   HN2 2325   7.598   4.258  21.648
   19DOPE   HN3 2326   7.489   4.384  21.531
   19DOPE   C12 2327   7.570   4.285  21.021
   19DOPE  H12A 2328   7.637   4.197  20.997
   19DOPE  H12B 2329   7.626   4.378  20.961
   19DOPE   C11 2330   7.453   4.270  20.718
   19DOPE  H11A 2331   7.496   4.269  20.406
   19DOPE  H11B 2332   7.389   4.361  20.733
   19DOPE     P 2333   7.408   4.015  20.589
   19DOPE   O13 2334   7.391   3.911  20.904
   19DOPE   O14 2335   7.544   4.030  20.418
   19DOPE   O11 2336   7.297   4.015  20.244
   19DOPE   O12 2337   7.373   4.154  20.796
   19DOPE    C1 2338   7.158   4.021  20.361
   19DOPE    HA 2339   7.137   4.107  20.559
   19DOPE    HB 2340   7.134   3.928  20.529
   19DOPE    C2 2341   7.051   4.020  20.013
   19DOPE    HS 2342   6.967   3.953  20.106
   19DOPE   O21 2343   7.101   3.972  19.638
   19DOPE   C21 2344   7.171   3.862  19.635
   19DOPE   O22 2345   7.200   3.787  19.905
   19DOPE   C22 2346   7.213   3.844  19.203
   19DOPE   H2R 2347   7.158   3.911  18.996
   19DOPE   H2S 2348   7.191   3.739  19.122
   19DOPE    C3 2349   6.985   4.159  19.932
   19DOPE    HX 2350   6.939   4.194  20.217
   19DOPE    HY 2351   6.903   4.150  19.707
   19DOPE   O31 2352   7.082   4.256  19.812
   19DOPE   C31 2353   7.107   4.265  19.425
   19DOPE   O32 2354   7.036   4.226  19.149
   19DOPE   C32 2355   7.246   4.326  19.383
   19DOPE   H2X 2356   7.240   4.428  19.509
   19DOPE   H2Y 2357   7.315   4.267  19.575
   19DOPE   C23 2358   7.364   3.867  19.185
   19DOPE   H3R 2359   7.406   3.782  19.008
   19DOPE   H3S 2360   7.410   3.867  19.491
   19DOPE   C24 2361   7.414   3.994  18.999
   19DOPE   H4R 2362   7.401   4.080  19.206
   19DOPE   H4S 2363   7.360   4.016  18.714
   19DOPE   C25 2364   7.562   3.967  18.924
   19DOPE   H5R 2365   7.570   3.891  18.681
   19DOPE   H5S 2366   7.608   3.923  19.197
   19DOPE   C26 2367   7.640   4.090  18.798
   19DOPE   H6R 2368   7.744   4.055  18.744
   19DOPE   H6S 2369   7.645   4.165  19.047
   19DOPE   C27 2370   7.577   4.153  18.423
   19DOPE   H7R 2371   7.481   4.202  18.507
   19DOPE   H7S 2372   7.551   4.070  18.213
   19DOPE   C28 2373   7.666   4.255  18.213
   19DOPE   H8R 2374   7.679   4.342  18.417
   19DOPE   H8S 2375   7.615   4.293  17.940
   19DOPE   C29 2376   7.798   4.189  18.120
   19DOPE   H9R 2377   7.881   4.212  18.327
   19DOPE  C210 2378   7.819   4.104  17.814
   19DOPE  H10R 2379   7.919   4.060  17.772
   19DOPE  C211 2380   7.714   4.060  17.514
   19DOPE  H11R 2381   7.611   4.093  17.595
   19DOPE  H11S 2382   7.713   3.949  17.493
   19DOPE  C212 2383   7.749   4.121  17.106
   19DOPE  H12R 2384   7.677   4.082  16.881
   19DOPE  H12S 2385   7.849   4.085  17.013
   19DOPE  C213 2386   7.750   4.276  17.103
   19DOPE  H13R 2387   7.844   4.311  16.968
   19DOPE  H13S 2388   7.750   4.317  17.412
   19DOPE  C214 2389   7.635   4.344  16.875
   19DOPE  H14R 2390   7.657   4.452  16.845
   19DOPE  H14S 2391   7.547   4.332  17.073
   19DOPE  C215 2392   7.601   4.284  16.464
   19DOPE  H15R 2393   7.545   4.190  16.515
   19DOPE  H15S 2394   7.695   4.259  16.299
   19DOPE  C216 2395   7.514   4.377  16.206
   19DOPE  H16R 2396   7.576   4.455  16.065
   19DOPE  H16S 2397   7.439   4.427  16.401
   19DOPE  C217 2398   7.433   4.300  15.891
   19DOPE  H17R 2399   7.380   4.221  16.065
   19DOPE  H17S 2400   7.502   4.250  15.678
   19DOPE  C218 2401   7.326   4.380  15.669
   19DOPE  H18R 2402   7.261   4.433  15.888
   19DOPE  H18S 2403   7.261   4.311  15.492
   19DOPE  H18T 2404   7.371   4.453  15.459
   19DOPE   C33 2405   7.300   4.327  18.951
   19DOPE   H3X 2406   7.292   4.227  18.807
   19DOPE   H3Y 2407   7.408   4.356  18.966
   19DOPE   C34 2408   7.228   4.430  18.693
   19DOPE   H4X 2409   7.129   4.392  18.597
   19DOPE   H4Y 2410   7.208   4.512  18.906
   19DOPE   C35 2411   7.310   4.480  18.333
   19DOPE   H5X 2412   7.417   4.489  18.411
   19DOPE   H5Y 2413   7.275   4.582  18.249
   19DOPE   C36 2414   7.291   4.394  17.961
   19DOPE   H6X 2415   7.181   4.386  17.910
   19DOPE   H6Y 2416   7.331   4.292  18.009
   19DOPE   C37 2417   7.356   4.461  17.601
   19DOPE   H7X 2418   7.331   4.568  17.613
   19DOPE   H7Y 2419   7.466   4.453  17.634
   19DOPE   C38 2420   7.313   4.410  17.187
   19DOPE   H8X 2421   7.327   4.300  17.184
   19DOPE   H8Y 2422   7.385   4.454  16.971
   19DOPE   C39 2423   7.176   4.452  17.049
   19DOPE   H9X 2424   7.174   4.539  16.851
   19DOPE  C310 2425   7.062   4.385  17.118
   19DOPE  H10X 2426   6.967   4.427  17.010
   19DOPE  C311 2427   7.054   4.256  17.346
   19DOPE  H11X 2428   7.151   4.227  17.484
   19DOPE  H11Y 2429   6.981   4.265  17.595
   19DOPE  C312 2430   7.014   4.140  17.067
   19DOPE  H12X 2431   6.908   4.155  16.983
   19DOPE  H12Y 2432   7.019   4.045  17.235
   19DOPE  C313 2433   7.094   4.128  16.674
   19DOPE  H13X 2434   7.043   4.052  16.485
   19DOPE  H13Y 2435   7.093   4.223  16.503
   19DOPE  C314 2436   7.239   4.083  16.749
   19DOPE  H14X 2437   7.249   4.054  17.070
   19DOPE  H14Y 2438   7.310   4.166  16.692
   19DOPE  C315 2439   7.278   3.961  16.497
   19DOPE  H15X 2440   7.199   3.883  16.539
   19DOPE  H15Y 2441   7.374   3.921  16.617
   19DOPE  C316 2442   7.296   3.988  16.050
   19DOPE  H16X 2443   7.402   4.018  16.002
   19DOPE  H16Y 2444   7.231   4.071  15.948
   19DOPE  C317 2445   7.268   3.867  15.783
   19DOPE  H17X 2446   7.280   3.773  15.960
   19DOPE  H17Y 2447   7.163   3.871  15.678
   19DOPE  C318 2448   7.365   3.864  15.426
   19DOPE  H18X 2449   7.341   3.948  15.219
   19DOPE  H18Y 2450   7.469   3.878  15.534
   19DOPE  H18Z 2451   7.359   3.768  15.261
   20DOPE     N 2452   6.290   6.957  20.991
   20DOPE   HN1 2453   6.376   7.010  21.075
   20DOPE   HN2 2454   6.307   6.885  20.769
   20DOPE   HN3 2455   6.220   7.019  20.859
   20DOPE   C12 2456   6.224   6.882  21.324
   20DOPE  H12A 2457   6.137   6.939  21.432
   20DOPE  H12B 2458   6.297   6.867  21.573
   20DOPE   C11 2459   6.178   6.750  21.141
   20DOPE  H11A 2460   6.115   6.697  21.369
   20DOPE  H11B 2461   6.268   6.687  21.072
   20DOPE     P 2462   6.045   6.648  20.556
   20DOPE   O13 2463   5.987   6.558  20.868
   20DOPE   O14 2464   6.156   6.598  20.307
   20DOPE   O11 2465   5.930   6.716  20.304
   20DOPE   O12 2466   6.104   6.777  20.784
   20DOPE    C1 2467   5.810   6.756  20.505
   20DOPE    HA 2468   5.829   6.811  20.793
   20DOPE    HB 2469   5.751   6.665  20.583
   20DOPE    C2 2470   5.722   6.849  20.235
   20DOPE    HS 2471   5.620   6.849  20.367
   20DOPE   O21 2472   5.720   6.799  19.827
   20DOPE   C21 2473   5.658   6.682  19.806
   20DOPE   O22 2474   5.575   6.642  20.049
   20DOPE   C22 2475   5.702   6.607  19.434
   20DOPE   H2R 2476   5.688   6.499  19.500
   20DOPE   H2S 2477   5.810   6.624  19.380
   20DOPE    C3 2478   5.770   6.998  20.235
   20DOPE    HX 2479   5.764   7.032  20.550
   20DOPE    HY 2480   5.697   7.055  20.049
   20DOPE   O31 2481   5.905   7.014  20.094
   20DOPE   C31 2482   5.943   7.124  19.917
   20DOPE   O32 2483   5.880   7.228  19.884
   20DOPE   C32 2484   6.089   7.107  19.794
   20DOPE   H2X 2485   6.128   7.208  19.719
   20DOPE   H2Y 2486   6.145   7.068  20.055
   20DOPE   C23 2487   5.616   6.645  19.065
   20DOPE   H3R 2488   5.510   6.619  19.134
   20DOPE   H3S 2489   5.650   6.581  18.813
   20DOPE   C24 2490   5.618   6.791  18.930
   20DOPE   H4R 2491   5.584   6.858  19.173
   20DOPE   H4S 2492   5.547   6.804  18.675
   20DOPE   C25 2493   5.751   6.844  18.774
   20DOPE   H5R 2494   5.800   6.766  18.585
   20DOPE   H5S 2495   5.818   6.866  19.032
   20DOPE   C26 2496   5.727   6.971  18.525
   20DOPE   H6R 2497   5.635   7.020  18.645
   20DOPE   H6S 2498   5.706   6.942  18.210
   20DOPE   C27 2499   5.840   7.074  18.552
   20DOPE   H7R 2500   5.935   7.018  18.597
   20DOPE   H7S 2501   5.825   7.139  18.816
   20DOPE   C28 2502   5.859   7.157  18.168
   20DOPE   H8R 2503   5.867   7.084  17.916
   20DOPE   H8S 2504   5.959   7.203  18.198
   20DOPE   C29 2505   5.760   7.268  18.087
   20DOPE   H9R 2506   5.737   7.332  18.348
   20DOPE  C210 2507   5.695   7.290  17.739
   20DOPE  H10R 2508   5.621   7.372  17.721
   20DOPE  C211 2509   5.710   7.208  17.364
   20DOPE  H11R 2510   5.623   7.140  17.361
   20DOPE  H11S 2511   5.801   7.145  17.376
   20DOPE  C212 2512   5.717   7.281  16.953
   20DOPE  H12R 2513   5.821   7.319  16.917
   20DOPE  H12S 2514   5.648   7.368  16.944
   20DOPE  C213 2515   5.686   7.188  16.596
   20DOPE  H13R 2516   5.759   7.207  16.353
   20DOPE  H13S 2517   5.587   7.214  16.464
   20DOPE  C214 2518   5.683   7.038  16.701
   20DOPE  H14R 2519   5.588   7.014  16.854
   20DOPE  H14S 2520   5.767   7.010  16.905
   20DOPE  C215 2521   5.694   6.949  16.338
   20DOPE  H15R 2522   5.624   6.989  16.107
   20DOPE  H15S 2523   5.658   6.847  16.404
   20DOPE  C216 2524   5.839   6.943  16.194
   20DOPE  H16R 2525   5.896   6.862  16.344
   20DOPE  H16S 2526   5.892   7.038  16.269
   20DOPE  C217 2527   5.845   6.927  15.744
   20DOPE  H17R 2528   5.795   6.831  15.654
   20DOPE  H17S 2529   5.951   6.920  15.654
   20DOPE  C218 2530   5.778   7.044  15.531
   20DOPE  H18R 2531   5.786   7.137  15.714
   20DOPE  H18S 2532   5.671   7.020  15.495
   20DOPE  H18T 2533   5.823   7.066  15.237
   20DOPE   C33 2534   6.107   7.012  19.434
   20DOPE   H3X 2535   6.204   7.037  19.287
   20DOPE   H3Y 2536   6.027   7.027  19.206
   20DOPE   C34 2537   6.113   6.864  19.557
   20DOPE   H4X 2538   6.177   6.853  19.827
   20DOPE   H4Y 2539   6.012   6.826  19.638
   20DOPE   C35 2540   6.175   6.776  19.227
   20DOPE   H5X 2541   6.197   6.675  19.356
   20DOPE   H5Y 2542   6.270   6.820  19.122
   20DOPE   C36 2543   6.080   6.760  18.870
   20DOPE   H6X 2544   6.070   6.860  18.726
   20DOPE   H6Y 2545   5.981   6.730  18.993
   20DOPE   C37 2546   6.124   6.655  18.564
   20DOPE   H7X 2547   6.219   6.685  18.420
   20DOPE   H7Y 2548   6.143   6.561  18.735
   20DOPE   C38 2549   6.016   6.626  18.246
   20DOPE   H8X 2550   5.924   6.593  18.402
   20DOPE   H8Y 2551   6.050   6.539  18.063
   20DOPE   C39 2552   5.987   6.748  17.991
   20DOPE   H9X 2553   5.968   6.840  18.162
   20DOPE  C310 2554   5.978   6.754  17.589
   20DOPE  H10X 2555   5.952   6.850  17.448
   20DOPE  C311 2556   5.996   6.638  17.307
   20DOPE  H11X 2557   6.047   6.670  17.028
   20DOPE  H11Y 2558   6.058   6.557  17.439
   20DOPE  C312 2559   5.859   6.577  17.202
   20DOPE  H12X 2560   5.802   6.548  17.478
   20DOPE  H12Y 2561   5.878   6.483  17.034
   20DOPE  C313 2562   5.772   6.668  16.941
   20DOPE  H13X 2563   5.691   6.714  17.124
   20DOPE  H13Y 2564   5.834   6.752  16.824
   20DOPE  C314 2565   5.713   6.591  16.584
   20DOPE  H14X 2566   5.629   6.647  16.446
   20DOPE  H14Y 2567   5.671   6.495  16.698
   20DOPE  C315 2568   5.820   6.562  16.266
   20DOPE  H15X 2569   5.884   6.479  16.377
   20DOPE  H15Y 2570   5.886   6.650  16.230
   20DOPE  C316 2571   5.763   6.527  15.852
   20DOPE  H16X 2572   5.846   6.499  15.648
   20DOPE  H16Y 2573   5.714   6.618  15.723
   20DOPE  C317 2574   5.660   6.414  15.864
   20DOPE  H17X 2575   5.701   6.327  16.026
   20DOPE  H17Y 2576   5.571   6.450  16.032
   20DOPE  C318 2577   5.617   6.368  15.444
   20DOPE  H18X 2578   5.582   6.456  15.270
   20DOPE  H18Y 2579   5.702   6.322  15.282
   20DOPE  H18Z 2580   5.535   6.294  15.465
   21DOPE     N 2581   3.366   7.432  20.442
   21DOPE   HN1 2582   3.307   7.496  20.265
   21DOPE   HN2 2583   3.430   7.371  20.280
   21DOPE   HN3 2584   3.295   7.373  20.589
   21DOPE   C12 2585   3.434   7.511  20.766
   21DOPE  H12A 2586   3.474   7.604  20.631
   21DOPE  H12B 2587   3.517   7.449  20.886
   21DOPE   C11 2588   3.334   7.541  21.105
   21DOPE  H11A 2589   3.388   7.602  21.333
   21DOPE  H11B 2590   3.304   7.447  21.261
   21DOPE     P 2591   3.082   7.554  20.844
   21DOPE   O13 2592   2.992   7.553  21.198
   21DOPE   O14 2593   3.108   7.425  20.640
   21DOPE   O11 2594   3.036   7.657  20.517
   21DOPE   O12 2595   3.222   7.615  20.964
   21DOPE    C1 2596   3.121   7.684  20.181
   21DOPE    HA 2597   3.177   7.594  20.079
   21DOPE    HB 2598   3.194   7.764  20.268
   21DOPE    C2 2599   3.043   7.736  19.809
   21DOPE    HS 2600   2.968   7.809  19.926
   21DOPE   O21 2601   2.980   7.629  19.596
   21DOPE   C21 2602   2.865   7.587  19.743
   21DOPE   O22 2603   2.808   7.631  20.037
   21DOPE   C22 2604   2.800   7.491  19.440
   21DOPE   H2R 2605   2.796   7.395  19.608
   21DOPE   H2S 2606   2.866   7.475  19.179
   21DOPE    C3 2607   3.129   7.816  19.500
   21DOPE    HX 2608   3.190   7.892  19.656
   21DOPE    HY 2609   3.058   7.871  19.308
   21DOPE   O31 2610   3.209   7.732  19.239
   21DOPE   C31 2611   3.321   7.687  19.395
   21DOPE   O32 2612   3.364   7.714  19.728
   21DOPE   C32 2613   3.390   7.588  19.119
   21DOPE   H2X 2614   3.498   7.594  19.203
   21DOPE   H2Y 2615   3.356   7.485  19.191
   21DOPE   C23 2616   2.653   7.527  19.317
   21DOPE   H3R 2617   2.604   7.585  19.563
   21DOPE   H3S 2618   2.598   7.431  19.299
   21DOPE   C24 2619   2.617   7.592  18.909
   21DOPE   H4R 2620   2.624   7.701  18.936
   21DOPE   H4S 2621   2.507   7.575  18.867
   21DOPE   C25 2622   2.685   7.539  18.528
   21DOPE   H5R 2623   2.615   7.465  18.390
   21DOPE   H5S 2624   2.778   7.484  18.603
   21DOPE   C26 2625   2.722   7.644  18.207
   21DOPE   H6R 2626   2.806   7.705  18.318
   21DOPE   H6S 2627   2.635   7.712  18.159
   21DOPE   C27 2628   2.765   7.588  17.796
   21DOPE   H7R 2629   2.762   7.669  17.568
   21DOPE   H7S 2630   2.690   7.511  17.703
   21DOPE   C28 2631   2.905   7.525  17.787
   21DOPE   H8R 2632   2.916   7.475  17.490
   21DOPE   H8S 2633   2.908   7.443  18.012
   21DOPE   C29 2634   3.022   7.618  17.856
   21DOPE   H9R 2635   3.037   7.644  18.174
   21DOPE  C210 2636   3.102   7.677  17.583
   21DOPE  H10R 2637   3.179   7.747  17.691
   21DOPE  C211 2638   3.095   7.665  17.127
   21DOPE  H11R 2639   3.027   7.582  17.034
   21DOPE  H11S 2640   3.195   7.642  16.998
   21DOPE  C212 2641   3.041   7.803  16.980
   21DOPE  H12R 2642   3.123   7.878  16.983
   21DOPE  H12S 2643   2.968   7.831  17.214
   21DOPE  C213 2644   2.950   7.819  16.605
   21DOPE  H13R 2645   3.004   7.864  16.350
   21DOPE  H13S 2646   2.871   7.893  16.680
   21DOPE  C214 2647   2.871   7.697  16.488
   21DOPE  H14R 2648   2.802   7.677  16.743
   21DOPE  H14S 2649   2.940   7.610  16.461
   21DOPE  C215 2650   2.790   7.705  16.098
   21DOPE  H15R 2651   2.860   7.697  15.840
   21DOPE  H15S 2652   2.732   7.799  16.065
   21DOPE  C216 2653   2.696   7.584  16.122
   21DOPE  H16R 2654   2.625   7.598  16.374
   21DOPE  H16S 2655   2.764   7.500  16.209
   21DOPE  C217 2656   2.623   7.538  15.747
   21DOPE  H17R 2657   2.603   7.431  15.813
   21DOPE  H17S 2658   2.689   7.542  15.480
   21DOPE  C218 2659   2.484   7.595  15.663
   21DOPE  H18R 2660   2.422   7.595  15.942
   21DOPE  H18S 2661   2.433   7.531  15.438
   21DOPE  H18T 2662   2.488   7.699  15.546
   21DOPE   C33 2663   3.378   7.615  18.666
   21DOPE   H3X 2664   3.375   7.724  18.606
   21DOPE   H3Y 2665   3.284   7.573  18.543
   21DOPE   C34 2666   3.502   7.557  18.459
   21DOPE   H4X 2667   3.509   7.592  18.141
   21DOPE   H4Y 2668   3.590   7.597  18.621
   21DOPE   C35 2669   3.513   7.405  18.468
   21DOPE   H5X 2670   3.529   7.373  18.780
   21DOPE   H5Y 2671   3.600   7.371  18.285
   21DOPE   C36 2672   3.386   7.338  18.315
   21DOPE   H6X 2673   3.302   7.360  18.525
   21DOPE   H6Y 2674   3.400   7.228  18.315
   21DOPE   C37 2675   3.348   7.389  17.895
   21DOPE   H7X 2676   3.348   7.500  17.883
   21DOPE   H7Y 2677   3.423   7.354  17.673
   21DOPE   C38 2678   3.206   7.349  17.781
   21DOPE   H8X 2679   3.179   7.404  17.502
   21DOPE   H8Y 2680   3.137   7.382  18.024
   21DOPE   C39 2681   3.198   7.200  17.733
   21DOPE   H9X 2682   3.259   7.141  17.940
   21DOPE  C310 2683   3.125   7.139  17.454
   21DOPE  H10X 2684   3.131   7.030  17.430
   21DOPE  C311 2685   3.039   7.207  17.148
   21DOPE  H11X 2686   2.940   7.156  17.142
   21DOPE  H11Y 2687   3.019   7.314  17.214
   21DOPE  C312 2688   3.105   7.199  16.737
   21DOPE  H12X 2689   3.144   7.096  16.680
   21DOPE  H12Y 2690   3.192   7.269  16.722
   21DOPE  C313 2691   3.006   7.231  16.407
   21DOPE  H13X 2692   2.924   7.155  16.419
   21DOPE  H13Y 2693   2.958   7.330  16.458
   21DOPE  C314 2694   3.071   7.222  15.996
   21DOPE  H14X 2695   2.990   7.226  15.768
   21DOPE  H14Y 2696   3.125   7.125  15.978
   21DOPE  C315 2697   3.168   7.332  15.885
   21DOPE  H15X 2698   3.198   7.320  15.564
   21DOPE  H15Y 2699   3.261   7.325  16.068
   21DOPE  C316 2700   3.101   7.466  15.954
   21DOPE  H16X 2701   3.100   7.482  16.287
   21DOPE  H16Y 2702   2.996   7.466  15.846
   21DOPE  C317 2703   3.178   7.579  15.765
   21DOPE  H17X 2704   3.284   7.545  15.741
   21DOPE  H17Y 2705   3.138   7.598  15.456
   21DOPE  C318 2706   3.174   7.708  16.008
   21DOPE  H18X 2707   3.084   7.765  15.912
   21DOPE  H18Y 2708   3.169   7.686  16.332
   21DOPE  H18Z 2709   3.262   7.772  15.960
   22DOPE     N 2710   7.370   4.790  20.751
   22DOPE   HN1 2711   7.281   4.768  20.607
   22DOPE   HN2 2712   7.428   4.854  20.577
   22DOPE   HN3 2713   7.433   4.707  20.799
   22DOPE   C12 2714   7.373   4.872  21.129
   22DOPE  H12A 2715   7.373   4.802  21.387
   22DOPE  H12B 2716   7.282   4.935  21.147
   22DOPE   C11 2717   7.500   4.961  21.114
   22DOPE  H11A 2718   7.554   4.955  21.408
   22DOPE  H11B 2719   7.467   5.067  21.084
   22DOPE     P 2720   7.685   4.807  20.817
   22DOPE   O13 2721   7.606   4.690  20.952
   22DOPE   O14 2722   7.796   4.850  21.078
   22DOPE   O11 2723   7.726   4.787  20.367
   22DOPE   O12 2724   7.585   4.929  20.778
   22DOPE    C1 2725   7.626   4.793  20.055
   22DOPE    HA 2726   7.553   4.873  20.106
   22DOPE    HB 2727   7.572   4.696  20.034
   22DOPE    C2 2728   7.694   4.817  19.641
   22DOPE    HS 2729   7.788   4.759  19.680
   22DOPE   O21 2730   7.718   4.957  19.551
   22DOPE   C21 2731   7.824   4.968  19.308
   22DOPE   O22 2732   7.910   4.883  19.269
   22DOPE   C22 2733   7.818   5.092  19.041
   22DOPE   H2R 2734   7.916   5.142  19.056
   22DOPE   H2S 2735   7.743   5.164  19.152
   22DOPE    C3 2736   7.614   4.757  19.278
   22DOPE    HX 2737   7.632   4.647  19.275
   22DOPE    HY 2738   7.661   4.795  18.996
   22DOPE   O31 2739   7.474   4.795  19.272
   22DOPE   C31 2740   7.386   4.696  19.269
   22DOPE   O32 2741   7.415   4.579  19.323
   22DOPE   C32 2742   7.240   4.744  19.221
   22DOPE   H2X 2743   7.179   4.667  19.377
   22DOPE   H2Y 2744   7.227   4.833  19.404
   22DOPE   C23 2745   7.804   5.048  18.603
   22DOPE   H3R 2746   7.700   5.015  18.537
   22DOPE   H3S 2747   7.871   4.959  18.552
   22DOPE   C24 2748   7.848   5.153  18.294
   22DOPE   H4R 2749   7.937   5.207  18.405
   22DOPE   H4S 2750   7.774   5.232  18.240
   22DOPE   C25 2751   7.883   5.081  17.904
   22DOPE   H5R 2752   7.816   4.995  17.844
   22DOPE   H5S 2753   7.979   5.031  17.955
   22DOPE   C26 2754   7.889   5.172  17.538
   22DOPE   H6R 2755   7.947   5.117  17.307
   22DOPE   H6S 2756   7.942   5.267  17.613
   22DOPE   C27 2757   7.752   5.201  17.352
   22DOPE   H7R 2758   7.712   5.291  17.502
   22DOPE   H7S 2759   7.681   5.120  17.430
   22DOPE   C28 2760   7.751   5.223  16.893
   22DOPE   H8R 2761   7.668   5.294  16.830
   22DOPE   H8S 2762   7.720   5.128  16.743
   22DOPE   C29 2763   7.878   5.275  16.704
   22DOPE   H9R 2764   7.957   5.306  16.917
   22DOPE  C210 2765   7.901   5.286  16.308
   22DOPE  H10R 2766   7.999   5.323  16.203
   22DOPE  C211 2767   7.801   5.247  15.987
   22DOPE  H11R 2768   7.699   5.273  16.101
   22DOPE  H11S 2769   7.800   5.137  15.948
   22DOPE  C212 2770   7.818   5.313  15.567
   22DOPE  H12R 2771   7.901   5.268  15.393
   22DOPE  H12S 2772   7.848   5.419  15.630
   22DOPE  C213 2773   7.686   5.322  15.321
   22DOPE  H13R 2774   7.683   5.420  15.165
   22DOPE  H13S 2775   7.610   5.323  15.561
   22DOPE  C214 2776   7.642   5.209  15.027
   22DOPE  H14R 2777   7.599   5.127  15.216
   22DOPE  H14S 2778   7.733   5.169  14.880
   22DOPE  C215 2779   7.536   5.244  14.694
   22DOPE  H15R 2780   7.526   5.158  14.487
   22DOPE  H15S 2781   7.578   5.329  14.517
   22DOPE  C216 2782   7.400   5.291  14.868
   22DOPE  H16R 2783   7.435   5.395  14.937
   22DOPE  H16S 2784   7.375   5.235  15.144
   22DOPE  C217 2785   7.265   5.322  14.658
   22DOPE  H17R 2786   7.223   5.410  14.820
   22DOPE  H17S 2787   7.184   5.249  14.691
   22DOPE  C218 2788   7.267   5.356  14.220
   22DOPE  H18R 2789   7.366   5.327  14.097
   22DOPE  H18S 2790   7.243   5.464  14.196
   22DOPE  H18T 2791   7.188   5.303  14.052
   22DOPE   C33 2792   7.172   4.766  18.804
   22DOPE   H3X 2793   7.072   4.810  18.885
   22DOPE   H3Y 2794   7.149   4.672  18.651
   22DOPE   C34 2795   7.229   4.856  18.474
   22DOPE   H4X 2796   7.231   4.961  18.561
   22DOPE   H4Y 2797   7.330   4.821  18.378
   22DOPE   C35 2798   7.136   4.863  18.117
   22DOPE   H5X 2799   7.030   4.870  18.222
   22DOPE   H5Y 2800   7.149   4.770  17.943
   22DOPE   C36 2801   7.164   4.977  17.829
   22DOPE   H6X 2802   7.160   5.076  17.982
   22DOPE   H6Y 2803   7.078   4.971  17.616
   22DOPE   C37 2804   7.297   4.965  17.595
   22DOPE   H7X 2805   7.302   5.045  17.370
   22DOPE   H7Y 2806   7.383   4.985  17.787
   22DOPE   C38 2807   7.329   4.829  17.406
   22DOPE   H8X 2808   7.333   4.758  17.661
   22DOPE   H8Y 2809   7.431   4.830  17.274
   22DOPE   C39 2810   7.228   4.789  17.094
   22DOPE   H9X 2811   7.162   4.706  17.178
   22DOPE  C310 2812   7.213   4.850  16.740
   22DOPE  H10X 2813   7.137   4.815  16.527
   22DOPE  C311 2814   7.294   4.968  16.599
   22DOPE  H11X 2815   7.229   5.051  16.491
   22DOPE  H11Y 2816   7.361   5.011  16.833
   22DOPE  C312 2817   7.393   4.928  16.278
   22DOPE  H12X 2818   7.442   4.833  16.365
   22DOPE  H12Y 2819   7.472   5.007  16.263
   22DOPE  C313 2820   7.331   4.917  15.864
   22DOPE  H13X 2821   7.253   4.837  15.858
   22DOPE  H13Y 2822   7.279   5.011  15.786
   22DOPE  C314 2823   7.441   4.886  15.561
   22DOPE  H14X 2824   7.524   4.958  15.588
   22DOPE  H14Y 2825   7.396   4.901  15.255
   22DOPE  C315 2826   7.490   4.742  15.603
   22DOPE  H15X 2827   7.512   4.701  15.303
   22DOPE  H15Y 2828   7.404   4.680  15.708
   22DOPE  C316 2829   7.610   4.711  15.882
   22DOPE  H16X 2830   7.670   4.629  15.744
   22DOPE  H16Y 2831   7.564   4.667  16.158
   22DOPE  C317 2832   7.707   4.820  16.041
   22DOPE  H17X 2833   7.649   4.902  16.182
   22DOPE  H17Y 2834   7.765   4.772  16.287
   22DOPE  C318 2835   7.809   4.882  15.753
   22DOPE  H18X 2836   7.878   4.949  15.924
   22DOPE  H18Y 2837   7.872   4.804  15.612
   22DOPE  H18Z 2838   7.759   4.942  15.519
   23DOPE     N 2839   4.670  -0.146  21.561
   23DOPE   HN1 2840   4.662  -0.168  21.867
   23DOPE   HN2 2841   4.740  -0.071  21.513
   23DOPE   HN3 2842   4.580  -0.113  21.435
   23DOPE   C12 2843   4.711  -0.270  21.339
   23DOPE  H12A 2844   4.623  -0.338  21.339
   23DOPE  H12B 2845   4.795  -0.318  21.495
   23DOPE   C11 2846   4.745  -0.231  20.910
   23DOPE  H11A 2847   4.750  -0.324  20.724
   23DOPE  H11B 2848   4.846  -0.183  20.901
   23DOPE     P 2849   4.655  -0.092  20.322
   23DOPE   O13 2850   4.524  -0.039  20.202
   23DOPE   O14 2851   4.711  -0.207  20.097
   23DOPE   O11 2852   4.761   0.025  20.373
   23DOPE   O12 2853   4.643  -0.140  20.775
   23DOPE    C1 2854   4.764   0.112  20.715
   23DOPE    HA 2855   4.813   0.060  20.970
   23DOPE    HB 2856   4.660   0.139  20.808
   23DOPE    C2 2857   4.842   0.246  20.643
   23DOPE    HS 2858   4.825   0.313  20.904
   23DOPE   O21 2859   4.797   0.312  20.292
   23DOPE   C21 2860   4.670   0.339  20.250
   23DOPE   O22 2861   4.588   0.352  20.520
   23DOPE   C22 2862   4.649   0.374  19.809
   23DOPE   H2R 2863   4.747   0.371  19.653
   23DOPE   H2S 2864   4.611   0.478  19.797
   23DOPE    C3 2865   4.998   0.231  20.607
   23DOPE    HX 2866   5.039   0.229  20.919
   23DOPE    HY 2867   5.040   0.323  20.466
   23DOPE   O31 2868   5.044   0.111  20.409
   23DOPE   C31 2869   5.020   0.107  20.016
   23DOPE   O32 2870   4.977   0.197  19.809
   23DOPE   C32 2871   5.077  -0.024  19.845
   23DOPE   H2X 2872   5.187  -0.016  19.854
   23DOPE   H2Y 2873   5.046  -0.107  20.046
   23DOPE   C23 2874   4.552   0.283  19.578
   23DOPE   H3R 2875   4.447   0.307  19.656
   23DOPE   H3S 2876   4.570   0.175  19.656
   23DOPE   C24 2877   4.578   0.301  19.128
   23DOPE   H4R 2878   4.679   0.258  19.059
   23DOPE   H4S 2879   4.581   0.409  19.056
   23DOPE   C25 2880   4.473   0.232  18.870
   23DOPE   H5R 2881   4.379   0.293  18.876
   23DOPE   H5S 2882   4.449   0.134  19.008
   23DOPE   C26 2883   4.519   0.210  18.438
   23DOPE   H6R 2884   4.438   0.153  18.285
   23DOPE   H6S 2885   4.609   0.144  18.432
   23DOPE   C27 2886   4.551   0.341  18.213
   23DOPE   H7R 2887   4.658   0.366  18.261
   23DOPE   H7S 2888   4.492   0.424  18.348
   23DOPE   C28 2889   4.521   0.334  17.760
   23DOPE   H8R 2890   4.578   0.250  17.622
   23DOPE   H8S 2891   4.555   0.428  17.616
   23DOPE   C29 2892   4.372   0.318  17.709
   23DOPE   H9R 2893   4.315   0.406  17.802
   23DOPE  C210 2894   4.304   0.207  17.604
   23DOPE  H10R 2895   4.196   0.211  17.661
   23DOPE  C211 2896   4.354   0.068  17.499
   23DOPE  H11R 2897   4.324   0.003  17.754
   23DOPE  H11S 2898   4.465   0.064  17.496
   23DOPE  C212 2899   4.300  -0.005  17.118
   23DOPE  H12R 2900   4.190  -0.015  17.142
   23DOPE  H12S 2901   4.341  -0.108  17.133
   23DOPE  C213 2902   4.332   0.051  16.692
   23DOPE  H13R 2903   4.262   0.131  16.620
   23DOPE  H13S 2904   4.311  -0.027  16.467
   23DOPE  C214 2905   4.475   0.103  16.629
   23DOPE  H14R 2906   4.540   0.017  16.545
   23DOPE  H14S 2907   4.509   0.144  16.920
   23DOPE  C215 2908   4.495   0.219  16.329
   23DOPE  H15R 2909   4.591   0.271  16.404
   23DOPE  H15S 2910   4.414   0.292  16.380
   23DOPE  C216 2911   4.505   0.178  15.885
   23DOPE  H16R 2912   4.411   0.125  15.804
   23DOPE  H16S 2913   4.588   0.105  15.843
   23DOPE  C217 2914   4.526   0.296  15.597
   23DOPE  H17R 2915   4.507   0.260  15.285
   23DOPE  H17S 2916   4.632   0.330  15.612
   23DOPE  C218 2917   4.435   0.413  15.699
   23DOPE  H18R 2918   4.481   0.477  15.936
   23DOPE  H18S 2919   4.340   0.371  15.813
   23DOPE  H18T 2920   4.410   0.475  15.438
   23DOPE   C33 2921   5.028  -0.048  19.413
   23DOPE   H3X 2922   5.090  -0.126  19.266
   23DOPE   H3Y 2923   5.037   0.044  19.230
   23DOPE   C34 2924   4.882  -0.096  19.425
   23DOPE   H4X 2925   4.879  -0.204  19.506
   23DOPE   H4Y 2926   4.832  -0.040  19.668
   23DOPE   C35 2927   4.795  -0.069  19.056
   23DOPE   H5X 2928   4.787   0.041  19.002
   23DOPE   H5Y 2929   4.693  -0.106  19.131
   23DOPE   C36 2930   4.843  -0.139  18.678
   23DOPE   H6X 2931   4.882  -0.240  18.759
   23DOPE   H6Y 2932   4.926  -0.081  18.543
   23DOPE   C37 2933   4.729  -0.159  18.372
   23DOPE   H7X 2934   4.643  -0.204  18.534
   23DOPE   H7Y 2935   4.694  -0.061  18.255
   23DOPE   C38 2936   4.771  -0.251  18.030
   23DOPE   H8X 2937   4.686  -0.268  17.820
   23DOPE   H8Y 2938   4.796  -0.348  18.168
   23DOPE   C39 2939   4.893  -0.199  17.820
   23DOPE   H9X 2940   4.988  -0.249  17.889
   23DOPE  C310 2941   4.892  -0.096  17.565
   23DOPE  H10X 2942   4.986  -0.061  17.427
   23DOPE  C311 2943   4.768  -0.019  17.448
   23DOPE  H11X 2944   4.675  -0.079  17.481
   23DOPE  H11Y 2945   4.756   0.072  17.637
   23DOPE  C312 2946   4.783   0.022  17.010
   23DOPE  H12X 2947   4.871   0.089  16.971
   23DOPE  H12Y 2948   4.697   0.084  16.932
   23DOPE  C313 2949   4.792  -0.096  16.716
   23DOPE  H13X 2950   4.880  -0.159  16.791
   23DOPE  H13Y 2951   4.701  -0.161  16.740
   23DOPE  C314 2952   4.809  -0.047  16.287
   23DOPE  H14X 2953   4.888   0.032  16.290
   23DOPE  H14Y 2954   4.716   0.001  16.179
   23DOPE  C315 2955   4.853  -0.157  15.999
   23DOPE  H15X 2956   4.930  -0.219  16.146
   23DOPE  H15Y 2957   4.901  -0.105  15.741
   23DOPE  C316 2958   4.738  -0.246  15.846
   23DOPE  H16X 2959   4.648  -0.183  15.798
   23DOPE  H16Y 2960   4.714  -0.321  16.083
   23DOPE  C317 2961   4.769  -0.318  15.450
   23DOPE  H17X 2962   4.854  -0.389  15.492
   23DOPE  H17Y 2963   4.681  -0.379  15.363
   23DOPE  C318 2964   4.802  -0.224  15.102
   23DOPE  H18X 2965   4.896  -0.167  15.156
   23DOPE  H18Y 2966   4.817  -0.281  14.823
   23DOPE  H18Z 2967   4.720  -0.151  15.054
   24DOPE     N 2968   6.861   6.219  21.579
   24DOPE   HN1 2969   6.809   6.129  21.585
   24DOPE   HN2 2970   6.945   6.203  21.402
   24DOPE   HN3 2971   6.888   6.244  21.873
   24DOPE   C12 2972   6.779   6.329  21.387
   24DOPE  H12A 2973   6.850   6.409  21.297
   24DOPE  H12B 2974   6.710   6.369  21.618
   24DOPE   C11 2975   6.700   6.281  21.018
   24DOPE  H11A 2976   6.656   6.370  20.868
   24DOPE  H11B 2977   6.617   6.214  21.111
   24DOPE     P 2978   6.803   6.250  20.295
   24DOPE   O13 2979   6.875   6.379  20.271
   24DOPE   O14 2980   6.675   6.236  20.076
   24DOPE   O11 2981   6.898   6.131  20.187
   24DOPE   O12 2982   6.785   6.211  20.751
   24DOPE    C1 2983   6.844   6.000  20.262
   24DOPE    HA 2984   6.737   5.990  20.166
   24DOPE    HB 2985   6.851   5.975  20.586
   24DOPE    C2 2986   6.924   5.894  20.031
   24DOPE    HS 2987   7.017   5.888  20.214
   24DOPE   O21 2988   6.951   5.938  19.629
   24DOPE   C21 2989   7.057   6.015  19.602
   24DOPE   O22 2990   7.149   6.024  19.842
   24DOPE   C22 2991   7.049   6.088  19.206
   24DOPE   H2R 2992   7.123   6.167  19.212
   24DOPE   H2S 2993   6.949   6.137  19.185
   24DOPE    C3 2994   6.857   5.754  20.010
   24DOPE    HX 2995   6.847   5.711  20.316
   24DOPE    HY 2996   6.923   5.686  19.839
   24DOPE   O31 2997   6.727   5.767  19.830
   24DOPE   C31 2998   6.714   5.719  19.467
   24DOPE   O32 2999   6.779   5.629  19.311
   24DOPE   C32 3000   6.607   5.799  19.257
   24DOPE   H2X 3001   6.601   5.761  18.945
   24DOPE   H2Y 3002   6.511   5.778  19.413
   24DOPE   C23 3003   7.083   6.000  18.840
   24DOPE   H3R 3004   7.174   5.940  18.882
   24DOPE   H3S 3005   7.102   6.071  18.591
   24DOPE   C24 3006   6.961   5.923  18.705
   24DOPE   H4R 3007   6.886   5.998  18.789
   24DOPE   H4S 3008   6.931   5.834  18.879
   24DOPE   C25 3009   6.944   5.911  18.252
   24DOPE   H5R 3010   6.956   5.811  18.123
   24DOPE   H5S 3011   7.021   5.973  18.111
   24DOPE   C26 3012   6.802   5.951  18.147
   24DOPE   H6R 3013   6.798   5.996  17.844
   24DOPE   H6S 3014   6.770   6.032  18.348
   24DOPE   C27 3015   6.709   5.830  18.207
   24DOPE   H7R 3016   6.610   5.864  18.315
   24DOPE   H7S 3017   6.752   5.765  18.447
   24DOPE   C28 3018   6.692   5.745  17.826
   24DOPE   H8R 3019   6.617   5.666  17.880
   24DOPE   H8S 3020   6.790   5.694  17.769
   24DOPE   C29 3021   6.652   5.838  17.490
   24DOPE   H9R 3022   6.576   5.912  17.574
   24DOPE  C210 3023   6.705   5.842  17.121
   24DOPE  H10R 3024   6.673   5.921  16.911
   24DOPE  C211 3025   6.816   5.754  16.974
   24DOPE  H11R 3026   6.881   5.719  17.226
   24DOPE  H11S 3027   6.883   5.809  16.767
   24DOPE  C212 3028   6.756   5.629  16.773
   24DOPE  H12R 3029   6.682   5.584  16.983
   24DOPE  H12S 3030   6.836   5.554  16.725
   24DOPE  C213 3031   6.688   5.657  16.368
   24DOPE  H13R 3032   6.617   5.742  16.404
   24DOPE  H13S 3033   6.628   5.568  16.278
   24DOPE  C214 3034   6.786   5.692  16.029
   24DOPE  H14R 3035   6.859   5.767  16.146
   24DOPE  H14S 3036   6.731   5.741  15.780
   24DOPE  C215 3037   6.867   5.575  15.855
   24DOPE  H15R 3038   6.801   5.511  15.669
   24DOPE  H15S 3039   6.910   5.515  16.104
   24DOPE  C216 3040   6.985   5.632  15.621
   24DOPE  H16R 3041   7.067   5.657  15.834
   24DOPE  H16S 3042   6.946   5.728  15.507
   24DOPE  C217 3043   7.040   5.559  15.252
   24DOPE  H17R 3044   6.997   5.460  15.204
   24DOPE  H17S 3045   7.150   5.546  15.282
   24DOPE  C218 3046   7.015   5.637  14.871
   24DOPE  H18R 3047   7.035   5.568  14.616
   24DOPE  H18S 3048   7.085   5.721  14.838
   24DOPE  H18T 3049   6.912   5.676  14.862
   24DOPE   C33 3050   6.640   5.950  19.266
   24DOPE   H3X 3051   6.724   5.970  19.059
   24DOPE   H3Y 3052   6.670   5.984  19.569
   24DOPE   C34 3053   6.527   6.039  19.125
   24DOPE   H4X 3054   6.496   6.000  18.831
   24DOPE   H4Y 3055   6.442   6.032  19.341
   24DOPE   C35 3056   6.567   6.185  19.041
   24DOPE   H5X 3057   6.655   6.210  19.230
   24DOPE   H5Y 3058   6.483   6.249  19.140
   24DOPE   C36 3059   6.595   6.211  18.591
   24DOPE   H6X 3060   6.508   6.265  18.459
   24DOPE   H6Y 3061   6.597   6.115  18.426
   24DOPE   C37 3062   6.725   6.290  18.504
   24DOPE   H7X 3063   6.716   6.390  18.642
   24DOPE   H7Y 3064   6.811   6.237  18.645
   24DOPE   C38 3065   6.752   6.306  18.048
   24DOPE   H8X 3066   6.659   6.345  17.913
   24DOPE   H8Y 3067   6.763   6.204  17.919
   24DOPE   C39 3068   6.867   6.394  17.913
   24DOPE   H9X 3069   6.852   6.502  17.946
   24DOPE  C310 3070   6.984   6.351  17.757
   24DOPE  H10X 3071   7.049   6.423  17.604
   24DOPE  C311 3072   7.023   6.207  17.691
   24DOPE  H11X 3073   7.133   6.192  17.712
   24DOPE  H11Y 3074   6.978   6.149  17.937
   24DOPE  C312 3075   6.973   6.150  17.286
   24DOPE  H12X 3076   6.863   6.140  17.295
   24DOPE  H12Y 3077   7.017   6.049  17.238
   24DOPE  C313 3078   7.012   6.242  16.941
   24DOPE  H13X 3079   6.976   6.345  17.010
   24DOPE  H13Y 3080   7.123   6.248  16.926
   24DOPE  C314 3081   6.950   6.217  16.530
   24DOPE  H14X 3082   6.842   6.244  16.536
   24DOPE  H14Y 3083   6.960   6.112  16.422
   24DOPE  C315 3084   7.025   6.314  16.260
   24DOPE  H15X 3085   7.131   6.294  16.323
   24DOPE  H15Y 3086   7.003   6.418  16.362
   24DOPE  C316 3087   7.003   6.299  15.807
   24DOPE  H16X 3088   6.955   6.392  15.705
   24DOPE  H16Y 3089   6.930   6.216  15.762
   24DOPE  C317 3090   7.136   6.265  15.588
   24DOPE  H17X 3091   7.217   6.331  15.699
   24DOPE  H17Y 3092   7.165   6.163  15.675
   24DOPE  C318 3093   7.143   6.273  15.129
   24DOPE  H18X 3094   7.151   6.376  15.030
   24DOPE  H18Y 3095   7.232   6.220  15.012
   24DOPE  H18Z 3096   7.053   6.233  14.985
   25DOPE     N 3097   7.687   6.013  20.403
   25DOPE   HN1 3098   7.755   5.967  20.595
   25DOPE   HN2 3099   7.632   5.935  20.280
   25DOPE   HN3 3100   7.733   6.071  20.181
   25DOPE   C12 3101   7.594   6.088  20.673
   25DOPE  H12A 3102   7.491   6.075  20.556
   25DOPE  H12B 3103   7.618   6.195  20.667
   25DOPE   C11 3104   7.611   6.028  21.096
   25DOPE  H11A 3105   7.538   6.073  21.309
   25DOPE  H11B 3106   7.712   6.057  21.210
   25DOPE     P 3107   7.464   5.815  21.087
   25DOPE   O13 3108   7.379   5.895  20.817
   25DOPE   O14 3109   7.416   5.799  21.504
   25DOPE   O11 3110   7.496   5.682  20.874
   25DOPE   O12 3111   7.606   5.885  21.090
   25DOPE    C1 3112   7.549   5.562  21.024
   25DOPE    HA 3113   7.471   5.502  21.177
   25DOPE    HB 3114   7.628   5.583  21.249
   25DOPE    C2 3115   7.611   5.477  20.676
   25DOPE    HS 3116   7.712   5.449  20.769
   25DOPE   O21 3117   7.616   5.544  20.286
   25DOPE   C21 3118   7.683   5.657  20.244
   25DOPE   O22 3119   7.734   5.727  20.499
   25DOPE   C22 3120   7.702   5.691  19.800
   25DOPE   H2R 3121   7.607   5.735  19.692
   25DOPE   H2S 3122   7.719   5.594  19.644
   25DOPE    C3 3123   7.537   5.340  20.622
   25DOPE    HX 3124   7.497   5.310  20.916
   25DOPE    HY 3125   7.611   5.260  20.541
   25DOPE   O31 3126   7.426   5.346  20.352
   25DOPE   C31 3127   7.464   5.336  19.971
   25DOPE   O32 3128   7.573   5.299  19.851
   25DOPE   C32 3129   7.351   5.389  19.716
   25DOPE   H2X 3130   7.259   5.331  19.728
   25DOPE   H2Y 3131   7.306   5.469  19.872
   25DOPE   C23 3132   7.819   5.788  19.701
   25DOPE   H3R 3133   7.914   5.737  19.779
   25DOPE   H3S 3134   7.816   5.878  19.890
   25DOPE   C24 3135   7.825   5.836  19.257
   25DOPE   H4R 3136   7.923   5.884  19.194
   25DOPE   H4S 3137   7.748   5.914  19.209
   25DOPE   C25 3138   7.799   5.720  18.963
   25DOPE   H5R 3139   7.707   5.667  19.035
   25DOPE   H5S 3140   7.874   5.644  19.014
   25DOPE   C26 3141   7.795   5.748  18.510
   25DOPE   H6R 3142   7.870   5.823  18.414
   25DOPE   H6S 3143   7.697   5.792  18.438
   25DOPE   C27 3144   7.809   5.618  18.267
   25DOPE   H7R 3145   7.711   5.592  18.135
   25DOPE   H7S 3146   7.832   5.534  18.474
   25DOPE   C28 3147   7.919   5.622  17.940
   25DOPE   H8R 3148   7.934   5.518  17.826
   25DOPE   H8S 3149   8.017   5.651  18.069
   25DOPE   C29 3150   7.884   5.715  17.604
   25DOPE   H9R 3151   7.921   5.818  17.631
   25DOPE  C210 3152   7.796   5.687  17.313
   25DOPE  H10R 3153   7.766   5.763  17.097
   25DOPE  C211 3154   7.720   5.558  17.286
   25DOPE  H11R 3155   7.755   5.483  17.508
   25DOPE  H11S 3156   7.733   5.511  16.989
   25DOPE  C212 3157   7.574   5.595  17.361
   25DOPE  H12R 3158   7.563   5.686  17.553
   25DOPE  H12S 3159   7.517   5.519  17.526
   25DOPE  C213 3160   7.500   5.614  16.971
   25DOPE  H13R 3161   7.537   5.708  16.842
   25DOPE  H13S 3162   7.394   5.626  17.034
   25DOPE  C214 3163   7.494   5.504  16.656
   25DOPE  H14R 3164   7.441   5.413  16.761
   25DOPE  H14S 3165   7.596   5.474  16.557
   25DOPE  C215 3166   7.419   5.564  16.299
   25DOPE  H15R 3167   7.436   5.674  16.293
   25DOPE  H15S 3168   7.309   5.546  16.320
   25DOPE  C216 3169   7.472   5.516  15.909
   25DOPE  H16R 3170   7.577   5.480  15.939
   25DOPE  H16S 3171   7.476   5.600  15.693
   25DOPE  C217 3172   7.379   5.410  15.753
   25DOPE  H17R 3173   7.432   5.380  15.489
   25DOPE  H17S 3174   7.281   5.451  15.663
   25DOPE  C218 3175   7.366   5.289  16.023
   25DOPE  H18R 3176   7.300   5.313  16.281
   25DOPE  H18S 3177   7.466   5.259  16.137
   25DOPE  H18T 3178   7.323   5.205  15.852
   25DOPE   C33 3179   7.380   5.435  19.290
   25DOPE   H3X 3180   7.301   5.508  19.269
   25DOPE   H3Y 3181   7.349   5.357  19.080
   25DOPE   C34 3182   7.495   5.532  19.185
   25DOPE   H4X 3183   7.510   5.583  19.473
   25DOPE   H4Y 3184   7.588   5.479  19.101
   25DOPE   C35 3185   7.458   5.640  18.864
   25DOPE   H5X 3186   7.354   5.623  18.771
   25DOPE   H5Y 3187   7.520   5.618  18.594
   25DOPE   C36 3188   7.474   5.791  18.975
   25DOPE   H6X 3189   7.572   5.807  19.113
   25DOPE   H6Y 3190   7.404   5.825  19.209
   25DOPE   C37 3191   7.464   5.887  18.612
   25DOPE   H7X 3192   7.493   5.828  18.342
   25DOPE   H7Y 3193   7.358   5.917  18.570
   25DOPE   C38 3194   7.554   6.014  18.624
   25DOPE   H8X 3195   7.661   5.987  18.639
   25DOPE   H8Y 3196   7.533   6.072  18.900
   25DOPE   C39 3197   7.530   6.104  18.267
   25DOPE   H9X 3198   7.462   6.188  18.336
   25DOPE  C310 3199   7.583   6.098  17.895
   25DOPE  H10X 3200   7.549   6.172  17.673
   25DOPE  C311 3201   7.684   6.001  17.727
   25DOPE  H11X 3202   7.759   5.972  17.958
   25DOPE  H11Y 3203   7.631   5.908  17.631
   25DOPE  C312 3204   7.759   6.056  17.355
   25DOPE  H12X 3205   7.829   5.977  17.250
   25DOPE  H12Y 3206   7.822   6.143  17.442
   25DOPE  C313 3207   7.667   6.095  17.004
   25DOPE  H13X 3208   7.579   6.028  16.995
   25DOPE  H13Y 3209   7.628   6.196  17.070
   25DOPE  C314 3210   7.734   6.103  16.590
   25DOPE  H14X 3211   7.825   6.164  16.608
   25DOPE  H14Y 3212   7.665   6.151  16.374
   25DOPE  C315 3213   7.781   5.971  16.416
   25DOPE  H15X 3214   7.852   5.922  16.626
   25DOPE  H15Y 3215   7.837   5.989  16.131
   25DOPE  C316 3216   7.663   5.880  16.332
   25DOPE  H16X 3217   7.593   5.926  16.116
   25DOPE  H16Y 3218   7.609   5.869  16.620
   25DOPE  C317 3219   7.708   5.744  16.185
   25DOPE  H17X 3220   7.804   5.720  16.329
   25DOPE  H17Y 3221   7.644   5.666  16.308
   25DOPE  C318 3222   7.708   5.731  15.729
   25DOPE  H18X 3223   7.735   5.628  15.636
   25DOPE  H18Y 3224   7.607   5.753  15.615
   25DOPE  H18Z 3225   7.775   5.804  15.585
   26DOPE     N 3226   0.644   6.425  20.277
   26DOPE   HN1 3227   0.675   6.499  20.481
   26DOPE   HN2 3228   0.706   6.342  20.313
   26DOPE   HN3 3229   0.654   6.471  20.001
   26DOPE   C12 3230   0.500   6.399  20.373
   26DOPE  H12A 3231   0.496   6.323  20.619
   26DOPE  H12B 3232   0.451   6.359  20.103
   26DOPE   C11 3233   0.432   6.528  20.523
   26DOPE  H11A 3234   0.327   6.502  20.604
   26DOPE  H11B 3235   0.425   6.604  20.277
   26DOPE     P 3236   0.603   6.695  20.868
   26DOPE   O13 3237   0.718   6.643  20.634
   26DOPE   O14 3238   0.627   6.735  21.291
   26DOPE   O11 3239   0.525   6.800  20.613
   26DOPE   O12 3240   0.497   6.576  20.874
   26DOPE    C1 3241   0.413   6.864  20.796
   26DOPE    HA 3242   0.452   6.949  20.973
   26DOPE    HB 3243   0.359   6.795  21.006
   26DOPE    C2 3244   0.307   6.914  20.487
   26DOPE    HS 3245   0.248   6.994  20.631
   26DOPE   O21 3246   0.223   6.801  20.403
   26DOPE   C21 3247   0.148   6.793  20.076
   26DOPE   O22 3248   0.110   6.884  19.863
   26DOPE   C22 3249   0.141   6.642  19.980
   26DOPE   H2R 3250   0.034   6.617  19.959
   26DOPE   H2S 3251   0.179   6.583  20.232
   26DOPE    C3 3252   0.374   6.974  20.106
   26DOPE    HX 3253   0.451   7.045  20.217
   26DOPE    HY 3254   0.298   7.032  19.938
   26DOPE   O31 3255   0.429   6.871  19.851
   26DOPE   C31 3256   0.548   6.895  19.698
   26DOPE   O32 3257   0.608   7.001  19.695
   26DOPE   C32 3258   0.596   6.767  19.494
   26DOPE   H2X 3259   0.618   6.692  19.728
   26DOPE   H2Y 3260   0.511   6.730  19.308
   26DOPE   C23 3261   0.224   6.611  19.596
   26DOPE   H3R 3262   0.324   6.657  19.641
   26DOPE   H3S 3263   0.183   6.670  19.347
   26DOPE   C24 3264   0.254   6.462  19.503
   26DOPE   H4R 3265   0.218   6.400  19.758
   26DOPE   H4S 3266   0.365   6.450  19.488
   26DOPE   C25 3267   0.202   6.399  19.104
   26DOPE   H5R 3268   0.129   6.319  19.185
   26DOPE   H5S 3269   0.286   6.345  18.954
   26DOPE   C26 3270   0.142   6.493  18.786
   26DOPE   H6R 3271   0.100   6.585  18.918
   26DOPE   H6S 3272   0.052   6.446  18.648
   26DOPE   C27 3273   0.244   6.533  18.459
   26DOPE   H7R 3274   0.264   6.444  18.267
   26DOPE   H7S 3275   0.340   6.562  18.603
   26DOPE   C28 3276   0.199   6.651  18.195
   26DOPE   H8R 3277   0.284   6.684  18.009
   26DOPE   H8S 3278   0.172   6.738  18.390
   26DOPE   C29 3279   0.081   6.606  17.949
   26DOPE   H9R 3280  -0.010   6.589  18.126
   26DOPE  C210 3281   0.080   6.578  17.556
   26DOPE  H10R 3282  -0.012   6.540  17.418
   26DOPE  C211 3283   0.199   6.588  17.277
   26DOPE  H11R 3284   0.272   6.663  17.394
   26DOPE  H11S 3285   0.166   6.626  16.980
   26DOPE  C212 3286   0.277   6.456  17.235
   26DOPE  H12R 3287   0.268   6.397  17.517
   26DOPE  H12S 3288   0.385   6.479  17.193
   26DOPE  C213 3289   0.232   6.369  16.878
   26DOPE  H13R 3290   0.123   6.353  16.902
   26DOPE  H13S 3291   0.285   6.271  16.908
   26DOPE  C214 3292   0.265   6.427  16.464
   26DOPE  H14R 3293   0.373   6.411  16.401
   26DOPE  H14S 3294   0.246   6.536  16.476
   26DOPE  C215 3295   0.184   6.372  16.107
   26DOPE  H15R 3296   0.077   6.389  16.173
   26DOPE  H15S 3297   0.201   6.263  16.062
   26DOPE  C216 3298   0.222   6.445  15.720
   26DOPE  H16R 3299   0.333   6.451  15.711
   26DOPE  H16S 3300   0.180   6.547  15.744
   26DOPE  C217 3301   0.179   6.386  15.315
   26DOPE  H17R 3302   0.069   6.375  15.306
   26DOPE  H17S 3303   0.224   6.285  15.276
   26DOPE  C218 3304   0.223   6.476  14.961
   26DOPE  H18R 3305   0.177   6.442  14.676
   26DOPE  H18S 3306   0.334   6.474  14.928
   26DOPE  H18T 3307   0.192   6.581  15.015
   26DOPE   C33 3308   0.718   6.791  19.221
   26DOPE   H3X 3309   0.811   6.798  19.401
   26DOPE   H3Y 3310   0.707   6.887  19.056
   26DOPE   C34 3311   0.732   6.680  18.906
   26DOPE   H4X 3312   0.749   6.583  19.059
   26DOPE   H4Y 3313   0.636   6.673  18.735
   26DOPE   C35 3314   0.846   6.706  18.612
   26DOPE   H5X 3315   0.939   6.731  18.783
   26DOPE   H5Y 3316   0.822   6.795  18.423
   26DOPE   C36 3317   0.876   6.585  18.342
   26DOPE   H6X 3318   0.917   6.504  18.534
   26DOPE   H6Y 3319   0.956   6.613  18.123
   26DOPE   C37 3320   0.756   6.530  18.111
   26DOPE   H7X 3321   0.674   6.505  18.327
   26DOPE   H7Y 3322   0.717   6.609  17.904
   26DOPE   C38 3323   0.795   6.404  17.877
   26DOPE   H8X 3324   0.841   6.332  18.090
   26DOPE   H8Y 3325   0.876   6.434  17.664
   26DOPE   C39 3326   0.678   6.340  17.667
   26DOPE   H9X 3327   0.588   6.330  17.853
   26DOPE  C310 3328   0.674   6.298  17.283
   26DOPE  H10X 3329   0.581   6.254  17.169
   26DOPE  C311 3330   0.786   6.308  16.980
   26DOPE  H11X 3331   0.881   6.343  17.112
   26DOPE  H11Y 3332   0.807   6.207  16.854
   26DOPE  C312 3333   0.750   6.403  16.632
   26DOPE  H12X 3334   0.660   6.366  16.473
   26DOPE  H12Y 3335   0.834   6.404  16.413
   26DOPE  C313 3336   0.726   6.548  16.773
   26DOPE  H13X 3337   0.646   6.550  17.007
   26DOPE  H13Y 3338   0.820   6.584  16.917
   26DOPE  C314 3339   0.686   6.647  16.446
   26DOPE  H14X 3340   0.759   6.645  16.194
   26DOPE  H14Y 3341   0.691   6.748  16.584
   26DOPE  C315 3342   0.543   6.631  16.290
   26DOPE  H15X 3343   0.474   6.645  16.548
   26DOPE  H15Y 3344   0.528   6.529  16.167
   26DOPE  C316 3345   0.508   6.735  15.969
   26DOPE  H16X 3346   0.574   6.723  15.702
   26DOPE  H16Y 3347   0.527   6.834  16.101
   26DOPE  C317 3348   0.361   6.724  15.843
   26DOPE  H17X 3349   0.361   6.649  15.597
   26DOPE  H17Y 3350   0.307   6.683  16.107
   26DOPE  C318 3351   0.281   6.845  15.696
   26DOPE  H18X 3352   0.175   6.813  15.654
   26DOPE  H18Y 3353   0.282   6.928  15.915
   26DOPE  H18Z 3354   0.319   6.880  15.402
   27DOPE     N 3355   5.854   7.489  20.031
   27DOPE   HN1 3356   5.752   7.507  20.052
   27DOPE   HN2 3357   5.897   7.548  19.809
   27DOPE   HN3 3358   5.868   7.388  19.959
   27DOPE   C12 3359   5.923   7.515  20.427
   27DOPE  H12A 3360   5.865   7.463  20.664
   27DOPE  H12B 3361   5.919   7.625  20.481
   27DOPE   C11 3362   6.069   7.462  20.427
   27DOPE  H11A 3363   6.133   7.520  20.214
   27DOPE  H11B 3364   6.069   7.357  20.319
   27DOPE     P 3365   6.138   7.603  21.048
   27DOPE   O13 3366   6.258   7.615  21.306
   27DOPE   O14 3367   6.007   7.640  21.225
   27DOPE   O11 3368   6.156   7.697  20.664
   27DOPE   O12 3369   6.127   7.462  20.823
   27DOPE    C1 3370   6.192   7.834  20.718
   27DOPE    HA 3371   6.297   7.841  20.826
   27DOPE    HB 3372   6.125   7.884  20.937
   27DOPE    C2 3373   6.177   7.920  20.331
   27DOPE    HS 3374   6.174   8.026  20.427
   27DOPE   O21 3375   6.056   7.884  20.121
   27DOPE   C21 3376   6.030   7.963  19.809
   27DOPE   O22 3377   6.096   8.059  19.704
   27DOPE   C22 3378   5.906   7.911  19.596
   27DOPE   H2R 3379   5.820   7.929  19.797
   27DOPE   H2S 3380   5.917   7.801  19.554
   27DOPE    C3 3381   6.304   7.905  20.055
   27DOPE    HX 3382   6.387   7.923  20.274
   27DOPE    HY 3383   6.307   7.987  19.836
   27DOPE   O31 3384   6.321   7.780  19.842
   27DOPE   C31 3385   6.450   7.760  19.749
   27DOPE   O32 3386   6.544   7.827  19.857
   27DOPE   C32 3387   6.465   7.631  19.515
   27DOPE   H2X 3388   6.526   7.569  19.719
   27DOPE   H2Y 3389   6.365   7.583  19.482
   27DOPE   C23 3390   5.883   7.981  19.191
   27DOPE   H3R 3391   5.902   8.091  19.215
   27DOPE   H3S 3392   5.776   7.969  19.107
   27DOPE   C24 3393   5.969   7.921  18.855
   27DOPE   H4R 3394   5.956   7.810  18.852
   27DOPE   H4S 3395   6.077   7.943  18.915
   27DOPE   C25 3396   5.929   7.976  18.441
   27DOPE   H5R 3397   5.944   8.086  18.438
   27DOPE   H5S 3398   5.820   7.956  18.399
   27DOPE   C26 3399   6.005   7.910  18.093
   27DOPE   H6R 3400   5.957   7.942  17.808
   27DOPE   H6S 3401   5.996   7.800  18.117
   27DOPE   C27 3402   6.155   7.946  18.072
   27DOPE   H7R 3403   6.205   7.903  18.339
   27DOPE   H7S 3404   6.166   8.057  18.087
   27DOPE   C28 3405   6.218   7.896  17.676
   27DOPE   H8R 3406   6.238   7.984  17.484
   27DOPE   H8S 3407   6.138   7.839  17.523
   27DOPE   C29 3408   6.340   7.808  17.706
   27DOPE   H9R 3409   6.353   7.754  17.988
   27DOPE  C210 3410   6.436   7.797  17.421
   27DOPE  H10R 3411   6.524   7.735  17.481
   27DOPE  C211 3412   6.433   7.873  17.031
   27DOPE  H11R 3413   6.436   7.981  17.112
   27DOPE  H11S 3414   6.336   7.856  16.884
   27DOPE  C212 3415   6.544   7.852  16.716
   27DOPE  H12R 3416   6.642   7.837  16.872
   27DOPE  H12S 3417   6.557   7.945  16.536
   27DOPE  C213 3418   6.524   7.731  16.437
   27DOPE  H13R 3419   6.535   7.651  16.659
   27DOPE  H13S 3420   6.604   7.724  16.206
   27DOPE  C214 3421   6.390   7.685  16.257
   27DOPE  H14R 3422   6.389   7.696  15.927
   27DOPE  H14S 3423   6.313   7.751  16.389
   27DOPE  C215 3424   6.342   7.541  16.374
   27DOPE  H15R 3425   6.248   7.516  16.218
   27DOPE  H15S 3426   6.321   7.548  16.701
   27DOPE  C216 3427   6.430   7.416  16.314
   27DOPE  H16R 3428   6.384   7.334  16.494
   27DOPE  H16S 3429   6.525   7.432  16.464
   27DOPE  C217 3430   6.457   7.363  15.891
   27DOPE  H17R 3431   6.536   7.284  15.933
   27DOPE  H17S 3432   6.503   7.442  15.702
   27DOPE  C218 3433   6.339   7.297  15.666
   27DOPE  H18R 3434   6.263   7.373  15.582
   27DOPE  H18S 3435   6.291   7.218  15.849
   27DOPE  H18T 3436   6.376   7.250  15.387
   27DOPE   C33 3437   6.539   7.643  19.110
   27DOPE   H3X 3438   6.600   7.551  19.065
   27DOPE   H3Y 3439   6.611   7.728  19.116
   27DOPE   C34 3440   6.445   7.652  18.744
   27DOPE   H4X 3441   6.378   7.740  18.774
   27DOPE   H4Y 3442   6.508   7.668  18.471
   27DOPE   C35 3443   6.363   7.524  18.684
   27DOPE   H5X 3444   6.312   7.493  18.966
   27DOPE   H5Y 3445   6.433   7.442  18.600
   27DOPE   C36 3446   6.254   7.533  18.363
   27DOPE   H6X 3447   6.296   7.573  18.081
   27DOPE   H6Y 3448   6.173   7.602  18.459
   27DOPE   C37 3449   6.197   7.395  18.258
   27DOPE   H7X 3450   6.282   7.324  18.252
   27DOPE   H7Y 3451   6.128   7.361  18.498
   27DOPE   C38 3452   6.129   7.394  17.844
   27DOPE   H8X 3453   6.088   7.292  17.784
   27DOPE   H8Y 3454   6.207   7.411  17.613
   27DOPE   C39 3455   6.021   7.498  17.829
   27DOPE   H9X 3456   5.958   7.503  18.099
   27DOPE  C310 3457   5.995   7.584  17.529
   27DOPE  H10X 3458   5.914   7.657  17.571
   27DOPE  C311 3459   6.067   7.598  17.130
   27DOPE  H11X 3460   6.122   7.694  17.112
   27DOPE  H11Y 3461   6.142   7.518  17.082
   27DOPE  C312 3462   5.963   7.595  16.788
   27DOPE  H12X 3463   5.866   7.641  16.881
   27DOPE  H12Y 3464   5.943   7.488  16.719
   27DOPE  C313 3465   6.007   7.667  16.401
   27DOPE  H13X 3466   6.111   7.642  16.338
   27DOPE  H13Y 3467   5.945   7.629  16.149
   27DOPE  C314 3468   5.999   7.820  16.404
   27DOPE  H14X 3469   6.077   7.859  16.608
   27DOPE  H14Y 3470   5.900   7.853  16.521
   27DOPE  C315 3471   6.021   7.876  15.978
   27DOPE  H15X 3472   5.993   7.984  15.975
   27DOPE  H15Y 3473   5.954   7.824  15.762
   27DOPE  C316 3474   6.167   7.862  15.846
   27DOPE  H16X 3475   6.188   7.755  15.783
   27DOPE  H16Y 3476   6.232   7.896  16.098
   27DOPE  C317 3477   6.216   7.947  15.495
   27DOPE  H17X 3478   6.237   8.050  15.606
   27DOPE  H17Y 3479   6.313   7.902  15.405
   27DOPE  C318 3480   6.122   7.954  15.135
   27DOPE  H18X 3481   6.024   7.994  15.231
   27DOPE  H18Y 3482   6.163   8.023  14.904
   27DOPE  H18Z 3483   6.107   7.854  15.000
   28DOPE     N 3484   7.514   6.968  21.240
   28DOPE   HN1 3485   7.529   6.944  20.931
   28DOPE   HN2 3486   7.415   6.997  21.276
   28DOPE   HN3 3487   7.580   7.041  21.330
   28DOPE   C12 3488   7.537   6.832  21.429
   28DOPE  H12A 3489   7.552   6.847  21.753
   28DOPE  H12B 3490   7.630   6.791  21.297
   28DOPE   C11 3491   7.419   6.736  21.336
   28DOPE  H11A 3492   7.341   6.754  21.570
   28DOPE  H11B 3493   7.453   6.631  21.372
   28DOPE     P 3494   7.439   6.740  20.553
   28DOPE   O13 3495   7.552   6.837  20.565
   28DOPE   O14 3496   7.344   6.752  20.220
   28DOPE   O11 3497   7.492   6.592  20.604
   28DOPE   O12 3498   7.356   6.757  20.955
   28DOPE    C1 3499   7.405   6.483  20.517
   28DOPE    HA 3500   7.296   6.511  20.505
   28DOPE    HB 3501   7.418   6.407  20.751
   28DOPE    C2 3502   7.447   6.419  20.118
   28DOPE    HS 3503   7.554   6.389  20.166
   28DOPE   O21 3504   7.433   6.521  19.818
   28DOPE   C21 3505   7.534   6.525  19.569
   28DOPE   O22 3506   7.612   6.432  19.518
   28DOPE   C22 3507   7.544   6.662  19.374
   28DOPE   H2R 3508   7.651   6.686  19.344
   28DOPE   H2S 3509   7.497   6.740  19.563
   28DOPE    C3 3510   7.365   6.291  20.010
   28DOPE    HX 3511   7.320   6.249  20.289
   28DOPE    HY 3512   7.433   6.213  19.887
   28DOPE   O31 3513   7.259   6.325  19.740
   28DOPE   C31 3514   7.292   6.324  19.356
   28DOPE   O32 3515   7.383   6.262  19.206
   28DOPE   C32 3516   7.189   6.414  19.149
   28DOPE   H2X 3517   7.090   6.392  19.284
   28DOPE   H2Y 3518   7.215   6.519  19.224
   28DOPE   C23 3519   7.485   6.655  18.954
   28DOPE   H3R 3520   7.375   6.650  18.978
   28DOPE   H3S 3521   7.522   6.563  18.804
   28DOPE   C24 3522   7.526   6.772  18.687
   28DOPE   H4R 3523   7.635   6.763  18.624
   28DOPE   H4S 3524   7.508   6.869  18.846
   28DOPE   C25 3525   7.443   6.763  18.309
   28DOPE   H5R 3526   7.336   6.786  18.381
   28DOPE   H5S 3527   7.446   6.657  18.216
   28DOPE   C26 3528   7.489   6.841  17.943
   28DOPE   H6R 3529   7.586   6.802  17.832
   28DOPE   H6S 3530   7.504   6.947  18.018
   28DOPE   C27 3531   7.383   6.828  17.613
   28DOPE   H7R 3532   7.289   6.875  17.718
   28DOPE   H7S 3533   7.360   6.720  17.577
   28DOPE   C28 3534   7.427   6.893  17.214
   28DOPE   H8R 3535   7.512   6.961  17.277
   28DOPE   H8S 3536   7.341   6.955  17.106
   28DOPE   C29 3537   7.468   6.793  16.902
   28DOPE   H9R 3538   7.542   6.720  17.007
   28DOPE  C210 3539   7.440   6.797  16.512
   28DOPE  H10R 3540   7.463   6.710  16.323
   28DOPE  C211 3541   7.362   6.904  16.305
   28DOPE  H11R 3542   7.400   6.916  15.993
   28DOPE  H11S 3543   7.385   6.997  16.467
   28DOPE  C212 3544   7.210   6.891  16.290
   28DOPE  H12R 3545   7.164   6.992  16.251
   28DOPE  H12S 3546   7.172   6.848  16.575
   28DOPE  C213 3547   7.170   6.806  15.933
   28DOPE  H13R 3548   7.228   6.711  15.942
   28DOPE  H13S 3549   7.198   6.859  15.648
   28DOPE  C214 3550   7.022   6.773  15.924
   28DOPE  H14R 3551   6.962   6.865  15.969
   28DOPE  H14S 3552   6.999   6.703  16.176
   28DOPE  C215 3553   6.982   6.710  15.528
   28DOPE  H15R 3554   6.972   6.790  15.297
   28DOPE  H15S 3555   6.881   6.667  15.579
   28DOPE  C216 3556   7.073   6.597  15.369
   28DOPE  H16R 3557   7.005   6.522  15.225
   28DOPE  H16S 3558   7.122   6.547  15.627
   28DOPE  C217 3559   7.177   6.631  15.045
   28DOPE  H17R 3560   7.233   6.540  14.970
   28DOPE  H17S 3561   7.254   6.701  15.162
   28DOPE  C218 3562   7.120   6.680  14.646
   28DOPE  H18R 3563   7.055   6.602  14.508
   28DOPE  H18S 3564   7.200   6.706  14.433
   28DOPE  H18T 3565   7.059   6.770  14.700
   28DOPE   C33 3566   7.185   6.390  18.693
   28DOPE   H3X 3567   7.100   6.449  18.567
   28DOPE   H3Y 3568   7.165   6.283  18.630
   28DOPE   C34 3569   7.312   6.434  18.477
   28DOPE   H4X 3570   7.315   6.543  18.504
   28DOPE   H4Y 3571   7.404   6.390  18.615
   28DOPE   C35 3572   7.308   6.398  18.033
   28DOPE   H5X 3573   7.226   6.458  17.898
   28DOPE   H5Y 3574   7.282   6.290  18.015
   28DOPE   C36 3575   7.438   6.419  17.802
   28DOPE   H6X 3576   7.520   6.363  17.949
   28DOPE   H6Y 3577   7.470   6.525  17.799
   28DOPE   C37 3578   7.422   6.375  17.364
   28DOPE   H7X 3579   7.522   6.351  17.241
   28DOPE   H7Y 3580   7.356   6.286  17.340
   28DOPE   C38 3581   7.369   6.492  17.118
   28DOPE   H8X 3582   7.460   6.553  17.079
   28DOPE   H8Y 3583   7.298   6.549  17.307
   28DOPE   C39 3584   7.305   6.471  16.719
   28DOPE   H9X 3585   7.205   6.517  16.701
   28DOPE  C310 3586   7.349   6.411  16.386
   28DOPE  H10X 3587   7.283   6.425  16.131
   28DOPE  C311 3588   7.477   6.342  16.269
   28DOPE  H11X 3589   7.559   6.366  16.479
   28DOPE  H11Y 3590   7.463   6.231  16.269
   28DOPE  C312 3591   7.513   6.385  15.834
   28DOPE  H12X 3592   7.441   6.342  15.615
   28DOPE  H12Y 3593   7.612   6.343  15.756
   28DOPE  C313 3594   7.514   6.538  15.798
   28DOPE  H13X 3595   7.408   6.575  15.813
   28DOPE  H13Y 3596   7.570   6.576  16.065
   28DOPE  C314 3597   7.575   6.606  15.429
   28DOPE  H14X 3598   7.686   6.605  15.453
   28DOPE  H14Y 3599   7.543   6.713  15.435
   28DOPE  C315 3600   7.535   6.546  15.027
   28DOPE  H15X 3601   7.427   6.527  15.021
   28DOPE  H15Y 3602   7.585   6.447  14.985
   28DOPE  C316 3603   7.575   6.640  14.682
   28DOPE  H16X 3604   7.680   6.671  14.733
   28DOPE  H16Y 3605   7.512   6.731  14.691
   28DOPE  C317 3606   7.566   6.573  14.268
   28DOPE  H17X 3607   7.616   6.640  14.046
   28DOPE  H17Y 3608   7.624   6.478  14.280
   28DOPE  C318 3609   7.424   6.545  14.124
   28DOPE  H18X 3610   7.369   6.483  14.346
   28DOPE  H18Y 3611   7.369   6.640  14.076
   28DOPE  H18Z 3612   7.425   6.490  13.833
   29DOPE     N 3613   7.038   0.819  20.928
   29DOPE   HN1 3614   7.029   0.919  21.030
   29DOPE   HN2 3615   7.022   0.819  20.616
   29DOPE   HN3 3616   6.960   0.772  21.081
   29DOPE   C12 3617   7.177   0.773  21.027
   29DOPE  H12A 3618   7.191   0.675  20.874
   29DOPE  H12B 3619   7.180   0.759  21.357
   29DOPE   C11 3620   7.285   0.875  20.895
   29DOPE  H11A 3621   7.253   0.975  21.003
   29DOPE  H11B 3622   7.290   0.877  20.559
   29DOPE     P 3623   7.550   0.851  20.841
   29DOPE   O13 3624   7.659   0.823  21.132
   29DOPE   O14 3625   7.565   0.967  20.574
   29DOPE   O11 3626   7.518   0.724  20.574
   29DOPE   O12 3627   7.413   0.851  21.075
   29DOPE    C1 3628   7.609   0.619  20.499
   29DOPE    HA 3629   7.558   0.524  20.571
   29DOPE    HB 3630   7.699   0.624  20.697
   29DOPE    C2 3631   7.656   0.612  20.049
   29DOPE    HS 3632   7.734   0.533  20.031
   29DOPE   O21 3633   7.709   0.736  19.902
   29DOPE   C21 3634   7.822   0.778  20.067
   29DOPE   O22 3635   7.887   0.718  20.319
   29DOPE   C22 3636   7.871   0.907  19.878
   29DOPE   H2R 3637   7.948   0.890  19.644
   29DOPE   H2S 3638   7.918   0.969  20.115
   29DOPE    C3 3639   7.539   0.567  19.764
   29DOPE    HX 3640   7.482   0.491  19.938
   29DOPE    HY 3641   7.583   0.516  19.497
   29DOPE   O31 3642   7.447   0.671  19.659
   29DOPE   C31 3643   7.442   0.719  19.290
   29DOPE   O32 3644   7.504   0.676  18.999
   29DOPE   C32 3645   7.349   0.841  19.296
   29DOPE   H2X 3646   7.296   0.836  19.590
   29DOPE   H2Y 3647   7.411   0.933  19.299
   29DOPE   C23 3648   7.764   0.984  19.653
   29DOPE   H3R 3649   7.804   1.087  19.602
   29DOPE   H3S 3650   7.670   0.994  19.824
   29DOPE   C24 3651   7.743   0.928  19.236
   29DOPE   H4R 3652   7.681   0.836  19.251
   29DOPE   H4S 3653   7.838   0.901  19.086
   29DOPE   C25 3654   7.674   1.037  19.002
   29DOPE   H5R 3655   7.746   1.118  18.930
   29DOPE   H5S 3656   7.593   1.077  19.194
   29DOPE   C26 3657   7.614   0.980  18.630
   29DOPE   H6R 3658   7.536   1.050  18.516
   29DOPE   H6S 3659   7.562   0.886  18.711
   29DOPE   C27 3660   7.717   0.952  18.306
   29DOPE   H7R 3661   7.791   0.876  18.408
   29DOPE   H7S 3662   7.773   1.045  18.234
   29DOPE   C28 3663   7.642   0.904  17.943
   29DOPE   H8R 3664   7.706   0.915  17.673
   29DOPE   H8S 3665   7.562   0.979  17.898
   29DOPE   C29 3666   7.587   0.765  18.015
   29DOPE   H9R 3667   7.511   0.752  18.252
   29DOPE  C210 3668   7.633   0.658  17.829
   29DOPE  H10R 3669   7.597   0.557  17.901
   29DOPE  C211 3670   7.743   0.669  17.529
   29DOPE  H11R 3671   7.795   0.571  17.538
   29DOPE  H11S 3672   7.819   0.746  17.613
   29DOPE  C212 3673   7.700   0.695  17.097
   29DOPE  H12R 3674   7.602   0.648  17.019
   29DOPE  H12S 3675   7.781   0.639  16.953
   29DOPE  C213 3676   7.715   0.833  16.905
   29DOPE  H13R 3677   7.819   0.870  16.935
   29DOPE  H13S 3678   7.651   0.907  17.058
   29DOPE  C214 3679   7.674   0.830  16.458
   29DOPE  H14R 3680   7.611   0.919  16.407
   29DOPE  H14S 3681   7.609   0.741  16.407
   29DOPE  C215 3682   7.793   0.835  16.167
   29DOPE  H15R 3683   7.880   0.785  16.305
   29DOPE  H15S 3684   7.821   0.942  16.125
   29DOPE  C216 3685   7.771   0.771  15.753
   29DOPE  H16R 3686   7.745   0.851  15.537
   29DOPE  H16S 3687   7.683   0.703  15.768
   29DOPE  C217 3688   7.892   0.693  15.585
   29DOPE  H17R 3689   7.934   0.622  15.807
   29DOPE  H17S 3690   7.978   0.761  15.537
   29DOPE  C218 3691   7.861   0.612  15.204
   29DOPE  H18R 3692   7.935   0.530  15.168
   29DOPE  H18S 3693   7.865   0.674  14.931
   29DOPE  H18T 3694   7.760   0.569  15.207
   29DOPE   C33 3695   7.242   0.848  18.960
   29DOPE   H3X 3696   7.144   0.880  19.086
   29DOPE   H3Y 3697   7.229   0.746  18.834
   29DOPE   C34 3698   7.277   0.943  18.612
   29DOPE   H4X 3699   7.292   1.046  18.732
   29DOPE   H4Y 3700   7.373   0.906  18.492
   29DOPE   C35 3701   7.175   0.937  18.270
   29DOPE   H5X 3702   7.076   0.976  18.375
   29DOPE   H5Y 3703   7.162   0.830  18.198
   29DOPE   C36 3704   7.210   1.003  17.862
   29DOPE   H6X 3705   7.231   1.109  17.901
   29DOPE   H6Y 3706   7.114   0.998  17.703
   29DOPE   C37 3707   7.313   0.924  17.610
   29DOPE   H7X 3708   7.390   0.903  17.835
   29DOPE   H7Y 3709   7.270   0.824  17.553
   29DOPE   C38 3710   7.390   0.970  17.211
   29DOPE   H8X 3711   7.397   0.878  17.025
   29DOPE   H8Y 3712   7.493   0.975  17.322
   29DOPE   C39 3713   7.381   1.093  16.938
   29DOPE   H9X 3714   7.385   1.183  17.115
   29DOPE  C310 3715   7.338   1.115  16.554
   29DOPE  H10X 3716   7.359   1.215  16.425
   29DOPE  C311 3717   7.280   1.015  16.263
   29DOPE  H11X 3718   7.319   0.916  16.350
   29DOPE  H11Y 3719   7.169   1.015  16.296
   29DOPE  C312 3720   7.309   1.010  15.810
   29DOPE  H12X 3721   7.240   1.074  15.633
   29DOPE  H12Y 3722   7.294   0.905  15.708
   29DOPE  C313 3723   7.454   1.046  15.735
   29DOPE  H13X 3724   7.454   1.156  15.747
   29DOPE  H13Y 3725   7.519   1.012  15.981
   29DOPE  C314 3726   7.512   0.995  15.342
   29DOPE  H14X 3727   7.523   0.884  15.357
   29DOPE  H14Y 3728   7.613   1.038  15.312
   29DOPE  C315 3729   7.426   1.031  14.979
   29DOPE  H15X 3730   7.333   0.970  14.991
   29DOPE  H15Y 3731   7.479   1.004  14.697
   29DOPE  C316 3732   7.385   1.179  14.970
   29DOPE  H16X 3733   7.337   1.210  15.255
   29DOPE  H16Y 3734   7.311   1.196  14.733
   29DOPE  C317 3735   7.500   1.274  14.892
   29DOPE  H17X 3736   7.583   1.254  15.096
   29DOPE  H17Y 3737   7.542   1.246  14.598
   29DOPE  C318 3738   7.456   1.421  14.922
   29DOPE  H18X 3739   7.379   1.444  14.691
   29DOPE  H18Y 3740   7.412   1.439  15.222
   29DOPE  H18Z 3741   7.542   1.490  14.880
   30DOPE     N 3742   0.659   7.321  21.351
   30DOPE   HN1 3743   0.752   7.334  21.225
   30DOPE   HN2 3744   0.660   7.245  21.567
   30DOPE   HN3 3745   0.602   7.286  21.105
   30DOPE   C12 3746   0.592   7.451  21.465
   30DOPE  H12A 3747   0.669   7.523  21.558
   30DOPE  H12B 3748   0.523   7.431  21.720
   30DOPE   C11 3749   0.510   7.502  21.105
   30DOPE  H11A 3750   0.573   7.520  20.835
   30DOPE  H11B 3751   0.466   7.600  21.192
   30DOPE     P 3752   0.417   7.280  20.748
   30DOPE   O13 3753   0.365   7.166  20.982
   30DOPE   O14 3754   0.558   7.272  20.622
   30DOPE   O11 3755   0.314   7.317  20.409
   30DOPE   O12 3756   0.406   7.408  21.024
   30DOPE    C1 3757   0.183   7.342  20.580
   30DOPE    HA 3758   0.185   7.407  20.856
   30DOPE    HB 3759   0.134   7.246  20.661
   30DOPE    C2 3760   0.090   7.422  20.304
   30DOPE    HS 3761  -0.012   7.413  20.436
   30DOPE   O21 3762   0.094   7.369  19.902
   30DOPE   C21 3763   0.038   7.251  19.869
   30DOPE   O22 3764  -0.024   7.191  20.130
   30DOPE   C22 3765   0.045   7.211  19.425
   30DOPE   H2R 3766  -0.007   7.291  19.257
   30DOPE   H2S 3767  -0.013   7.117  19.389
   30DOPE    C3 3768   0.127   7.573  20.304
   30DOPE    HX 3769   0.106   7.611  20.613
   30DOPE    HY 3770   0.061   7.631  20.100
   30DOPE   O31 3771   0.268   7.592  20.223
   30DOPE   C31 3772   0.297   7.578  19.836
   30DOPE   O32 3773   0.219   7.593  19.557
   30DOPE   C32 3774   0.445   7.546  19.788
   30DOPE   H2X 3775   0.500   7.611  20.001
   30DOPE   H2Y 3776   0.460   7.440  19.872
   30DOPE   C23 3777   0.184   7.195  19.233
   30DOPE   H3R 3778   0.243   7.119  19.401
   30DOPE   H3S 3779   0.240   7.291  19.245
   30DOPE   C24 3780   0.168   7.150  18.795
   30DOPE   H4R 3781   0.131   7.237  18.615
   30DOPE   H4S 3782   0.091   7.070  18.780
   30DOPE   C25 3783   0.297   7.097  18.603
   30DOPE   H5R 3784   0.343   7.020  18.804
   30DOPE   H5S 3785   0.369   7.181  18.588
   30DOPE   C26 3786   0.279   7.034  18.183
   30DOPE   H6R 3787   0.229   6.935  18.216
   30DOPE   H6S 3788   0.380   7.017  18.051
   30DOPE   C27 3789   0.195   7.117  17.889
   30DOPE   H7R 3790   0.212   7.225  17.955
   30DOPE   H7S 3791   0.088   7.096  17.943
   30DOPE   C28 3792   0.226   7.093  17.439
   30DOPE   H8R 3793   0.323   7.143  17.376
   30DOPE   H8S 3794   0.147   7.147  17.262
   30DOPE   C29 3795   0.236   6.951  17.301
   30DOPE   H9R 3796   0.177   6.878  17.475
   30DOPE  C210 3797   0.313   6.907  16.992
   30DOPE  H10R 3798   0.311   6.801  16.914
   30DOPE  C211 3799   0.403   6.991  16.728
   30DOPE  H11R 3800   0.365   7.095  16.698
   30DOPE  H11S 3801   0.400   6.948  16.422
   30DOPE  C212 3802   0.550   6.998  16.866
   30DOPE  H12R 3803   0.579   6.904  17.022
   30DOPE  H12S 3804   0.556   7.080  17.091
   30DOPE  C213 3805   0.658   7.023  16.539
   30DOPE  H13R 3806   0.676   6.934  16.350
   30DOPE  H13S 3807   0.752   7.040  16.707
   30DOPE  C214 3808   0.641   7.144  16.257
   30DOPE  H14R 3809   0.741   7.168  16.128
   30DOPE  H14S 3810   0.610   7.230  16.449
   30DOPE  C215 3811   0.541   7.135  15.906
   30DOPE  H15R 3812   0.540   7.238  15.780
   30DOPE  H15S 3813   0.440   7.112  16.026
   30DOPE  C216 3814   0.564   7.045  15.537
   30DOPE  H16R 3815   0.500   7.086  15.291
   30DOPE  H16S 3816   0.524   6.945  15.591
   30DOPE  C217 3817   0.704   7.026  15.369
   30DOPE  H17R 3818   0.768   6.976  15.597
   30DOPE  H17S 3819   0.750   7.125  15.294
   30DOPE  C218 3820   0.698   6.939  14.991
   30DOPE  H18R 3821   0.656   6.838  15.060
   30DOPE  H18S 3822   0.798   6.926  14.853
   30DOPE  H18T 3823   0.630   6.985  14.766
   30DOPE   C33 3824   0.493   7.574  19.356
   30DOPE   H3X 3825   0.588   7.633  19.377
   30DOPE   H3Y 3826   0.420   7.635  19.185
   30DOPE   C34 3827   0.522   7.452  19.092
   30DOPE   H4X 3828   0.607   7.395  19.224
   30DOPE   H4Y 3829   0.434   7.385  19.074
   30DOPE   C35 3830   0.557   7.501  18.669
   30DOPE   H5X 3831   0.592   7.607  18.687
   30DOPE   H5Y 3832   0.466   7.502  18.483
   30DOPE   C36 3833   0.672   7.426  18.468
   30DOPE   H6X 3834   0.754   7.438  18.687
   30DOPE   H6Y 3835   0.705   7.478  18.192
   30DOPE   C37 3836   0.655   7.275  18.396
   30DOPE   H7X 3837   0.757   7.231  18.363
   30DOPE   H7Y 3838   0.610   7.227  18.666
   30DOPE   C38 3839   0.574   7.236  18.021
   30DOPE   H8X 3840   0.467   7.251  18.084
   30DOPE   H8Y 3841   0.588   7.127  17.970
   30DOPE   C39 3842   0.614   7.312  17.649
   30DOPE   H9X 3843   0.699   7.270  17.481
   30DOPE  C310 3844   0.555   7.425  17.517
   30DOPE  H10X 3845   0.593   7.473  17.244
   30DOPE  C311 3846   0.440   7.498  17.715
   30DOPE  H11X 3847   0.390   7.438  17.952
   30DOPE  H11Y 3848   0.478   7.588  17.868
   30DOPE  C312 3849   0.333   7.538  17.409
   30DOPE  H12X 3850   0.381   7.575  17.130
   30DOPE  H12Y 3851   0.268   7.619  17.532
   30DOPE  C313 3852   0.245   7.418  17.313
   30DOPE  H13X 3853   0.312   7.332  17.256
   30DOPE  H13Y 3854   0.185   7.395  17.583
   30DOPE  C314 3855   0.154   7.433  16.950
   30DOPE  H14X 3856   0.088   7.522  16.986
   30DOPE  H14Y 3857   0.089   7.343  16.935
   30DOPE  C315 3858   0.231   7.442  16.557
   30DOPE  H15X 3859   0.298   7.353  16.533
   30DOPE  H15Y 3860   0.294   7.533  16.551
   30DOPE  C316 3861   0.134   7.445  16.203
   30DOPE  H16X 3862   0.065   7.532  16.233
   30DOPE  H16Y 3863   0.074   7.352  16.218
   30DOPE  C317 3864   0.201   7.447  15.792
   30DOPE  H17X 3865   0.125   7.463  15.555
   30DOPE  H17Y 3866   0.273   7.532  15.780
   30DOPE  C318 3867   0.274   7.316  15.720
   30DOPE  H18X 3868   0.366   7.320  15.903
   30DOPE  H18Y 3869   0.214   7.229  15.825
   30DOPE  H18Z 3870   0.301   7.301  15.402
   31DOPE     N 3871   3.181   3.209   8.478
   31DOPE   HN1 3872   3.164   3.127   8.295
   31DOPE   HN2 3873   3.088   3.248   8.562
   31DOPE   HN3 3874   3.239   3.282   8.340
   31DOPE   C12 3875   3.250   3.165   8.859
   31DOPE  H12A 3876   3.328   3.240   8.931
   31DOPE  H12B 3877   3.298   3.068   8.799
   31DOPE   C11 3878   3.147   3.155   9.195
   31DOPE  H11A 3879   3.105   3.256   9.252
   31DOPE  H11B 3880   3.198   3.122   9.477
   31DOPE     P 3881   2.896   3.075   9.237
   31DOPE   O13 3882   2.810   3.011   8.931
   31DOPE   O14 3883   2.871   3.218   9.327
   31DOPE   O11 3884   2.893   2.992   9.627
   31DOPE   O12 3885   3.045   3.063   9.084
   31DOPE    C1 3886   3.000   2.905   9.720
   31DOPE    HA 3887   3.101   2.941   9.630
   31DOPE    HB 3888   2.985   2.806   9.579
   31DOPE    C2 3889   3.009   2.895  10.176
   31DOPE    HS 3890   3.074   2.811  10.245
   31DOPE   O21 3891   2.883   2.871  10.356
   31DOPE   C21 3892   2.825   2.761  10.245
   31DOPE   O22 3893   2.873   2.669  10.053
   31DOPE   C22 3894   2.696   2.760  10.479
   31DOPE   H2R 3895   2.653   2.660  10.416
   31DOPE   H2S 3896   2.625   2.837  10.371
   31DOPE    C3 3897   3.067   3.022  10.380
   31DOPE    HX 3898   3.168   3.044  10.257
   31DOPE    HY 3899   3.074   2.991  10.698
   31DOPE   O31 3900   2.981   3.138  10.353
   31DOPE   C31 3901   3.014   3.223  10.641
   31DOPE   O32 3902   3.122   3.222  10.815
   31DOPE   C32 3903   2.892   3.303  10.764
   31DOPE   H2X 3904   2.837   3.338  10.494
   31DOPE   H2Y 3905   2.825   3.236  10.938
   31DOPE   C23 3906   2.727   2.772  10.932
   31DOPE   H3R 3907   2.818   2.712  10.989
   31DOPE   H3S 3908   2.645   2.721  11.097
   31DOPE   C24 3909   2.743   2.910  11.136
   31DOPE   H4R 3910   2.688   2.989  10.968
   31DOPE   H4S 3911   2.851   2.937  11.142
   31DOPE   C25 3912   2.688   2.899  11.562
   31DOPE   H5R 3913   2.727   2.807  11.703
   31DOPE   H5S 3914   2.578   2.886  11.538
   31DOPE   C26 3915   2.723   3.004  11.877
   31DOPE   H6R 3916   2.693   3.105  11.778
   31DOPE   H6S 3917   2.833   3.007  11.922
   31DOPE   C27 3918   2.657   2.964  12.279
   31DOPE   H7R 3919   2.687   3.038  12.513
   31DOPE   H7S 3920   2.698   2.865  12.369
   31DOPE   C28 3921   2.504   2.948  12.273
   31DOPE   H8R 3922   2.464   2.934  12.582
   31DOPE   H8S 3923   2.472   2.860  12.093
   31DOPE   C29 3924   2.460   3.076  12.087
   31DOPE   H9R 3925   2.447   3.077  11.757
   31DOPE  C210 3926   2.443   3.189  12.294
   31DOPE  H10R 3927   2.425   3.280  12.117
   31DOPE  C211 3928   2.461   3.212  12.738
   31DOPE  H11R 3929   2.511   3.127  12.894
   31DOPE  H11S 3930   2.360   3.222  12.873
   31DOPE  C212 3931   2.540   3.341  12.819
   31DOPE  H12R 3932   2.538   3.410  12.555
   31DOPE  H12S 3933   2.644   3.312  12.879
   31DOPE  C213 3934   2.493   3.424  13.176
   31DOPE  H13R 3935   2.393   3.467  13.107
   31DOPE  H13S 3936   2.563   3.509  13.224
   31DOPE  C214 3937   2.482   3.342  13.557
   31DOPE  H14R 3938   2.401   3.267  13.518
   31DOPE  H14S 3939   2.451   3.409  13.809
   31DOPE  C215 3940   2.608   3.266  13.683
   31DOPE  H15R 3941   2.698   3.330  13.689
   31DOPE  H15S 3942   2.626   3.181  13.476
   31DOPE  C216 3943   2.578   3.214  14.103
   31DOPE  H16R 3944   2.475   3.173  14.079
   31DOPE  H16S 3945   2.577   3.296  14.322
   31DOPE  C217 3946   2.662   3.098  14.247
   31DOPE  H17R 3947   2.770   3.118  14.202
   31DOPE  H17S 3948   2.628   3.014  14.055
   31DOPE  C218 3949   2.633   3.054  14.670
   31DOPE  H18R 3950   2.529   3.015  14.685
   31DOPE  H18S 3951   2.642   3.137  14.889
   31DOPE  H18T 3952   2.702   2.972  14.757
   31DOPE   C33 3953   2.940   3.419  11.022
   31DOPE   H3X 3954   2.998   3.488  10.824
   31DOPE   H3Y 3955   3.008   3.383  11.262
   31DOPE   C34 3956   2.827   3.498  11.211
   31DOPE   H4X 3957   2.864   3.601  11.280
   31DOPE   H4Y 3958   2.749   3.505  10.977
   31DOPE   C35 3959   2.768   3.441  11.601
   31DOPE   H5X 3960   2.725   3.341  11.541
   31DOPE   H5Y 3961   2.685   3.506  11.706
   31DOPE   C36 3962   2.869   3.432  11.949
   31DOPE   H6X 3963   2.912   3.532  12.015
   31DOPE   H6Y 3964   2.952   3.367  11.850
   31DOPE   C37 3965   2.803   3.376  12.327
   31DOPE   H7X 3966   2.742   3.458  12.459
   31DOPE   H7Y 3967   2.733   3.294  12.231
   31DOPE   C38 3968   2.895   3.317  12.657
   31DOPE   H8X 3969   2.836   3.257  12.873
   31DOPE   H8Y 3970   2.941   3.400  12.831
   31DOPE   C39 3971   2.995   3.226  12.465
   31DOPE   H9X 3972   2.962   3.181  12.180
   31DOPE  C310 3973   3.117   3.198  12.603
   31DOPE  H10X 3974   3.185   3.138  12.414
   31DOPE  C311 3975   3.177   3.250  12.984
   31DOPE  H11X 3976   3.250   3.331  12.909
   31DOPE  H11Y 3977   3.103   3.295  13.191
   31DOPE  C312 3978   3.254   3.139  13.203
   31DOPE  H12X 3979   3.338   3.191  13.353
   31DOPE  H12Y 3980   3.300   3.065  12.996
   31DOPE  C313 3981   3.174   3.071  13.536
   31DOPE  H13X 3982   3.114   3.148  13.692
   31DOPE  H13Y 3983   3.103   2.996  13.410
   31DOPE  C314 3984   3.265   3.005  13.848
   31DOPE  H14X 3985   3.357   3.067  13.893
   31DOPE  H14Y 3986   3.297   2.907  13.734
   31DOPE  C315 3987   3.195   2.987  14.253
   31DOPE  H15X 3988   3.112   2.915  14.202
   31DOPE  H15Y 3989   3.148   3.083  14.349
   31DOPE  C316 3990   3.288   2.937  14.583
   31DOPE  H16X 3991   3.306   3.017  14.811
   31DOPE  H16Y 3992   3.388   2.916  14.448
   31DOPE  C317 3993   3.237   2.807  14.775
   31DOPE  H17X 3994   3.232   2.732  14.529
   31DOPE  H17Y 3995   3.312   2.770  14.994
   31DOPE  C318 3996   3.097   2.811  14.967
   31DOPE  H18X 3997   3.026   2.869  14.778
   31DOPE  H18Y 3998   3.056   2.708  14.991
   31DOPE  H18Z 3999   3.097   2.856  15.270
   32DOPE     N 4000   4.661   2.892   9.918
   32DOPE   HN1 4001   4.664   2.861  10.215
   32DOPE   HN2 4002   4.683   2.814   9.723
   32DOPE   HN3 4003   4.734   2.964   9.852
   32DOPE   C12 4004   4.530   2.949   9.771
   32DOPE  H12A 4005   4.512   3.044   9.930
   32DOPE  H12B 4006   4.449   2.877   9.834
   32DOPE   C11 4007   4.545   2.976   9.321
   32DOPE  H11A 4008   4.459   3.036   9.207
   32DOPE  H11B 4009   4.549   2.880   9.147
   32DOPE     P 4010   4.706   3.134   8.901
   32DOPE   O13 4011   4.630   3.089   8.547
   32DOPE   O14 4012   4.853   3.129   8.895
   32DOPE   O11 4013   4.655   3.275   9.048
   32DOPE   O12 4014   4.669   3.043   9.270
   32DOPE    C1 4015   4.713   3.395   8.886
   32DOPE    HA 4016   4.639   3.446   8.691
   32DOPE    HB 4017   4.799   3.373   8.685
   32DOPE    C2 4018   4.765   3.496   9.207
   32DOPE    HS 4019   4.807   3.582   9.033
   32DOPE   O21 4020   4.864   3.435   9.462
   32DOPE   C21 4021   4.980   3.407   9.300
   32DOPE   O22 4022   5.019   3.442   8.970
   32DOPE   C22 4023   5.059   3.322   9.594
   32DOPE   H2R 4024   5.161   3.306   9.471
   32DOPE   H2S 4025   5.008   3.224   9.606
   32DOPE    C3 4026   4.659   3.561   9.492
   32DOPE    HX 4027   4.582   3.609   9.303
   32DOPE    HY 4028   4.710   3.643   9.663
   32DOPE   O31 4029   4.595   3.467   9.753
   32DOPE   C31 4030   4.654   3.443  10.104
   32DOPE   O32 4031   4.746   3.505  10.248
   32DOPE   C32 4032   4.583   3.320  10.290
   32DOPE   H2X 4033   4.475   3.332  10.230
   32DOPE   H2Y 4034   4.618   3.230  10.125
   32DOPE   C23 4035   5.065   3.388  10.014
   32DOPE   H3R 4036   4.965   3.423  10.113
   32DOPE   H3S 4037   5.130   3.478   9.990
   32DOPE   C24 4038   5.121   3.296  10.341
   32DOPE   H4R 4039   5.139   3.358  10.614
   32DOPE   H4S 4040   5.217   3.255  10.224
   32DOPE   C25 4041   5.036   3.177  10.470
   32DOPE   H5R 4042   5.101   3.103  10.629
   32DOPE   H5S 4043   4.997   3.128  10.194
   32DOPE   C26 4044   4.918   3.214  10.746
   32DOPE   H6R 4045   4.830   3.183  10.569
   32DOPE   H6S 4046   4.911   3.324  10.788
   32DOPE   C27 4047   4.914   3.145  11.160
   32DOPE   H7R 4048   4.976   3.053  11.157
   32DOPE   H7S 4049   4.809   3.112  11.214
   32DOPE   C28 4050   4.953   3.238  11.511
   32DOPE   H8R 4051   4.893   3.331  11.484
   32DOPE   H8S 4052   5.059   3.268  11.475
   32DOPE   C29 4053   4.932   3.179  11.922
   32DOPE   H9R 4054   4.888   3.079  11.934
   32DOPE  C210 4055   4.962   3.242  12.270
   32DOPE  H10R 4056   4.940   3.192  12.555
   32DOPE  C211 4057   5.022   3.380  12.309
   32DOPE  H11R 4058   5.066   3.415  12.021
   32DOPE  H11S 4059   5.106   3.378  12.528
   32DOPE  C212 4060   4.919   3.486  12.444
   32DOPE  H12R 4061   4.838   3.493  12.213
   32DOPE  H12S 4062   4.969   3.585  12.459
   32DOPE  C213 4063   4.854   3.458  12.852
   32DOPE  H13R 4064   4.800   3.360  12.846
   32DOPE  H13S 4065   4.778   3.537  12.912
   32DOPE  C214 4066   4.954   3.457  13.200
   32DOPE  H14R 4067   5.009   3.554  13.203
   32DOPE  H14S 4068   5.028   3.375  13.164
   32DOPE  C215 4069   4.881   3.439  13.599
   32DOPE  H15R 4070   4.809   3.355  13.578
   32DOPE  H15S 4071   4.822   3.532  13.644
   32DOPE  C216 4072   4.973   3.414  13.956
   32DOPE  H16R 4073   5.031   3.321  13.911
   32DOPE  H16S 4074   4.910   3.400  14.229
   32DOPE  C217 4075   5.069   3.530  14.034
   32DOPE  H17R 4076   5.014   3.627  14.016
   32DOPE  H17S 4077   5.149   3.532  13.800
   32DOPE  C218 4078   5.132   3.515  14.445
   32DOPE  H18R 4079   5.053   3.503  14.676
   32DOPE  H18S 4080   5.192   3.603  14.523
   32DOPE  H18T 4081   5.201   3.428  14.460
   32DOPE   C33 4082   4.604   3.299  10.746
   32DOPE   H3X 4083   4.667   3.381  10.869
   32DOPE   H3Y 4084   4.656   3.203  10.806
   32DOPE   C34 4085   4.475   3.287  10.992
   32DOPE   H4X 4086   4.396   3.342  10.833
   32DOPE   H4Y 4087   4.442   3.182  11.022
   32DOPE   C35 4088   4.493   3.351  11.406
   32DOPE   H5X 4089   4.396   3.374  11.553
   32DOPE   H5Y 4090   4.543   3.447  11.337
   32DOPE   C36 4091   4.579   3.269  11.697
   32DOPE   H6X 4092   4.618   3.333  11.946
   32DOPE   H6Y 4093   4.668   3.231  11.538
   32DOPE   C37 4094   4.499   3.154  11.880
   32DOPE   H7X 4095   4.431   3.195  12.114
   32DOPE   H7Y 4096   4.436   3.110  11.640
   32DOPE   C38 4097   4.588   3.045  12.060
   32DOPE   H8X 4098   4.644   3.088  12.318
   32DOPE   H8Y 4099   4.663   3.016  11.829
   32DOPE   C39 4100   4.506   2.926  12.183
   32DOPE   H9X 4101   4.397   2.935  12.144
   32DOPE  C310 4102   4.558   2.813  12.327
   32DOPE  H10X 4103   4.492   2.729  12.408
   32DOPE  C311 4104   4.705   2.789  12.387
   32DOPE  H11X 4105   4.729   2.687  12.279
   32DOPE  H11Y 4106   4.769   2.859  12.210
   32DOPE  C312 4107   4.747   2.800  12.831
   32DOPE  H12X 4108   4.854   2.770  12.858
   32DOPE  H12Y 4109   4.688   2.729  13.017
   32DOPE  C313 4110   4.740   2.941  13.014
   32DOPE  H13X 4111   4.790   3.014  12.816
   32DOPE  H13Y 4112   4.634   2.971  13.050
   32DOPE  C314 4113   4.810   2.937  13.419
   32DOPE  H14X 4114   4.918   2.913  13.380
   32DOPE  H14Y 4115   4.764   2.851  13.581
   32DOPE  C315 4116   4.799   3.064  13.674
   32DOPE  H15X 4117   4.692   3.095  13.692
   32DOPE  H15Y 4118   4.854   3.146  13.521
   32DOPE  C316 4119   4.854   3.044  14.100
   32DOPE  H16X 4120   4.829   3.135  14.283
   32DOPE  H16Y 4121   4.965   3.037  14.085
   32DOPE  C317 4122   4.798   2.919  14.313
   32DOPE  H17X 4123   4.840   2.828  14.166
   32DOPE  H17Y 4124   4.838   2.918  14.625
   32DOPE  C318 4125   4.645   2.911  14.316
   32DOPE  H18X 4126   4.605   2.896  14.007
   32DOPE  H18Y 4127   4.611   2.826  14.505
   32DOPE  H18Z 4128   4.601   3.005  14.433
   33DOPE     N 4129   3.545   2.194   8.799
   33DOPE   HN1 4130   3.616   2.171   8.577
   33DOPE   HN2 4131   3.506   2.110   8.937
   33DOPE   HN3 4132   3.464   2.247   8.679
   33DOPE   C12 4133   3.601   2.290   9.102
   33DOPE  H12A 4134   3.641   2.377   8.931
   33DOPE  H12B 4135   3.682   2.240   9.273
   33DOPE   C11 4136   3.489   2.344   9.369
   33DOPE  H11A 4137   3.527   2.436   9.525
   33DOPE  H11B 4138   3.466   2.268   9.606
   33DOPE     P 4139   3.239   2.412   9.363
   33DOPE   O13 4140   3.152   2.292   9.348
   33DOPE   O14 4141   3.187   2.535   9.177
   33DOPE   O11 4142   3.297   2.436   9.798
   33DOPE   O12 4143   3.374   2.374   9.132
   33DOPE    C1 4144   3.228   2.395  10.149
   33DOPE    HA 4145   3.301   2.364  10.380
   33DOPE    HB 4146   3.160   2.309  10.092
   33DOPE    C2 4147   3.146   2.513  10.323
   33DOPE    HS 4148   3.086   2.557  10.074
   33DOPE   O21 4149   3.233   2.611  10.497
   33DOPE   C21 4150   3.288   2.705  10.272
   33DOPE   O22 4151   3.278   2.723   9.915
   33DOPE   C22 4152   3.347   2.808  10.560
   33DOPE   H2R 4153   3.357   2.902  10.383
   33DOPE   H2S 4154   3.447   2.776  10.653
   33DOPE    C3 4155   3.045   2.460  10.644
   33DOPE    HX 4156   2.988   2.379  10.491
   33DOPE    HY 4157   2.974   2.542  10.713
   33DOPE   O31 4158   3.110   2.414  11.013
   33DOPE   C31 4159   3.037   2.325  11.223
   33DOPE   O32 4160   2.937   2.270  11.097
   33DOPE   C32 4161   3.088   2.311  11.655
   33DOPE   H2X 4162   3.170   2.237  11.661
   33DOPE   H2Y 4163   3.134   2.408  11.739
   33DOPE   C23 4164   3.254   2.834  10.923
   33DOPE   H3R 4165   3.147   2.810  10.848
   33DOPE   H3S 4166   3.259   2.943  11.001
   33DOPE   C24 4167   3.284   2.756  11.301
   33DOPE   H4R 4168   3.246   2.651  11.277
   33DOPE   H4S 4169   3.228   2.810  11.538
   33DOPE   C25 4170   3.430   2.754  11.436
   33DOPE   H5R 4171   3.468   2.859  11.451
   33DOPE   H5S 4172   3.491   2.697  11.217
   33DOPE   C26 4173   3.442   2.685  11.841
   33DOPE   H6R 4174   3.398   2.584  11.805
   33DOPE   H6S 4175   3.382   2.739  12.072
   33DOPE   C27 4176   3.587   2.671  11.985
   33DOPE   H7R 4177   3.618   2.765  12.138
   33DOPE   H7S 4178   3.652   2.657  11.718
   33DOPE   C28 4179   3.609   2.550  12.261
   33DOPE   H8R 4180   3.709   2.560  12.405
   33DOPE   H8S 4181   3.613   2.458  12.075
   33DOPE   C29 4182   3.496   2.539  12.558
   33DOPE   H9R 4183   3.399   2.511  12.429
   33DOPE  C210 4184   3.502   2.562  12.951
   33DOPE  H10R 4185   3.410   2.553  13.128
   33DOPE  C211 4186   3.625   2.603  13.185
   33DOPE  H11R 4187   3.712   2.626  12.990
   33DOPE  H11S 4188   3.655   2.518  13.374
   33DOPE  C212 4189   3.602   2.728  13.449
   33DOPE  H12R 4190   3.591   2.817  13.251
   33DOPE  H12S 4191   3.693   2.747  13.632
   33DOPE  C213 4192   3.479   2.722  13.725
   33DOPE  H13R 4193   3.391   2.740  13.530
   33DOPE  H13S 4194   3.485   2.806  13.944
   33DOPE  C214 4195   3.450   2.592  13.956
   33DOPE  H14R 4196   3.438   2.506  13.749
   33DOPE  H14S 4197   3.352   2.607  14.103
   33DOPE  C215 4198   3.547   2.554  14.292
   33DOPE  H15R 4199   3.497   2.477  14.484
   33DOPE  H15S 4200   3.566   2.643  14.484
   33DOPE  C216 4201   3.678   2.496  14.136
   33DOPE  H16R 4202   3.730   2.575  13.962
   33DOPE  H16S 4203   3.658   2.411  13.929
   33DOPE  C217 4204   3.774   2.454  14.466
   33DOPE  H17R 4205   3.774   2.538  14.685
   33DOPE  H17S 4206   3.876   2.445  14.340
   33DOPE  C218 4207   3.738   2.323  14.679
   33DOPE  H18R 4208   3.750   2.237  14.472
   33DOPE  H18S 4209   3.634   2.325  14.793
   33DOPE  H18T 4210   3.807   2.304  14.934
   33DOPE   C33 4211   2.973   2.265  11.943
   33DOPE   H3X 4212   2.966   2.154  11.937
   33DOPE   H3Y 4213   2.875   2.303  11.838
   33DOPE   C34 4214   2.983   2.305  12.390
   33DOPE   H4X 4215   2.927   2.398  12.450
   33DOPE   H4Y 4216   2.922   2.234  12.564
   33DOPE   C35 4217   3.127   2.317  12.540
   33DOPE   H5X 4218   3.130   2.379  12.819
   33DOPE   H5Y 4219   3.193   2.370  12.327
   33DOPE   C36 4220   3.184   2.178  12.624
   33DOPE   H6X 4221   3.288   2.189  12.741
   33DOPE   H6Y 4222   3.194   2.123  12.339
   33DOPE   C37 4223   3.096   2.100  12.921
   33DOPE   H7X 4224   2.999   2.072  12.789
   33DOPE   H7Y 4225   3.145   2.001  12.981
   33DOPE   C38 4226   3.071   2.180  13.308
   33DOPE   H8X 4227   3.000   2.127  13.509
   33DOPE   H8Y 4228   3.030   2.281  13.257
   33DOPE   C39 4229   3.211   2.183  13.464
   33DOPE   H9X 4230   3.275   2.270  13.389
   33DOPE  C310 4231   3.257   2.086  13.695
   33DOPE  H10X 4232   3.357   2.093  13.812
   33DOPE  C311 4233   3.184   1.966  13.842
   33DOPE  H11X 4234   3.107   1.933  13.629
   33DOPE  H11Y 4235   3.254   1.882  13.899
   33DOPE  C312 4236   3.120   2.016  14.235
   33DOPE  H12X 4237   3.091   1.930  14.424
   33DOPE  H12Y 4238   3.027   2.070  14.154
   33DOPE  C313 4239   3.210   2.113  14.481
   33DOPE  H13X 4240   3.301   2.059  14.568
   33DOPE  H13Y 4241   3.245   2.202  14.310
   33DOPE  C314 4242   3.148   2.179  14.844
   33DOPE  H14X 4243   3.231   2.232  14.997
   33DOPE  H14Y 4244   3.111   2.098  15.042
   33DOPE  C315 4245   3.039   2.281  14.733
   33DOPE  H15X 4246   2.973   2.305  14.988
   33DOPE  H15Y 4247   2.975   2.236  14.496
   33DOPE  C316 4248   3.093   2.413  14.574
   33DOPE  H16X 4249   3.188   2.398  14.409
   33DOPE  H16Y 4250   3.112   2.483  14.826
   33DOPE  C317 4251   2.990   2.477  14.301
   33DOPE  H17X 4252   2.950   2.401  14.085
   33DOPE  H17Y 4253   2.906   2.508  14.496
   33DOPE  C318 4254   3.047   2.595  14.070
   33DOPE  H18X 4255   3.015   2.690  14.214
   33DOPE  H18Y 4256   3.157   2.592  14.076
   33DOPE  H18Z 4257   3.015   2.592  13.752
   34DOPE     N 4258   2.409   4.332   8.916
   34DOPE   HN1 4259   2.500   4.311   8.784
   34DOPE   HN2 4260   2.339   4.262   8.826
   34DOPE   HN3 4261   2.376   4.427   8.823
   34DOPE   C12 4262   2.413   4.349   9.366
   34DOPE  H12A 4263   2.492   4.424   9.435
   34DOPE  H12B 4264   2.438   4.253   9.507
   34DOPE   C11 4265   2.277   4.403   9.504
   34DOPE  H11A 4266   2.278   4.427   9.831
   34DOPE  H11B 4267   2.202   4.324   9.447
   34DOPE     P 4268   2.100   4.583   9.297
   34DOPE   O13 4269   2.038   4.556   8.904
   34DOPE   O14 4270   2.111   4.724   9.429
   34DOPE   O11 4271   2.022   4.499   9.624
   34DOPE   O12 4272   2.245   4.518   9.276
   34DOPE    C1 4273   1.936   4.565   9.909
   34DOPE    HA 4274   1.845   4.503   9.966
   34DOPE    HB 4275   1.900   4.664   9.801
   34DOPE    C2 4276   2.005   4.590  10.320
   34DOPE    HS 4277   1.951   4.670  10.485
   34DOPE   O21 4278   2.144   4.618  10.263
   34DOPE   C21 4279   2.185   4.735  10.371
   34DOPE   O22 4280   2.117   4.834  10.434
   34DOPE   C22 4281   2.334   4.720  10.467
   34DOPE   H2R 4282   2.385   4.817  10.431
   34DOPE   H2S 4283   2.380   4.649  10.251
   34DOPE    C3 4284   2.000   4.466  10.590
   34DOPE    HX 4285   2.057   4.384  10.437
   34DOPE    HY 4286   1.894   4.434  10.626
   34DOPE   O31 4287   2.062   4.499  10.968
   34DOPE   C31 4288   2.048   4.403  11.235
   34DOPE   O32 4289   1.982   4.302  11.193
   34DOPE   C32 4290   2.128   4.437  11.604
   34DOPE   H2X 4291   2.236   4.424  11.535
   34DOPE   H2Y 4292   2.110   4.543  11.688
   34DOPE   C23 4293   2.351   4.666  10.899
   34DOPE   H3R 4294   2.313   4.561  10.914
   34DOPE   H3S 4295   2.288   4.728  11.106
   34DOPE   C24 4296   2.494   4.669  11.055
   34DOPE   H4R 4297   2.531   4.774  11.031
   34DOPE   H4S 4298   2.563   4.607  10.869
   34DOPE   C25 4299   2.499   4.626  11.493
   34DOPE   H5R 4300   2.408   4.664  11.649
   34DOPE   H5S 4301   2.586   4.670  11.646
   34DOPE   C26 4302   2.527   4.478  11.577
   34DOPE   H6R 4303   2.622   4.451  11.421
   34DOPE   H6S 4304   2.446   4.415  11.451
   34DOPE   C27 4305   2.544   4.454  12.030
   34DOPE   H7R 4306   2.623   4.521  12.150
   34DOPE   H7S 4307   2.577   4.349  12.075
   34DOPE   C28 4308   2.413   4.478  12.264
   34DOPE   H8R 4309   2.338   4.412  12.120
   34DOPE   H8S 4310   2.377   4.582  12.213
   34DOPE   C29 4311   2.416   4.444  12.705
   34DOPE   H9R 4312   2.459   4.345  12.774
   34DOPE  C210 4313   2.368   4.519  13.008
   34DOPE  H10R 4314   2.368   4.476  13.311
   34DOPE  C211 4315   2.301   4.654  12.969
   34DOPE  H11R 4316   2.346   4.710  12.717
   34DOPE  H11S 4317   2.320   4.715  13.242
   34DOPE  C212 4318   2.148   4.648  12.885
   34DOPE  H12R 4319   2.131   4.587  12.612
   34DOPE  H12S 4320   2.110   4.749  12.816
   34DOPE  C213 4321   2.062   4.590  13.227
   34DOPE  H13R 4322   2.106   4.494  13.305
   34DOPE  H13S 4323   1.958   4.574  13.119
   34DOPE  C214 4324   2.058   4.672  13.614
   34DOPE  H14R 4325   2.013   4.771  13.548
   34DOPE  H14S 4326   2.163   4.688  13.716
   34DOPE  C215 4327   1.981   4.605  13.962
   34DOPE  H15R 4328   2.034   4.512  14.049
   34DOPE  H15S 4329   1.879   4.577  13.857
   34DOPE  C216 4330   1.967   4.698  14.328
   34DOPE  H16R 4331   1.925   4.793  14.214
   34DOPE  H16S 4332   2.068   4.720  14.457
   34DOPE  C217 4333   1.875   4.656  14.670
   34DOPE  H17R 4334   1.776   4.624  14.553
   34DOPE  H17S 4335   1.857   4.749  14.850
   34DOPE  C218 4336   1.933   4.554  14.961
   34DOPE  H18R 4337   1.917   4.589  15.270
   34DOPE  H18S 4338   2.042   4.542  14.919
   34DOPE  H18T 4339   1.883   4.454  14.931
   34DOPE   C33 4340   2.088   4.344  11.952
   34DOPE   H3X 4341   1.978   4.329  11.967
   34DOPE   H3Y 4342   2.117   4.394  12.237
   34DOPE   C34 4343   2.158   4.209  11.922
   34DOPE   H4X 4344   2.128   4.157  11.640
   34DOPE   H4Y 4345   2.268   4.223  11.910
   34DOPE   C35 4346   2.126   4.119  12.279
   34DOPE   H5X 4347   2.194   4.032  12.264
   34DOPE   H5Y 4348   2.022   4.081  12.264
   34DOPE   C36 4349   2.155   4.184  12.684
   34DOPE   H6X 4350   2.224   4.270  12.651
   34DOPE   H6Y 4351   2.212   4.108  12.855
   34DOPE   C37 4352   2.028   4.229  12.903
   34DOPE   H7X 4353   1.993   4.326  12.780
   34DOPE   H7Y 4354   1.948   4.154  12.843
   34DOPE   C38 4355   2.051   4.240  13.356
   34DOPE   H8X 4356   1.961   4.280  13.512
   34DOPE   H8Y 4357   2.133   4.312  13.404
   34DOPE   C39 4358   2.092   4.106  13.512
   34DOPE   H9X 4359   2.017   4.027  13.476
   34DOPE  C310 4360   2.214   4.075  13.659
   34DOPE  H10X 4361   2.234   3.970  13.740
   34DOPE  C311 4362   2.332   4.167  13.704
   34DOPE  H11X 4363   2.406   4.151  13.461
   34DOPE  H11Y 4364   2.302   4.273  13.698
   34DOPE  C312 4365   2.394   4.137  14.115
   34DOPE  H12X 4366   2.425   4.030  14.121
   34DOPE  H12Y 4367   2.317   4.147  14.352
   34DOPE  C313 4368   2.515   4.223  14.235
   34DOPE  H13X 4369   2.541   4.200  14.550
   34DOPE  H13Y 4370   2.601   4.193  14.046
   34DOPE  C314 4371   2.500   4.375  14.187
   34DOPE  H14X 4372   2.400   4.403  14.070
   34DOPE  H14Y 4373   2.577   4.409  13.968
   34DOPE  C315 4374   2.523   4.451  14.580
   34DOPE  H15X 4375   2.622   4.423  14.709
   34DOPE  H15Y 4376   2.447   4.424  14.808
   34DOPE  C316 4377   2.518   4.602  14.502
   34DOPE  H16X 4378   2.418   4.632  14.388
   34DOPE  H16Y 4379   2.590   4.621  14.256
   34DOPE  C317 4380   2.554   4.685  14.871
   34DOPE  H17X 4381   2.644   4.639  15.012
   34DOPE  H17Y 4382   2.580   4.790  14.793
   34DOPE  C318 4383   2.442   4.693  15.168
   34DOPE  H18X 4384   2.404   4.590  15.210
   34DOPE  H18Y 4385   2.478   4.734  15.459
   34DOPE  H18Z 4386   2.359   4.757  15.057
   35DOPE     N 4387   5.782   2.855   9.507
   35DOPE   HN1 4388   5.791   2.908   9.774
   35DOPE   HN2 4389   5.779   2.752   9.567
   35DOPE   HN3 4390   5.863   2.879   9.327
   35DOPE   C12 4391   5.655   2.900   9.303
   35DOPE  H12A 4392   5.583   2.815   9.303
   35DOPE  H12B 4393   5.679   2.927   8.988
   35DOPE   C11 4394   5.592   3.021   9.519
   35DOPE  H11A 4395   5.670   3.097   9.588
   35DOPE  H11B 4396   5.545   2.989   9.807
   35DOPE     P 4397   5.511   3.209   9.027
   35DOPE   O13 4398   5.393   3.241   8.778
   35DOPE   O14 4399   5.642   3.196   8.817
   35DOPE   O11 4400   5.522   3.312   9.384
   35DOPE   O12 4401   5.490   3.073   9.267
   35DOPE    C1 4402   5.618   3.417   9.345
   35DOPE    HA 4403   5.577   3.497   9.144
   35DOPE    HB 4404   5.714   3.383   9.210
   35DOPE    C2 4405   5.652   3.482   9.756
   35DOPE    HS 4406   5.733   3.555   9.696
   35DOPE   O21 4407   5.695   3.387  10.056
   35DOPE   C21 4408   5.813   3.330   9.996
   35DOPE   O22 4409   5.888   3.350   9.714
   35DOPE   C22 4410   5.834   3.227  10.344
   35DOPE   H2R 4411   5.741   3.167  10.335
   35DOPE   H2S 4412   5.829   3.289  10.617
   35DOPE    C3 4413   5.530   3.563   9.918
   35DOPE    HX 4414   5.465   3.588   9.660
   35DOPE    HY 4415   5.566   3.658  10.047
   35DOPE   O31 4416   5.446   3.498  10.200
   35DOPE   C31 4417   5.476   3.512  10.581
   35DOPE   O32 4418   5.562   3.583  10.731
   35DOPE   C32 4419   5.380   3.423  10.803
   35DOPE   H2X 4420   5.293   3.481  10.914
   35DOPE   H2Y 4421   5.344   3.351  10.575
   35DOPE   C23 4422   5.951   3.121  10.371
   35DOPE   H3R 4423   5.994   3.107  10.062
   35DOPE   H3S 4424   5.906   3.025  10.473
   35DOPE   C24 4425   6.071   3.140  10.668
   35DOPE   H4R 4426   6.100   3.241  10.632
   35DOPE   H4S 4427   6.161   3.102  10.512
   35DOPE   C25 4428   6.085   3.066  11.091
   35DOPE   H5R 4429   6.176   3.009  11.007
   35DOPE   H5S 4430   6.012   2.984  11.136
   35DOPE   C26 4431   6.142   3.114  11.526
   35DOPE   H6R 4432   6.243   3.140  11.463
   35DOPE   H6S 4433   6.151   3.020  11.691
   35DOPE   C27 4434   6.119   3.232  11.844
   35DOPE   H7R 4435   6.097   3.336  11.769
   35DOPE   H7S 4436   6.222   3.245  11.964
   35DOPE   C28 4437   6.038   3.201  12.225
   35DOPE   H8R 4438   6.106   3.161  12.456
   35DOPE   H8S 4439   5.984   3.125  12.066
   35DOPE   C29 4440   5.921   3.275  12.393
   35DOPE   H9R 4441   5.888   3.357  12.201
   35DOPE  C210 4442   5.838   3.245  12.696
   35DOPE  H10R 4443   5.750   3.312  12.723
   35DOPE  C211 4444   5.829   3.129  12.984
   35DOPE  H11R 4445   5.740   3.069  12.891
   35DOPE  H11S 4446   5.801   3.170  13.281
   35DOPE  C212 4447   5.942   3.022  13.032
   35DOPE  H12R 4448   6.015   3.030  12.783
   35DOPE  H12S 4449   5.893   2.923  12.990
   35DOPE  C213 4450   6.027   3.011  13.419
   35DOPE  H13R 4451   6.102   3.092  13.428
   35DOPE  H13S 4452   6.090   2.920  13.392
   35DOPE  C214 4453   5.949   3.002  13.812
   35DOPE  H14R 4454   5.916   2.897  13.863
   35DOPE  H14S 4455   5.857   3.065  13.788
   35DOPE  C215 4456   6.028   3.051  14.178
   35DOPE  H15R 4457   6.077   3.148  14.109
   35DOPE  H15S 4458   6.110   2.979  14.244
   35DOPE  C216 4459   5.936   3.072  14.538
   35DOPE  H16R 4460   5.833   3.038  14.472
   35DOPE  H16S 4461   5.928   3.181  14.595
   35DOPE  C217 4462   5.986   3.013  14.934
   35DOPE  H17R 4463   6.094   2.989  14.913
   35DOPE  H17S 4464   5.931   2.918  14.994
   35DOPE  C218 4465   5.965   3.114  15.273
   35DOPE  H18R 4466   5.856   3.134  15.312
   35DOPE  H18S 4467   6.014   3.210  15.195
   35DOPE  H18T 4468   6.008   3.079  15.558
   35DOPE   C33 4469   5.435   3.327  11.124
   35DOPE   H3X 4470   5.445   3.384  11.409
   35DOPE   H3Y 4471   5.534   3.286  11.034
   35DOPE   C34 4472   5.331   3.214  11.148
   35DOPE   H4X 4473   5.232   3.264  11.172
   35DOPE   H4Y 4474   5.330   3.156  10.863
   35DOPE   C35 4475   5.344   3.118  11.502
   35DOPE   H5X 4476   5.420   3.040  11.433
   35DOPE   H5Y 4477   5.246   3.067  11.541
   35DOPE   C36 4478   5.382   3.190  11.892
   35DOPE   H6X 4479   5.304   3.265  11.970
   35DOPE   H6Y 4480   5.479   3.243  11.850
   35DOPE   C37 4481   5.402   3.091  12.231
   35DOPE   H7X 4482   5.460   3.005  12.105
   35DOPE   H7Y 4483   5.464   3.137  12.471
   35DOPE   C38 4484   5.267   3.046  12.411
   35DOPE   H8X 4485   5.190   3.043  12.171
   35DOPE   H8Y 4486   5.234   3.123  12.630
   35DOPE   C39 4487   5.283   2.909  12.588
   35DOPE   H9X 4488   5.293   2.828  12.366
   35DOPE  C310 4489   5.291   2.880  12.981
   35DOPE  H10X 4490   5.307   2.776  13.071
   35DOPE  C311 4491   5.285   2.981  13.317
   35DOPE  H11X 4492   5.211   3.061  13.251
   35DOPE  H11Y 4493   5.251   2.931  13.596
   35DOPE  C312 4494   5.421   3.049  13.398
   35DOPE  H12X 4495   5.456   3.104  13.128
   35DOPE  H12Y 4496   5.497   2.971  13.470
   35DOPE  C313 4497   5.413   3.147  13.752
   35DOPE  H13X 4498   5.354   3.236  13.659
   35DOPE  H13Y 4499   5.358   3.098  14.004
   35DOPE  C314 4500   5.551   3.191  13.899
   35DOPE  H14X 4501   5.607   3.233  13.638
   35DOPE  H14Y 4502   5.608   3.104  14.016
   35DOPE  C315 4503   5.544   3.301  14.223
   35DOPE  H15X 4504   5.476   3.381  14.115
   35DOPE  H15Y 4505   5.646   3.344  14.262
   35DOPE  C316 4506   5.494   3.256  14.634
   35DOPE  H16X 4507   5.559   3.175  14.748
   35DOPE  H16Y 4508   5.391   3.215  14.604
   35DOPE  C317 4509   5.492   3.375  14.928
   35DOPE  H17X 4510   5.597   3.407  14.985
   35DOPE  H17Y 4511   5.440   3.459  14.778
   35DOPE  C318 4512   5.422   3.349  15.330
   35DOPE  H18X 4513   5.322   3.303  15.279
   35DOPE  H18Y 4514   5.481   3.283  15.525
   35DOPE  H18Z 4515   5.407   3.445  15.492
   36DOPE     N 4516   5.791   4.502   9.783
   36DOPE   HN1 4517   5.799   4.534   9.483
   36DOPE   HN2 4518   5.862   4.550   9.954
   36DOPE   HN3 4519   5.807   4.399   9.780
   36DOPE   C12 4520   5.647   4.531   9.882
   36DOPE  H12A 4521   5.632   4.641   9.849
   36DOPE  H12B 4522   5.624   4.499  10.191
   36DOPE   C11 4523   5.562   4.463   9.564
   36DOPE  H11A 4524   5.455   4.496   9.579
   36DOPE  H11B 4525   5.562   4.353   9.615
   36DOPE     P 4526   5.564   4.607   8.913
   36DOPE   O13 4527   5.423   4.574   8.847
   36DOPE   O14 4528   5.653   4.628   8.562
   36DOPE   O11 4529   5.575   4.731   9.210
   36DOPE   O12 4530   5.623   4.490   9.186
   36DOPE    C1 4531   5.483   4.842   9.144
   36DOPE    HA 4532   5.389   4.811   8.988
   36DOPE    HB 4533   5.534   4.917   8.946
   36DOPE    C2 4534   5.441   4.920   9.531
   36DOPE    HS 4535   5.436   5.028   9.453
   36DOPE   O21 4536   5.534   4.898   9.849
   36DOPE   C21 4537   5.647   4.963   9.807
   36DOPE   O22 4538   5.676   5.040   9.534
   36DOPE   C22 4539   5.735   4.932  10.173
   36DOPE   H2R 4540   5.746   5.028  10.332
   36DOPE   H2S 4541   5.835   4.900  10.071
   36DOPE    C3 4542   5.298   4.887   9.690
   36DOPE    HX 4543   5.228   4.889   9.432
   36DOPE    HY 4544   5.267   4.969   9.897
   36DOPE   O31 4545   5.291   4.758   9.876
   36DOPE   C31 4546   5.310   4.754  10.269
   36DOPE   O32 4547   5.309   4.848  10.500
   36DOPE   C32 4548   5.327   4.607  10.377
   36DOPE   H2X 4549   5.223   4.573  10.428
   36DOPE   H2Y 4550   5.366   4.555  10.110
   36DOPE   C23 4551   5.674   4.831  10.476
   36DOPE   H3R 4552   5.680   4.729  10.356
   36DOPE   H3S 4553   5.567   4.855  10.536
   36DOPE   C24 4554   5.743   4.830  10.884
   36DOPE   H4R 4555   5.719   4.927  11.025
   36DOPE   H4S 4556   5.853   4.822  10.854
   36DOPE   C25 4557   5.689   4.718  11.154
   36DOPE   H5R 4558   5.704   4.619  11.010
   36DOPE   H5S 4559   5.579   4.737  11.178
   36DOPE   C26 4560   5.741   4.713  11.586
   36DOPE   H6R 4561   5.850   4.691  11.577
   36DOPE   H6S 4562   5.693   4.632  11.760
   36DOPE   C27 4563   5.716   4.846  11.796
   36DOPE   H7R 4564   5.613   4.883  11.775
   36DOPE   H7S 4565   5.777   4.919  11.628
   36DOPE   C28 4566   5.768   4.849  12.228
   36DOPE   H8R 4567   5.804   4.954  12.240
   36DOPE   H8S 4568   5.858   4.784  12.237
   36DOPE   C29 4569   5.689   4.842  12.612
   36DOPE   H9R 4570   5.621   4.926  12.666
   36DOPE  C210 4571   5.702   4.749  12.894
   36DOPE  H10R 4572   5.649   4.762  13.182
   36DOPE  C211 4573   5.797   4.634  12.882
   36DOPE  H11R 4574   5.835   4.613  12.576
   36DOPE  H11S 4575   5.741   4.545  12.984
   36DOPE  C212 4576   5.917   4.647  13.158
   36DOPE  H12R 4577   5.971   4.742  13.098
   36DOPE  H12S 4578   5.983   4.561  13.077
   36DOPE  C213 4579   5.882   4.631  13.602
   36DOPE  H13R 4580   5.806   4.554  13.641
   36DOPE  H13S 4581   5.836   4.725  13.710
   36DOPE  C214 4582   6.002   4.580  13.842
   36DOPE  H14R 4583   6.070   4.666  13.881
   36DOPE  H14S 4584   6.053   4.502  13.662
   36DOPE  C215 4585   5.973   4.511  14.241
   36DOPE  H15R 4586   6.072   4.482  14.373
   36DOPE  H15S 4587   5.918   4.417  14.184
   36DOPE  C216 4588   5.897   4.595  14.547
   36DOPE  H16R 4589   5.791   4.605  14.460
   36DOPE  H16S 4590   5.941   4.697  14.556
   36DOPE  C217 4591   5.911   4.542  14.976
   36DOPE  H17R 4592   5.831   4.589  15.162
   36DOPE  H17S 4593   6.008   4.579  15.087
   36DOPE  C218 4594   5.910   4.390  15.024
   36DOPE  H18R 4595   5.815   4.348  14.910
   36DOPE  H18S 4596   5.920   4.364  15.345
   36DOPE  H18T 4597   5.994   4.344  14.859
   36DOPE   C33 4598   5.419   4.569  10.734
   36DOPE   H3X 4599   5.517   4.616  10.692
   36DOPE   H3Y 4600   5.434   4.459  10.722
   36DOPE   C34 4601   5.360   4.601  11.148
   36DOPE   H4X 4602   5.370   4.710  11.208
   36DOPE   H4Y 4603   5.252   4.580  11.127
   36DOPE   C35 4604   5.422   4.519  11.496
   36DOPE   H5X 4605   5.525   4.555  11.544
   36DOPE   H5Y 4606   5.431   4.412  11.409
   36DOPE   C36 4607   5.348   4.530  11.898
   36DOPE   H6X 4608   5.417   4.502  12.147
   36DOPE   H6Y 4609   5.266   4.456  11.913
   36DOPE   C37 4610   5.289   4.670  11.976
   36DOPE   H7X 4611   5.229   4.707  11.721
   36DOPE   H7Y 4612   5.214   4.662  12.216
   36DOPE   C38 4613   5.400   4.773  12.057
   36DOPE   H8X 4614   5.426   4.811  11.754
   36DOPE   H8Y 4615   5.488   4.716  12.165
   36DOPE   C39 4616   5.377   4.888  12.336
   36DOPE   H9X 4617   5.400   4.988  12.210
   36DOPE  C310 4618   5.333   4.878  12.717
   36DOPE  H10X 4619   5.323   4.969  12.900
   36DOPE  C311 4620   5.298   4.749  12.924
   36DOPE  H11X 4621   5.196   4.754  13.050
   36DOPE  H11Y 4622   5.293   4.665  12.711
   36DOPE  C312 4623   5.397   4.685  13.209
   36DOPE  H12X 4624   5.442   4.751  13.437
   36DOPE  H12Y 4625   5.478   4.649  13.005
   36DOPE  C313 4626   5.338   4.556  13.389
   36DOPE  H13X 4627   5.289   4.570  13.686
   36DOPE  H13Y 4628   5.261   4.521  13.179
   36DOPE  C314 4629   5.444   4.449  13.404
   36DOPE  H14X 4630   5.474   4.433  13.083
   36DOPE  H14Y 4631   5.407   4.352  13.518
   36DOPE  C315 4632   5.568   4.497  13.620
   36DOPE  H15X 4633   5.598   4.599  13.527
   36DOPE  H15Y 4634   5.653   4.439  13.518
   36DOPE  C316 4635   5.571   4.498  14.079
   36DOPE  H16X 4636   5.572   4.604  14.136
   36DOPE  H16Y 4637   5.670   4.464  14.184
   36DOPE  C317 4638   5.463   4.425  14.322
   36DOPE  H17X 4639   5.366   4.478  14.295
   36DOPE  H17Y 4640   5.449   4.322  14.205
   36DOPE  C318 4641   5.504   4.417  14.763
   36DOPE  H18X 4642   5.512   4.518  14.898
   36DOPE  H18Y 4643   5.433   4.357  14.940
   36DOPE  H18Z 4644   5.605   4.372  14.787
   37DOPE     N 4645   2.769   2.361   8.928
   37DOPE   HN1 4646   2.789   2.390   8.634
   37DOPE   HN2 4647   2.735   2.444   9.093
   37DOPE   HN3 4648   2.853   2.319   9.063
   37DOPE   C12 4649   2.648   2.271   8.922
   37DOPE  H12A 4650   2.639   2.225   9.222
   37DOPE  H12B 4651   2.662   2.192   8.694
   37DOPE   C11 4652   2.526   2.358   8.829
   37DOPE  H11A 4653   2.431   2.299   8.856
   37DOPE  H11B 4654   2.529   2.394   8.511
   37DOPE     P 4655   2.477   2.453   9.534
   37DOPE   O13 4656   2.597   2.490   9.777
   37DOPE   O14 4657   2.420   2.318   9.585
   37DOPE   O11 4658   2.368   2.567   9.528
   37DOPE   O12 4659   2.527   2.472   9.087
   37DOPE    C1 4660   2.396   2.695   9.699
   37DOPE    HA 4661   2.357   2.773   9.495
   37DOPE    HB 4662   2.505   2.716   9.741
   37DOPE    C2 4663   2.328   2.706  10.113
   37DOPE    HS 4664   2.365   2.799  10.260
   37DOPE   O21 4665   2.355   2.585  10.338
   37DOPE   C21 4666   2.420   2.601  10.677
   37DOPE   O22 4667   2.432   2.707  10.854
   37DOPE   C22 4668   2.482   2.467  10.824
   37DOPE   H2R 4669   2.560   2.439  10.602
   37DOPE   H2S 4670   2.400   2.392  10.809
   37DOPE    C3 4671   2.175   2.725  10.047
   37DOPE    HX 4672   2.137   2.639   9.867
   37DOPE    HY 4673   2.161   2.814   9.852
   37DOPE   O31 4674   2.109   2.748  10.425
   37DOPE   C31 4675   2.057   2.638  10.581
   37DOPE   O32 4676   2.033   2.537  10.392
   37DOPE   C32 4677   2.030   2.658  11.031
   37DOPE   H2X 4678   2.000   2.765  11.049
   37DOPE   H2Y 4679   1.945   2.596  11.127
   37DOPE   C23 4680   2.542   2.470  11.256
   37DOPE   H3R 4681   2.499   2.383  11.427
   37DOPE   H3S 4682   2.506   2.561  11.415
   37DOPE   C24 4683   2.696   2.464  11.295
   37DOPE   H4R 4684   2.742   2.506  11.022
   37DOPE   H4S 4685   2.726   2.357  11.313
   37DOPE   C25 4686   2.748   2.540  11.667
   37DOPE   H5R 4687   2.746   2.470  11.925
   37DOPE   H5S 4688   2.675   2.619  11.748
   37DOPE   C26 4689   2.889   2.605  11.646
   37DOPE   H6R 4690   2.888   2.710  11.541
   37DOPE   H6S 4691   2.954   2.551  11.430
   37DOPE   C27 4692   2.954   2.607  12.063
   37DOPE   H7R 4693   3.018   2.518  12.069
   37DOPE   H7S 4694   2.871   2.595  12.279
   37DOPE   C28 4695   3.052   2.716  12.189
   37DOPE   H8R 4696   3.106   2.751  11.925
   37DOPE   H8S 4697   3.128   2.669  12.390
   37DOPE   C29 4698   2.995   2.831  12.417
   37DOPE   H9R 4699   3.016   2.931  12.294
   37DOPE  C210 4700   2.923   2.822  12.753
   37DOPE  H10R 4701   2.887   2.917  12.876
   37DOPE  C211 4702   2.881   2.700  12.993
   37DOPE  H11R 4703   2.934   2.700  13.284
   37DOPE  H11S 4704   2.907   2.603  12.855
   37DOPE  C212 4705   2.729   2.703  13.080
   37DOPE  H12R 4706   2.704   2.621  13.293
   37DOPE  H12S 4707   2.672   2.683  12.798
   37DOPE  C213 4708   2.682   2.837  13.254
   37DOPE  H13R 4709   2.577   2.830  13.365
   37DOPE  H13S 4710   2.679   2.913  13.014
   37DOPE  C214 4711   2.775   2.893  13.581
   37DOPE  H14R 4712   2.750   3.000  13.614
   37DOPE  H14S 4713   2.881   2.898  13.485
   37DOPE  C215 4714   2.777   2.809  13.962
   37DOPE  H15R 4715   2.829   2.862  14.214
   37DOPE  H15S 4716   2.838   2.721  13.881
   37DOPE  C216 4717   2.646   2.747  14.112
   37DOPE  H16R 4718   2.592   2.697  13.863
   37DOPE  H16S 4719   2.577   2.820  14.253
   37DOPE  C217 4720   2.685   2.639  14.412
   37DOPE  H17R 4721   2.763   2.677  14.622
   37DOPE  H17S 4722   2.731   2.557  14.232
   37DOPE  C218 4723   2.568   2.585  14.643
   37DOPE  H18R 4724   2.477   2.591  14.451
   37DOPE  H18S 4725   2.549   2.641  14.919
   37DOPE  H18T 4726   2.589   2.479  14.724
   37DOPE   C33 4727   2.154   2.641  11.310
   37DOPE   H3X 4728   2.139   2.696  11.592
   37DOPE   H3Y 4729   2.237   2.696  11.169
   37DOPE   C34 4730   2.200   2.498  11.424
   37DOPE   H4X 4731   2.179   2.426  11.178
   37DOPE   H4Y 4732   2.309   2.501  11.463
   37DOPE   C35 4733   2.151   2.442  11.832
   37DOPE   H5X 4734   2.166   2.332  11.835
   37DOPE   H5Y 4735   2.042   2.463  11.859
   37DOPE   C36 4736   2.223   2.496  12.207
   37DOPE   H6X 4737   2.168   2.458  12.474
   37DOPE   H6Y 4738   2.219   2.607  12.207
   37DOPE   C37 4739   2.372   2.463  12.276
   37DOPE   H7X 4740   2.433   2.505  12.027
   37DOPE   H7Y 4741   2.399   2.521  12.552
   37DOPE   C38 4742   2.405   2.315  12.348
   37DOPE   H8X 4743   2.395   2.258  12.063
   37DOPE   H8Y 4744   2.332   2.272  12.564
   37DOPE   C39 4745   2.547   2.313  12.504
   37DOPE   H9X 4746   2.621   2.350  12.288
   37DOPE  C310 4747   2.589   2.273  12.867
   37DOPE  H10X 4748   2.696   2.286  12.936
   37DOPE  C311 4749   2.506   2.220  13.209
   37DOPE  H11X 4750   2.397   2.243  13.176
   37DOPE  H11Y 4751   2.514   2.109  13.215
   37DOPE  C312 4752   2.552   2.271  13.626
   37DOPE  H12X 4753   2.663   2.277  13.632
   37DOPE  H12Y 4754   2.523   2.196  13.857
   37DOPE  C313 4755   2.493   2.407  13.743
   37DOPE  H13X 4756   2.568   2.458  13.935
   37DOPE  H13Y 4757   2.481   2.469  13.467
   37DOPE  C314 4758   2.359   2.403  13.968
   37DOPE  H14X 4759   2.284   2.351  13.779
   37DOPE  H14Y 4760   2.324   2.508  14.010
   37DOPE  C315 4761   2.361   2.336  14.385
   37DOPE  H15X 4762   2.419   2.394  14.607
   37DOPE  H15Y 4763   2.412   2.239  14.379
   37DOPE  C316 4764   2.222   2.328  14.565
   37DOPE  H16X 4765   2.151   2.272  14.370
   37DOPE  H16Y 4766   2.184   2.433  14.580
   37DOPE  C317 4767   2.221   2.272  14.994
   37DOPE  H17X 4768   2.296   2.320  15.189
   37DOPE  H17Y 4769   2.129   2.308  15.120
   37DOPE  C318 4770   2.210   2.120  15.042
   37DOPE  H18X 4771   2.180   2.092  15.348
   37DOPE  H18Y 4772   2.132   2.079  14.841
   37DOPE  H18Z 4773   2.309   2.075  14.976
   38DOPE     N 4774   5.331   5.449   8.568
   38DOPE   HN1 4775   5.314   5.477   8.265
   38DOPE   HN2 4776   5.271   5.503   8.763
   38DOPE   HN3 4777   5.430   5.463   8.637
   38DOPE   C12 4778   5.299   5.305   8.619
   38DOPE  H12A 4779   5.367   5.247   8.421
   38DOPE  H12B 4780   5.194   5.288   8.523
   38DOPE   C11 4781   5.316   5.264   9.057
   38DOPE  H11A 4782   5.416   5.291   9.177
   38DOPE  H11B 4783   5.314   5.152   9.051
   38DOPE     P 4784   5.122   5.227   9.555
   38DOPE   O13 4785   5.106   5.101   9.321
   38DOPE   O14 4786   5.003   5.296   9.708
   38DOPE   O11 4787   5.227   5.207   9.903
   38DOPE   O12 4788   5.213   5.325   9.294
   38DOPE    C1 4789   5.243   5.320  10.170
   38DOPE    HA 4790   5.146   5.374  10.230
   38DOPE    HB 4791   5.314   5.394  10.044
   38DOPE    C2 4792   5.288   5.273  10.587
   38DOPE    HS 4793   5.377   5.206  10.545
   38DOPE   O21 4794   5.175   5.205  10.755
   38DOPE   C21 4795   5.203   5.111  11.013
   38DOPE   O22 4796   5.314   5.080  11.127
   38DOPE   C22 4797   5.070   5.060  11.187
   38DOPE   H2R 4798   5.015   5.010  10.941
   38DOPE   H2S 4799   5.014   5.150  11.283
   38DOPE    C3 4800   5.329   5.397  10.848
   38DOPE    HX 4801   5.241   5.465  10.857
   38DOPE    HY 4802   5.409   5.451  10.680
   38DOPE   O31 4803   5.381   5.364  11.244
   38DOPE   C31 4804   5.288   5.357  11.529
   38DOPE   O32 4805   5.170   5.383  11.487
   38DOPE   C32 4806   5.346   5.308  11.928
   38DOPE   H2X 4807   5.288   5.217  12.009
   38DOPE   H2Y 4808   5.451   5.278  11.883
   38DOPE   C23 4809   5.084   4.965  11.553
   38DOPE   H3R 4810   5.148   5.013  11.787
   38DOPE   H3S 4811   5.135   4.871  11.457
   38DOPE   C24 4812   4.947   4.932  11.733
   38DOPE   H4R 4813   4.889   4.875  11.505
   38DOPE   H4S 4814   4.891   5.027  11.790
   38DOPE   C25 4815   4.949   4.851  12.126
   38DOPE   H5R 4816   5.018   4.764  12.102
   38DOPE   H5S 4817   4.846   4.813  12.180
   38DOPE   C26 4818   4.988   4.935  12.489
   38DOPE   H6R 4819   4.934   5.031  12.462
   38DOPE   H6S 4820   5.096   4.959  12.477
   38DOPE   C27 4821   4.953   4.871  12.894
   38DOPE   H7R 4822   4.990   4.767  12.897
   38DOPE   H7S 4823   4.842   4.868  12.927
   38DOPE   C28 4824   5.015   4.949  13.245
   38DOPE   H8R 4825   4.978   5.053  13.215
   38DOPE   H8S 4826   5.125   4.953  13.212
   38DOPE   C29 4827   4.977   4.901  13.656
   38DOPE   H9R 4828   4.871   4.919  13.728
   38DOPE  C210 4829   5.056   4.850  13.947
   38DOPE  H10R 4830   5.011   4.839  14.244
   38DOPE  C211 4831   5.205   4.828  13.935
   38DOPE  H11R 4832   5.255   4.925  13.908
   38DOPE  H11S 4833   5.223   4.781  13.644
   38DOPE  C212 4834   5.286   4.746  14.250
   38DOPE  H12R 4835   5.376   4.712  14.082
   38DOPE  H12S 4836   5.239   4.653  14.349
   38DOPE  C213 4837   5.338   4.819  14.625
   38DOPE  H13R 4838   5.265   4.806  14.877
   38DOPE  H13S 4839   5.347   4.926  14.580
   38DOPE  C214 4840   5.479   4.776  14.742
   38DOPE  H14R 4841   5.522   4.720  14.502
   38DOPE  H14S 4842   5.469   4.710  15.012
   38DOPE  C215 4843   5.591   4.879  14.829
   38DOPE  H15R 4844   5.677   4.809  14.886
   38DOPE  H15S 4845   5.549   4.910  15.111
   38DOPE  C216 4846   5.641   4.998  14.544
   38DOPE  H16R 4847   5.613   4.982  14.226
   38DOPE  H16S 4848   5.736   4.943  14.562
   38DOPE  C217 4849   5.744   5.125  14.592
   38DOPE  H17R 4850   5.776   5.137  14.277
   38DOPE  H17S 4851   5.832   5.090  14.769
   38DOPE  C218 4852   5.731   5.274  14.736
   38DOPE  H18R 4853   5.655   5.290  14.970
   38DOPE  H18S 4854   5.707   5.342  14.484
   38DOPE  H18T 4855   5.828   5.310  14.859
   38DOPE   C33 4856   5.331   5.415  12.258
   38DOPE   H3X 4857   5.228   5.456  12.252
   38DOPE   H3Y 4858   5.396   5.502  12.180
   38DOPE   C34 4859   5.367   5.372  12.690
   38DOPE   H4X 4860   5.474   5.344  12.696
   38DOPE   H4Y 4861   5.355   5.460  12.891
   38DOPE   C35 4862   5.286   5.256  12.873
   38DOPE   H5X 4863   5.338   5.223  13.152
   38DOPE   H5Y 4864   5.286   5.169  12.666
   38DOPE   C36 4865   5.141   5.291  12.987
   38DOPE   H6X 4866   5.138   5.382  13.176
   38DOPE   H6Y 4867   5.103   5.208  13.176
   38DOPE   C37 4868   5.049   5.306  12.618
   38DOPE   H7X 4869   5.059   5.409  12.498
   38DOPE   H7Y 4870   5.083   5.235  12.384
   38DOPE   C38 4871   4.900   5.282  12.687
   38DOPE   H8X 4872   4.885   5.180  12.798
   38DOPE   H8Y 4873   4.849   5.289  12.390
   38DOPE   C39 4874   4.836   5.379  12.972
   38DOPE   H9X 4875   4.887   5.475  13.011
   38DOPE  C310 4876   4.728   5.350  13.197
   38DOPE  H10X 4877   4.691   5.425  13.407
   38DOPE  C311 4878   4.654   5.218  13.206
   38DOPE  H11X 4879   4.544   5.236  13.212
   38DOPE  H11Y 4880   4.674   5.156  12.936
   38DOPE  C312 4881   4.694   5.137  13.581
   38DOPE  H12X 4882   4.804   5.123  13.569
   38DOPE  H12Y 4883   4.647   5.036  13.578
   38DOPE  C313 4884   4.658   5.211  13.965
   38DOPE  H13X 4885   4.710   5.308  13.941
   38DOPE  H13Y 4886   4.549   5.229  13.983
   38DOPE  C314 4887   4.709   5.153  14.361
   38DOPE  H14X 4888   4.659   5.055  14.409
   38DOPE  H14Y 4889   4.680   5.217  14.619
   38DOPE  C315 4890   4.859   5.131  14.376
   38DOPE  H15X 4891   4.893   5.073  14.115
   38DOPE  H15Y 4892   4.866   5.065  14.637
   38DOPE  C316 4893   4.960   5.245  14.436
   38DOPE  H16X 4894   4.922   5.334  14.592
   38DOPE  H16Y 4895   5.002   5.276  14.139
   38DOPE  C317 4896   5.076   5.195  14.688
   38DOPE  H17X 4897   5.165   5.257  14.640
   38DOPE  H17Y 4898   5.052   5.200  15.009
   38DOPE  C318 4899   5.118   5.055  14.580
   38DOPE  H18X 4900   5.195   5.022  14.778
   38DOPE  H18Y 4901   5.043   4.977  14.637
   38DOPE  H18Z 4902   5.152   5.054  14.268
   39DOPE     N 4903   1.927   3.611   9.765
   39DOPE   HN1 4904   1.962   3.607  10.056
   39DOPE   HN2 4905   1.822   3.613   9.759
   39DOPE   HN3 4906   1.963   3.529   9.606
   39DOPE   C12 4907   1.969   3.735   9.549
   39DOPE  H12A 4908   2.078   3.738   9.510
   39DOPE  H12B 4909   1.932   3.818   9.735
   39DOPE   C11 4910   1.890   3.745   9.168
   39DOPE  H11A 4911   1.905   3.659   8.961
   39DOPE  H11B 4912   1.927   3.836   9.003
   39DOPE     P 4913   1.669   3.864   9.087
   39DOPE   O13 4914   1.536   3.867   9.264
   39DOPE   O14 4915   1.679   3.840   8.652
   39DOPE   O11 4916   1.750   3.993   9.186
   39DOPE   O12 4917   1.753   3.750   9.297
   39DOPE    C1 4918   1.698   4.120   9.063
   39DOPE    HA 4919   1.586   4.120   9.042
   39DOPE    HB 4920   1.739   4.146   8.763
   39DOPE    C2 4921   1.737   4.224   9.381
   39DOPE    HS 4922   1.715   4.324   9.261
   39DOPE   O21 4923   1.880   4.212   9.450
   39DOPE   C21 4924   1.936   4.202   9.804
   39DOPE   O22 4925   1.891   4.238  10.128
   39DOPE   C22 4926   2.070   4.130   9.765
   39DOPE   H2R 4927   2.152   4.197   9.861
   39DOPE   H2S 4928   2.082   4.101   9.444
   39DOPE    C3 4929   1.648   4.201   9.762
   39DOPE    HX 4930   1.541   4.203   9.663
   39DOPE    HY 4931   1.663   4.289   9.963
   39DOPE   O31 4932   1.676   4.075   9.957
   39DOPE   C31 4933   1.634   4.074  10.335
   39DOPE   O32 4934   1.571   4.164  10.491
   39DOPE   C32 4935   1.675   3.945  10.548
   39DOPE   H2X 4936   1.652   3.862  10.338
   39DOPE   H2Y 4937   1.784   3.947  10.605
   39DOPE   C23 4938   2.073   4.008  10.041
   39DOPE   H3R 4939   2.149   3.935   9.933
   39DOPE   H3S 4940   1.971   3.964  10.041
   39DOPE   C24 4941   2.099   4.036  10.488
   39DOPE   H4R 4942   2.020   4.104  10.605
   39DOPE   H4S 4943   2.197   4.087  10.524
   39DOPE   C25 4944   2.096   3.903  10.716
   39DOPE   H5R 4945   2.165   3.834  10.557
   39DOPE   H5S 4946   1.994   3.859  10.698
   39DOPE   C26 4947   2.143   3.911  11.151
   39DOPE   H6R 4948   2.196   4.007  11.208
   39DOPE   H6S 4949   2.219   3.830  11.187
   39DOPE   C27 4950   2.036   3.887  11.475
   39DOPE   H7R 4951   1.959   3.817  11.352
   39DOPE   H7S 4952   1.986   3.982  11.553
   39DOPE   C28 4953   2.101   3.818  11.841
   39DOPE   H8R 4954   2.191   3.874  11.937
   39DOPE   H8S 4955   2.141   3.725  11.712
   39DOPE   C29 4956   2.007   3.783  12.183
   39DOPE   H9R 4957   1.907   3.751  12.075
   39DOPE  C210 4958   2.028   3.782  12.582
   39DOPE  H10R 4959   1.945   3.750  12.777
   39DOPE  C211 4960   2.153   3.816  12.819
   39DOPE  H11R 4961   2.127   3.895  13.041
   39DOPE  H11S 4962   2.231   3.860  12.624
   39DOPE  C212 4963   2.220   3.701  13.056
   39DOPE  H12R 4964   2.293   3.744  13.272
   39DOPE  H12S 4965   2.280   3.644  12.831
   39DOPE  C213 4966   2.130   3.599  13.281
   39DOPE  H13R 4967   2.194   3.515  13.386
   39DOPE  H13S 4968   2.057   3.556  13.068
   39DOPE  C214 4969   2.051   3.651  13.644
   39DOPE  H14R 4970   1.969   3.577  13.701
   39DOPE  H14S 4971   2.001   3.746  13.557
   39DOPE  C215 4972   2.130   3.664  14.037
   39DOPE  H15R 4973   2.226   3.719  13.989
   39DOPE  H15S 4974   2.155   3.563  14.148
   39DOPE  C216 4975   2.047   3.739  14.358
   39DOPE  H16R 4976   2.089   3.722  14.661
   39DOPE  H16S 4977   1.943   3.700  14.349
   39DOPE  C217 4978   2.048   3.890  14.268
   39DOPE  H17R 4979   2.028   3.898  13.941
   39DOPE  H17S 4980   2.150   3.929  14.328
   39DOPE  C218 4981   1.947   3.980  14.472
   39DOPE  H18R 4982   1.932   4.073  14.298
   39DOPE  H18S 4983   1.984   4.009  14.775
   39DOPE  H18T 4984   1.848   3.932  14.499
   39DOPE   C33 4985   1.594   3.927  10.938
   39DOPE   H3X 4986   1.599   3.819  11.022
   39DOPE   H3Y 4987   1.488   3.954  10.869
   39DOPE   C34 4988   1.635   4.008  11.313
   39DOPE   H4X 4989   1.742   3.991  11.376
   39DOPE   H4Y 4990   1.620   4.117  11.256
   39DOPE   C35 4991   1.550   3.965  11.679
   39DOPE   H5X 4992   1.560   3.855  11.715
   39DOPE   H5Y 4993   1.443   3.988  11.619
   39DOPE   C36 4994   1.590   4.033  12.078
   39DOPE   H6X 4995   1.566   4.141  12.051
   39DOPE   H6Y 4996   1.700   4.024  12.120
   39DOPE   C37 4997   1.517   3.974  12.444
   39DOPE   H7X 4998   1.409   3.962  12.366
   39DOPE   H7Y 4999   1.557   3.872  12.507
   39DOPE   C38 5000   1.523   4.060  12.828
   39DOPE   H8X 5001   1.469   4.005  13.068
   39DOPE   H8Y 5002   1.462   4.152  12.777
   39DOPE   C39 5003   1.661   4.103  12.966
   39DOPE   H9X 5004   1.722   4.147  12.726
   39DOPE  C310 5005   1.721   4.083  13.326
   39DOPE  H10X 5006   1.824   4.118  13.359
   39DOPE  C311 5007   1.670   4.012  13.695
   39DOPE  H11X 5008   1.601   3.940  13.569
   39DOPE  H11Y 5009   1.760   3.957  13.791
   39DOPE  C312 5010   1.603   4.080  14.073
   39DOPE  H12X 5011   1.516   4.133  13.944
   39DOPE  H12Y 5012   1.679   4.154  14.187
   39DOPE  C313 5013   1.549   4.012  14.478
   39DOPE  H13X 5014   1.624   3.977  14.694
   39DOPE  H13Y 5015   1.532   4.117  14.580
   39DOPE  C314 5016   1.399   3.974  14.598
   39DOPE  H14X 5017   1.326   3.994  14.355
   39DOPE  H14Y 5018   1.372   4.052  14.829
   39DOPE  C315 5019   1.355   3.855  14.871
   39DOPE  H15X 5020   1.249   3.881  14.925
   39DOPE  H15Y 5021   1.403   3.866  15.168
   39DOPE  C316 5022   1.339   3.706  14.754
   39DOPE  H16X 5023   1.370   3.684  14.442
   39DOPE  H16Y 5024   1.229   3.683  14.766
   39DOPE  C317 5025   1.398   3.607  15.054
   39DOPE  H17X 5026   1.325   3.602  15.306
   39DOPE  H17Y 5027   1.400   3.506  14.907
   39DOPE  C318 5028   1.536   3.645  15.222
   39DOPE  H18X 5029   1.553   3.612  15.534
   39DOPE  H18Y 5030   1.615   3.604  15.033
   39DOPE  H18Z 5031   1.556   3.754  15.231
   40DOPE     N 5032   4.137   6.003   9.960
   40DOPE   HN1 5033   4.124   5.907   9.843
   40DOPE   HN2 5034   4.153   6.000  10.266
   40DOPE   HN3 5035   4.046   6.051   9.885
   40DOPE   C12 5036   4.250   6.063   9.723
   40DOPE  H12A 5037   4.333   5.990   9.726
   40DOPE  H12B 5038   4.281   6.157   9.870
   40DOPE   C11 5039   4.207   6.090   9.285
   40DOPE  H11A 5040   4.297   6.112   9.099
   40DOPE  H11B 5041   4.145   6.184   9.276
   40DOPE     P 5042   3.983   5.986   9.045
   40DOPE   O13 5043   3.927   5.856   8.931
   40DOPE   O14 5044   3.951   6.106   8.808
   40DOPE   O11 5045   3.939   6.013   9.489
   40DOPE   O12 5046   4.139   5.976   9.126
   40DOPE    C1 5047   3.827   5.947   9.660
   40DOPE    HA 5048   3.862   5.869   9.873
   40DOPE    HB 5049   3.760   5.897   9.435
   40DOPE    C2 5050   3.744   6.052   9.885
   40DOPE    HS 5051   3.676   6.099   9.657
   40DOPE   O21 5052   3.833   6.150  10.056
   40DOPE   C21 5053   3.766   6.257  10.179
   40DOPE   O22 5054   3.647   6.274  10.131
   40DOPE   C22 5055   3.861   6.356  10.380
   40DOPE   H2R 5056   3.798   6.423  10.566
   40DOPE   H2S 5057   3.904   6.418  10.134
   40DOPE    C3 5058   3.661   5.981  10.209
   40DOPE    HX 5059   3.602   5.901  10.053
   40DOPE    HY 5060   3.590   6.051  10.356
   40DOPE   O31 5061   3.754   5.927  10.497
   40DOPE   C31 5062   3.699   5.836  10.728
   40DOPE   O32 5063   3.585   5.794  10.692
   40DOPE   C32 5064   3.805   5.786  11.025
   40DOPE   H2X 5065   3.888   5.743  10.842
   40DOPE   H2Y 5066   3.844   5.870  11.205
   40DOPE   C23 5067   3.975   6.294  10.632
   40DOPE   H3R 5068   4.061   6.366  10.623
   40DOPE   H3S 5069   4.011   6.198  10.506
   40DOPE   C24 5070   3.940   6.276  11.079
   40DOPE   H4R 5071   3.912   6.375  11.202
   40DOPE   H4S 5072   4.031   6.242  11.241
   40DOPE   C25 5073   3.826   6.176  11.157
   40DOPE   H5R 5074   3.846   6.083  10.983
   40DOPE   H5S 5075   3.731   6.220  11.046
   40DOPE   C26 5076   3.810   6.139  11.601
   40DOPE   H6R 5077   3.889   6.066  11.682
   40DOPE   H6S 5078   3.711   6.090  11.643
   40DOPE   C27 5079   3.823   6.260  11.880
   40DOPE   H7R 5080   3.778   6.347  11.724
   40DOPE   H7S 5081   3.930   6.283  11.937
   40DOPE   C28 5082   3.747   6.247  12.282
   40DOPE   H8R 5083   3.646   6.211  12.207
   40DOPE   H8S 5084   3.733   6.350  12.402
   40DOPE   C29 5085   3.803   6.157  12.600
   40DOPE   H9R 5086   3.774   6.052  12.570
   40DOPE  C210 5087   3.883   6.195  12.903
   40DOPE  H10R 5088   3.913   6.119  13.125
   40DOPE  C211 5089   3.932   6.335  12.987
   40DOPE  H11R 5090   3.908   6.364  13.299
   40DOPE  H11S 5091   3.884   6.410  12.789
   40DOPE  C212 5092   4.085   6.345  12.918
   40DOPE  H12R 5093   4.117   6.450  12.963
   40DOPE  H12S 5094   4.107   6.318  12.600
   40DOPE  C213 5095   4.169   6.256  13.194
   40DOPE  H13R 5096   4.277   6.266  13.122
   40DOPE  H13S 5097   4.141   6.153  13.131
   40DOPE  C214 5098   4.145   6.278  13.641
   40DOPE  H14R 5099   4.039   6.252  13.716
   40DOPE  H14S 5100   4.162   6.385  13.710
   40DOPE  C215 5101   4.235   6.191  13.905
   40DOPE  H15R 5102   4.342   6.206  13.818
   40DOPE  H15S 5103   4.212   6.084  13.854
   40DOPE  C216 5104   4.215   6.227  14.346
   40DOPE  H16R 5105   4.107   6.215  14.424
   40DOPE  H16S 5106   4.241   6.334  14.388
   40DOPE  C217 5107   4.298   6.143  14.634
   40DOPE  H17R 5108   4.304   6.197  14.925
   40DOPE  H17S 5109   4.402   6.135  14.514
   40DOPE  C218 5110   4.241   6.003  14.709
   40DOPE  H18R 5111   4.290   5.951  14.961
   40DOPE  H18S 5112   4.259   5.939  14.445
   40DOPE  H18T 5113   4.133   6.007  14.781
   40DOPE   C33 5114   3.751   5.675  11.301
   40DOPE   H3X 5115   3.832   5.611  11.418
   40DOPE   H3Y 5116   3.682   5.614  11.112
   40DOPE   C34 5117   3.665   5.725  11.646
   40DOPE   H4X 5118   3.618   5.822  11.562
   40DOPE   H4Y 5119   3.584   5.649  11.685
   40DOPE   C35 5120   3.725   5.732  12.063
   40DOPE   H5X 5121   3.737   5.629  12.183
   40DOPE   H5Y 5122   3.648   5.781  12.252
   40DOPE   C36 5123   3.855   5.807  12.138
   40DOPE   H6X 5124   3.849   5.912  12.036
   40DOPE   H6Y 5125   3.940   5.758  11.985
   40DOPE   C37 5126   3.858   5.808  12.594
   40DOPE   H7X 5127   3.774   5.871  12.702
   40DOPE   H7Y 5128   3.831   5.703  12.696
   40DOPE   C38 5129   3.985   5.831  12.840
   40DOPE   H8X 5130   4.044   5.746  12.765
   40DOPE   H8Y 5131   3.938   5.811  13.131
   40DOPE   C39 5132   4.096   5.929  12.885
   40DOPE   H9X 5133   4.095   6.018  12.687
   40DOPE  C310 5134   4.196   5.907  13.152
   40DOPE  H10X 5135   4.285   5.972  13.152
   40DOPE  C311 5136   4.209   5.786  13.428
   40DOPE  H11X 5137   4.179   5.694  13.269
   40DOPE  H11Y 5138   4.317   5.771  13.500
   40DOPE  C312 5139   4.134   5.788  13.839
   40DOPE  H12X 5140   4.163   5.881  13.992
   40DOPE  H12Y 5141   4.168   5.702  14.025
   40DOPE  C313 5142   3.981   5.789  13.815
   40DOPE  H13X 5143   3.955   5.880  13.641
   40DOPE  H13Y 5144   3.945   5.698  13.656
   40DOPE  C314 5145   3.901   5.809  14.199
   40DOPE  H14X 5146   3.944   5.753  14.457
   40DOPE  H14Y 5147   3.798   5.770  14.148
   40DOPE  C315 5148   3.890   5.958  14.283
   40DOPE  H15X 5149   3.842   6.009  14.022
   40DOPE  H15Y 5150   3.992   6.001  14.313
   40DOPE  C316 5151   3.808   5.988  14.658
   40DOPE  H16X 5152   3.850   5.930  14.916
   40DOPE  H16Y 5153   3.704   5.953  14.607
   40DOPE  C317 5154   3.808   6.137  14.757
   40DOPE  H17X 5155   3.911   6.169  14.841
   40DOPE  H17Y 5156   3.781   6.194  14.481
   40DOPE  C318 5157   3.710   6.170  15.093
   40DOPE  H18X 5158   3.689   6.279  15.105
   40DOPE  H18Y 5159   3.613   6.117  15.039
   40DOPE  H18Z 5160   3.750   6.135  15.387
   41DOPE     N 5161   2.037   5.040   9.558
   41DOPE   HN1 5162   2.095   5.108   9.729
   41DOPE   HN2 5163   2.089   4.952   9.495
   41DOPE   HN3 5164   2.009   5.088   9.294
   41DOPE   C12 5165   1.908   5.015   9.774
   41DOPE  H12A 5166   1.879   5.110   9.927
   41DOPE  H12B 5167   1.926   4.939  10.008
   41DOPE   C11 5168   1.796   4.970   9.477
   41DOPE  H11A 5169   1.698   4.971   9.642
   41DOPE  H11B 5170   1.819   4.864   9.402
   41DOPE     P 5171   1.732   5.188   9.087
   41DOPE   O13 5172   1.604   5.200   9.303
   41DOPE   O14 5173   1.749   5.253   8.691
   41DOPE   O11 5174   1.850   5.241   9.357
   41DOPE   O12 5175   1.786   5.040   9.102
   41DOPE    C1 5176   1.953   5.333   9.261
   41DOPE    HA 5177   1.947   5.365   8.940
   41DOPE    HB 5178   2.054   5.288   9.297
   41DOPE    C2 5179   1.937   5.461   9.522
   41DOPE    HS 5180   1.972   5.547   9.336
   41DOPE   O21 5181   2.004   5.471   9.903
   41DOPE   C21 5182   2.044   5.367  10.101
   41DOPE   O22 5183   2.109   5.272   9.969
   41DOPE   C22 5184   1.992   5.381  10.524
   41DOPE   H2R 5185   1.883   5.395  10.500
   41DOPE   H2S 5186   2.038   5.474  10.650
   41DOPE    C3 5187   1.788   5.479   9.615
   41DOPE    HX 5188   1.736   5.450   9.336
   41DOPE    HY 5189   1.765   5.587   9.660
   41DOPE   O31 5190   1.737   5.393   9.933
   41DOPE   C31 5191   1.634   5.448  10.119
   41DOPE   O32 5192   1.603   5.565  10.101
   41DOPE   C32 5193   1.552   5.360  10.383
   41DOPE   H2X 5194   1.567   5.396  10.695
   41DOPE   H2Y 5195   1.446   5.383  10.296
   41DOPE   C23 5196   2.023   5.260  10.794
   41DOPE   H3R 5197   2.134   5.248  10.809
   41DOPE   H3S 5198   1.981   5.166  10.665
   41DOPE   C24 5199   1.971   5.274  11.226
   41DOPE   H4R 5200   1.860   5.270  11.238
   41DOPE   H4S 5201   2.004   5.373  11.343
   41DOPE   C25 5202   2.034   5.163  11.478
   41DOPE   H5R 5203   2.144   5.174  11.439
   41DOPE   H5S 5204   2.004   5.065  11.346
   41DOPE   C26 5205   2.008   5.158  11.928
   41DOPE   H6R 5206   1.915   5.213  12.012
   41DOPE   H6S 5207   2.093   5.209  12.078
   41DOPE   C27 5208   1.999   5.013  12.084
   41DOPE   H7R 5209   2.082   4.950  11.970
   41DOPE   H7S 5210   1.906   4.970  11.952
   41DOPE   C28 5211   1.989   5.000  12.543
   41DOPE   H8R 5212   1.943   4.902  12.618
   41DOPE   H8S 5213   1.916   5.078  12.627
   41DOPE   C29 5214   2.107   5.022  12.813
   41DOPE   H9R 5215   2.164   4.932  12.903
   41DOPE  C210 5216   2.153   5.141  12.936
   41DOPE  H10R 5217   2.240   5.143  13.137
   41DOPE  C211 5218   2.095   5.275  12.825
   41DOPE  H11R 5219   2.004   5.266  12.639
   41DOPE  H11S 5220   2.170   5.333  12.648
   41DOPE  C212 5221   2.055   5.356  13.194
   41DOPE  H12R 5222   1.989   5.293  13.380
   41DOPE  H12S 5223   1.993   5.442  13.101
   41DOPE  C213 5224   2.178   5.405  13.428
   41DOPE  H13R 5225   2.243   5.464  13.221
   41DOPE  H13S 5226   2.237   5.317  13.524
   41DOPE  C214 5227   2.145   5.488  13.803
   41DOPE  H14R 5228   2.108   5.589  13.722
   41DOPE  H14S 5229   2.238   5.499  13.983
   41DOPE  C215 5230   2.035   5.424  14.055
   41DOPE  H15R 5231   2.035   5.316  13.992
   41DOPE  H15S 5232   1.938   5.463  13.950
   41DOPE  C216 5233   2.056   5.440  14.505
   41DOPE  H16R 5234   2.079   5.547  14.559
   41DOPE  H16S 5235   2.147   5.383  14.595
   41DOPE  C217 5236   1.937   5.392  14.766
   41DOPE  H17R 5237   1.958   5.418  15.084
   41DOPE  H17S 5238   1.936   5.281  14.745
   41DOPE  C218 5239   1.797   5.444  14.655
   41DOPE  H18R 5240   1.786   5.551  14.733
   41DOPE  H18S 5241   1.719   5.387  14.823
   41DOPE  H18T 5242   1.776   5.432  14.331
   41DOPE   C33 5243   1.564   5.208  10.380
   41DOPE   H3X 5244   1.659   5.178  10.530
   41DOPE   H3Y 5245   1.563   5.161  10.080
   41DOPE   C34 5246   1.438   5.169  10.614
   41DOPE   H4X 5247   1.412   5.248  10.836
   41DOPE   H4Y 5248   1.352   5.163  10.401
   41DOPE   C35 5249   1.455   5.038  10.830
   41DOPE   H5X 5250   1.474   4.978  10.563
   41DOPE   H5Y 5251   1.361   5.004  10.980
   41DOPE   C36 5252   1.572   5.034  11.118
   41DOPE   H6X 5253   1.670   5.029  10.962
   41DOPE   H6Y 5254   1.566   4.939  11.292
   41DOPE   C37 5255   1.568   5.159  11.388
   41DOPE   H7X 5256   1.620   5.243  11.235
   41DOPE   H7Y 5257   1.462   5.191  11.433
   41DOPE   C38 5258   1.626   5.133  11.802
   41DOPE   H8X 5259   1.630   5.227  11.976
   41DOPE   H8Y 5260   1.731   5.096  11.766
   41DOPE   C39 5261   1.535   5.030  11.985
   41DOPE   H9X 5262   1.445   5.003  11.814
   41DOPE  C310 5263   1.556   4.969  12.333
   41DOPE  H10X 5264   1.488   4.891  12.444
   41DOPE  C311 5265   1.676   5.000  12.579
   41DOPE  H11X 5266   1.745   4.914  12.573
   41DOPE  H11Y 5267   1.729   5.090  12.465
   41DOPE  C312 5268   1.633   5.032  13.005
   41DOPE  H12X 5269   1.582   4.944  13.143
   41DOPE  H12Y 5270   1.564   5.120  13.005
   41DOPE  C313 5271   1.755   5.068  13.257
   41DOPE  H13X 5272   1.829   4.985  13.230
   41DOPE  H13Y 5273   1.803   5.160  13.134
   41DOPE  C314 5274   1.719   5.091  13.695
   41DOPE  H14X 5275   1.686   4.994  13.824
   41DOPE  H14Y 5276   1.634   5.162  13.713
   41DOPE  C315 5277   1.838   5.144  13.932
   41DOPE  H15X 5278   1.814   5.146  14.256
   41DOPE  H15Y 5279   1.852   5.249  13.833
   41DOPE  C316 5280   1.963   5.059  13.851
   41DOPE  H16X 5281   2.002   5.080  13.545
   41DOPE  H16Y 5282   1.928   4.953  13.842
   41DOPE  C317 5283   2.082   5.065  14.142
   41DOPE  H17X 5284   2.140   5.159  14.109
   41DOPE  H17Y 5285   2.045   5.059  14.457
   41DOPE  C318 5286   2.180   4.951  14.061
   41DOPE  H18X 5287   2.124   4.857  14.055
   41DOPE  H18Y 5288   2.228   4.962  13.764
   41DOPE  H18Z 5289   2.256   4.939  14.298
   42DOPE     N 5290   1.626   4.492   8.805
   42DOPE   HN1 5291   1.582   4.406   8.919
   42DOPE   HN2 5292   1.591   4.502   8.511
   42DOPE   HN3 5293   1.731   4.483   8.811
   42DOPE   C12 5294   1.577   4.605   9.060
   42DOPE  H12A 5295   1.623   4.699   8.949
   42DOPE  H12B 5296   1.610   4.586   9.375
   42DOPE   C11 5297   1.424   4.611   9.042
   42DOPE  H11A 5298   1.394   4.655   8.748
   42DOPE  H11B 5299   1.391   4.684   9.276
   42DOPE     P 5300   1.267   4.443   9.441
   42DOPE   O13 5301   1.354   4.415   9.789
   42DOPE   O14 5302   1.169   4.342   9.303
   42DOPE   O11 5303   1.199   4.582   9.510
   42DOPE   O12 5304   1.365   4.480   9.081
   42DOPE    C1 5305   1.113   4.653   9.246
   42DOPE    HA 5306   1.047   4.583   9.078
   42DOPE    HB 5307   1.173   4.709   9.024
   42DOPE    C2 5308   1.024   4.753   9.483
   42DOPE    HS 5309   0.969   4.818   9.270
   42DOPE   O21 5310   1.096   4.835   9.762
   42DOPE   C21 5311   1.209   4.889   9.663
   42DOPE   O22 5312   1.240   4.933   9.333
   42DOPE   C22 5313   1.295   4.893  10.047
   42DOPE   H2R 5314   1.226   4.901  10.308
   42DOPE   H2S 5315   1.357   4.984  10.032
   42DOPE    C3 5316   0.922   4.679   9.744
   42DOPE    HX 5317   0.850   4.629   9.537
   42DOPE    HY 5318   0.863   4.750   9.933
   42DOPE   O31 5319   0.987   4.577   9.978
   42DOPE   C31 5320   1.034   4.609  10.335
   42DOPE   O32 5321   1.026   4.718  10.494
   42DOPE   C32 5322   1.084   4.481  10.539
   42DOPE   H2X 5323   1.000   4.437  10.713
   42DOPE   H2Y 5324   1.113   4.408  10.302
   42DOPE   C23 5325   1.382   4.764  10.080
   42DOPE   H3R 5326   1.460   4.768   9.846
   42DOPE   H3S 5327   1.316   4.677  10.026
   42DOPE   C24 5328   1.448   4.733  10.485
   42DOPE   H4R 5329   1.371   4.728  10.722
   42DOPE   H4S 5330   1.522   4.808  10.578
   42DOPE   C25 5331   1.542   4.612  10.494
   42DOPE   H5R 5332   1.607   4.618  10.224
   42DOPE   H5S 5333   1.487   4.516  10.479
   42DOPE   C26 5334   1.633   4.620  10.866
   42DOPE   H6R 5335   1.703   4.705  10.824
   42DOPE   H6S 5336   1.692   4.527  10.878
   42DOPE   C27 5337   1.559   4.644  11.265
   42DOPE   H7R 5338   1.490   4.559  11.319
   42DOPE   H7S 5339   1.496   4.736  11.250
   42DOPE   C28 5340   1.654   4.662  11.622
   42DOPE   H8R 5341   1.595   4.689  11.892
   42DOPE   H8S 5342   1.724   4.746  11.568
   42DOPE   C29 5343   1.728   4.532  11.664
   42DOPE   H9R 5344   1.809   4.515  11.451
   42DOPE  C210 5345   1.694   4.433  11.916
   42DOPE  H10R 5346   1.751   4.339  11.910
   42DOPE  C211 5347   1.576   4.435  12.195
   42DOPE  H11R 5348   1.514   4.344  12.156
   42DOPE  H11S 5349   1.508   4.522  12.150
   42DOPE  C212 5350   1.631   4.442  12.621
   42DOPE  H12R 5351   1.695   4.532  12.666
   42DOPE  H12S 5352   1.695   4.353  12.681
   42DOPE  C213 5353   1.519   4.447  12.927
   42DOPE  H13R 5354   1.442   4.370  12.852
   42DOPE  H13S 5355   1.469   4.546  12.915
   42DOPE  C214 5356   1.572   4.421  13.350
   42DOPE  H14R 5357   1.635   4.506  13.449
   42DOPE  H14S 5358   1.636   4.331  13.350
   42DOPE  C215 5359   1.459   4.399  13.647
   42DOPE  H15R 5360   1.398   4.311  13.554
   42DOPE  H15S 5361   1.394   4.488  13.644
   42DOPE  C216 5362   1.514   4.380  14.070
   42DOPE  H16R 5363   1.620   4.350  14.052
   42DOPE  H16S 5364   1.456   4.297  14.217
   42DOPE  C217 5365   1.493   4.502  14.334
   42DOPE  H17R 5366   1.484   4.593  14.145
   42DOPE  H17S 5367   1.577   4.518  14.547
   42DOPE  C218 5368   1.364   4.478  14.562
   42DOPE  H18R 5369   1.370   4.410  14.820
   42DOPE  H18S 5370   1.297   4.424  14.349
   42DOPE  H18T 5371   1.315   4.572  14.652
   42DOPE   C33 5372   1.205   4.504  10.815
   42DOPE   H3X 5373   1.288   4.535  10.614
   42DOPE   H3Y 5374   1.236   4.407  10.947
   42DOPE   C34 5375   1.187   4.606  11.157
   42DOPE   H4X 5376   1.281   4.609  11.334
   42DOPE   H4Y 5377   1.174   4.709  11.034
   42DOPE   C35 5378   1.070   4.575  11.433
   42DOPE   H5X 5379   1.092   4.481  11.595
   42DOPE   H5Y 5380   0.979   4.556  11.247
   42DOPE   C36 5381   1.033   4.688  11.727
   42DOPE   H6X 5382   0.962   4.646  11.949
   42DOPE   H6Y 5383   0.977   4.765  11.553
   42DOPE   C37 5384   1.147   4.762  11.946
   42DOPE   H7X 5385   1.205   4.821  11.724
   42DOPE   H7Y 5386   1.098   4.835  12.153
   42DOPE   C38 5387   1.245   4.675  12.189
   42DOPE   H8X 5388   1.301   4.740  12.402
   42DOPE   H8Y 5389   1.320   4.633  11.979
   42DOPE   C39 5390   1.175   4.561  12.402
   42DOPE   H9X 5391   1.135   4.485  12.195
   42DOPE  C310 5392   1.162   4.536  12.795
   42DOPE  H10X 5393   1.109   4.444  12.879
   42DOPE  C311 5394   1.211   4.613  13.152
   42DOPE  H11X 5395   1.232   4.534  13.374
   42DOPE  H11Y 5396   1.306   4.667  13.098
   42DOPE  C312 5397   1.111   4.707  13.359
   42DOPE  H12X 5398   1.017   4.650  13.395
   42DOPE  H12Y 5399   1.092   4.798  13.176
   42DOPE  C313 5400   1.148   4.744  13.791
   42DOPE  H13X 5401   1.246   4.795  13.791
   42DOPE  H13Y 5402   1.073   4.812  13.920
   42DOPE  C314 5403   1.158   4.623  14.070
   42DOPE  H14X 5404   1.147   4.658  14.385
   42DOPE  H14Y 5405   1.259   4.585  14.004
   42DOPE  C315 5406   1.061   4.506  14.019
   42DOPE  H15X 5407   1.084   4.445  13.752
   42DOPE  H15Y 5408   0.965   4.560  13.980
   42DOPE  C316 5409   1.045   4.415  14.391
   42DOPE  H16X 5410   0.954   4.450  14.544
   42DOPE  H16Y 5411   1.123   4.438  14.610
   42DOPE  C317 5412   1.046   4.261  14.340
   42DOPE  H17X 5413   0.973   4.226  14.118
   42DOPE  H17Y 5414   1.146   4.229  14.232
   42DOPE  C318 5415   1.010   4.184  14.721
   42DOPE  H18X 5416   0.981   4.080  14.643
   42DOPE  H18Y 5417   1.095   4.183  14.937
   42DOPE  H18Z 5418   0.924   4.231  14.874
   43DOPE     N 5419   1.327   3.448   9.402
   43DOPE   HN1 5420   1.235   3.493   9.351
   43DOPE   HN2 5421   1.322   3.400   9.678
   43DOPE   HN3 5422   1.396   3.526   9.417
   43DOPE   C12 5423   1.363   3.350   9.075
   43DOPE  H12A 5424   1.457   3.298   9.168
   43DOPE  H12B 5425   1.385   3.408   8.802
   43DOPE   C11 5426   1.252   3.247   8.991
   43DOPE  H11A 5427   1.278   3.191   8.712
   43DOPE  H11B 5428   1.158   3.300   8.913
   43DOPE     P 5429   1.302   3.018   9.354
   43DOPE   O13 5430   1.410   3.031   9.657
   43DOPE   O14 5431   1.340   2.977   8.943
   43DOPE   O11 5432   1.187   2.923   9.507
   43DOPE   O12 5433   1.228   3.160   9.327
   43DOPE    C1 5434   1.078   2.969   9.747
   43DOPE    HA 5435   1.017   2.880   9.831
   43DOPE    HB 5436   1.012   3.037   9.576
   43DOPE    C2 5437   1.115   3.039  10.155
   43DOPE    HS 5438   1.163   3.136  10.077
   43DOPE   O21 5439   1.202   2.954  10.386
   43DOPE   C21 5440   1.303   3.016  10.566
   43DOPE   O22 5441   1.323   3.136  10.572
   43DOPE   C22 5442   1.393   2.915  10.782
   43DOPE   H2R 5443   1.474   2.972  10.932
   43DOPE   H2S 5444   1.438   2.851  10.545
   43DOPE    C3 5445   0.981   3.069  10.383
   43DOPE    HX 5446   0.927   2.971  10.377
   43DOPE    HY 5447   0.922   3.142  10.209
   43DOPE   O31 5448   1.001   3.117  10.785
   43DOPE   C31 5449   0.901   3.083  11.034
   43DOPE   O32 5450   0.801   3.022  10.935
   43DOPE   C32 5451   0.940   3.116  11.463
   43DOPE   H2X 5452   0.975   3.020  11.592
   43DOPE   H2Y 5453   1.024   3.188  11.463
   43DOPE   C23 5454   1.321   2.826  11.094
   43DOPE   H3R 5455   1.394   2.751  11.205
   43DOPE   H3S 5456   1.237   2.770  10.953
   43DOPE   C24 5457   1.268   2.901  11.463
   43DOPE   H4R 5458   1.181   2.964  11.370
   43DOPE   H4S 5459   1.345   2.969  11.592
   43DOPE   C25 5460   1.225   2.801  11.784
   43DOPE   H5R 5461   1.316   2.770  11.952
   43DOPE   H5S 5462   1.184   2.710  11.640
   43DOPE   C26 5463   1.119   2.854  12.075
   43DOPE   H6R 5464   1.018   2.822  11.976
   43DOPE   H6S 5465   1.122   2.965  12.078
   43DOPE   C27 5466   1.148   2.804  12.498
   43DOPE   H7R 5467   1.182   2.698  12.474
   43DOPE   H7S 5468   1.056   2.808  12.687
   43DOPE   C28 5469   1.257   2.887  12.693
   43DOPE   H8R 5470   1.214   2.988  12.750
   43DOPE   H8S 5471   1.340   2.901  12.474
   43DOPE   C29 5472   1.311   2.825  13.068
   43DOPE   H9R 5473   1.279   2.722  13.140
   43DOPE  C210 5474   1.393   2.891  13.314
   43DOPE  H10R 5475   1.426   2.844  13.593
   43DOPE  C211 5476   1.439   3.033  13.242
   43DOPE  H11R 5477   1.386   3.084  12.993
   43DOPE  H11S 5478   1.547   3.036  13.164
   43DOPE  C212 5479   1.414   3.111  13.626
   43DOPE  H12R 5480   1.313   3.096  13.758
   43DOPE  H12S 5481   1.429   3.220  13.560
   43DOPE  C213 5482   1.512   3.077  13.947
   43DOPE  H13R 5483   1.608   3.096  13.794
   43DOPE  H13S 5484   1.509   2.971  14.043
   43DOPE  C214 5485   1.500   3.173  14.292
   43DOPE  H14R 5486   1.454   3.268  14.184
   43DOPE  H14S 5487   1.604   3.198  14.370
   43DOPE  C215 5488   1.424   3.117  14.649
   43DOPE  H15R 5489   1.326   3.076  14.547
   43DOPE  H15S 5490   1.402   3.203  14.853
   43DOPE  C216 5491   1.503   3.010  14.880
   43DOPE  H16R 5492   1.611   3.031  14.865
   43DOPE  H16S 5493   1.488   2.912  14.730
   43DOPE  C217 5494   1.462   3.002  15.324
   43DOPE  H17R 5495   1.380   3.075  15.366
   43DOPE  H17S 5496   1.544   3.041  15.516
   43DOPE  C218 5497   1.430   2.860  15.477
   43DOPE  H18R 5498   1.326   2.839  15.561
   43DOPE  H18S 5499   1.493   2.837  15.744
   43DOPE  H18T 5500   1.456   2.787  15.240
   43DOPE   C33 5501   0.823   3.169  11.724
   43DOPE   H3X 5502   0.726   3.126  11.622
   43DOPE   H3Y 5503   0.817   3.279  11.691
   43DOPE   C34 5504   0.841   3.132  12.168
   43DOPE   H4X 5505   0.755   3.171  12.345
   43DOPE   H4Y 5506   0.846   3.022  12.201
   43DOPE   C35 5507   0.968   3.195  12.330
   43DOPE   H5X 5508   0.964   3.304  12.276
   43DOPE   H5Y 5509   1.058   3.158  12.171
   43DOPE   C36 5510   0.989   3.173  12.780
   43DOPE   H6X 5511   1.007   3.066  12.849
   43DOPE   H6Y 5512   0.900   3.206  12.954
   43DOPE   C37 5513   1.108   3.260  12.888
   43DOPE   H7X 5514   1.189   3.240  12.663
   43DOPE   H7Y 5515   1.078   3.365  12.861
   43DOPE   C38 5516   1.167   3.240  13.299
   43DOPE   H8X 5517   1.266   3.290  13.290
   43DOPE   H8Y 5518   1.184   3.131  13.314
   43DOPE   C39 5519   1.094   3.294  13.653
   43DOPE   H9X 5520   1.091   3.403  13.680
   43DOPE  C310 5521   1.037   3.218  13.938
   43DOPE  H10X 5522   0.998   3.270  14.199
   43DOPE  C311 5523   1.035   3.068  13.959
   43DOPE  H11X 5524   1.103   3.020  13.737
   43DOPE  H11Y 5525   1.072   3.037  14.253
   43DOPE  C312 5526   0.895   3.007  13.890
   43DOPE  H12X 5527   0.856   3.049  13.602
   43DOPE  H12Y 5528   0.825   3.037  14.133
   43DOPE  C313 5529   0.897   2.854  13.854
   43DOPE  H13X 5530   0.804   2.822  13.698
   43DOPE  H13Y 5531   0.982   2.824  13.656
   43DOPE  C314 5532   0.907   2.778  14.256
   43DOPE  H14X 5533   0.823   2.705  14.277
   43DOPE  H14Y 5534   0.893   2.850  14.508
   43DOPE  C315 5535   1.042   2.705  14.298
   43DOPE  H15X 5536   1.121   2.780  14.235
   43DOPE  H15Y 5537   1.048   2.630  14.052
   43DOPE  C316 5538   1.068   2.635  14.703
   43DOPE  H16X 5539   1.028   2.532  14.685
   43DOPE  H16Y 5540   1.010   2.680  14.949
   43DOPE  C317 5541   1.215   2.614  14.838
   43DOPE  H17X 5542   1.220   2.636  15.168
   43DOPE  H17Y 5543   1.240   2.506  14.805
   43DOPE  C318 5544   1.323   2.693  14.622
   43DOPE  H18X 5545   1.423   2.658  14.727
   43DOPE  H18Y 5546   1.317   2.679  14.292
   43DOPE  H18Z 5547   1.313   2.801  14.691
   44DOPE     N 5548   3.202   1.295   9.477
   44DOPE   HN1 5549   3.256   1.374   9.351
   44DOPE   HN2 5550   3.102   1.302   9.390
   44DOPE   HN3 5551   3.206   1.301   9.786
   44DOPE   C12 5552   3.263   1.163   9.345
   44DOPE  H12A 5553   3.323   1.121   9.594
   44DOPE  H12B 5554   3.330   1.182   9.087
   44DOPE   C11 5555   3.151   1.067   9.222
   44DOPE  H11A 5556   3.084   1.115   8.997
   44DOPE  H11B 5557   3.088   1.047   9.495
   44DOPE     P 5558   3.200   0.817   9.303
   44DOPE   O13 5559   3.266   0.701   9.111
   44DOPE   O14 5560   3.059   0.804   9.429
   44DOPE   O11 5561   3.288   0.864   9.675
   44DOPE   O12 5562   3.208   0.950   9.039
   44DOPE    C1 5563   3.325   0.770   9.975
   44DOPE    HA 5564   3.404   0.816  10.164
   44DOPE    HB 5565   3.368   0.677   9.843
   44DOPE    C2 5566   3.207   0.733  10.257
   44DOPE    HS 5567   3.146   0.657  10.089
   44DOPE   O21 5568   3.128   0.851  10.332
   44DOPE   C21 5569   3.007   0.828  10.458
   44DOPE   O22 5570   2.942   0.726  10.425
   44DOPE   C22 5571   2.968   0.950  10.713
   44DOPE   H2R 5572   2.872   0.927  10.860
   44DOPE   H2S 5573   2.955   1.036  10.509
   44DOPE    C3 5574   3.255   0.671  10.659
   44DOPE    HX 5575   3.350   0.619  10.590
   44DOPE    HY 5576   3.178   0.597  10.755
   44DOPE   O31 5577   3.285   0.769  10.965
   44DOPE   C31 5578   3.279   0.725  11.343
   44DOPE   O32 5579   3.247   0.613  11.445
   44DOPE   C32 5580   3.320   0.837  11.631
   44DOPE   H2X 5581   3.354   0.922  11.448
   44DOPE   H2Y 5582   3.231   0.869  11.802
   44DOPE   C23 5583   3.076   0.983  11.034
   44DOPE   H3R 5584   3.175   0.998  10.887
   44DOPE   H3S 5585   3.085   0.898  11.247
   44DOPE   C24 5586   3.045   1.108  11.277
   44DOPE   H4R 5587   2.985   1.082  11.541
   44DOPE   H4S 5588   2.973   1.159  11.085
   44DOPE   C25 5589   3.167   1.200  11.367
   44DOPE   H5R 5590   3.136   1.306  11.391
   44DOPE   H5S 5591   3.239   1.196  11.112
   44DOPE   C26 5592   3.240   1.179  11.769
   44DOPE   H6R 5593   3.311   1.263  11.817
   44DOPE   H6S 5594   3.301   1.088  11.748
   44DOPE   C27 5595   3.146   1.169  12.132
   44DOPE   H7R 5596   3.058   1.107  12.054
   44DOPE   H7S 5597   3.108   1.270  12.213
   44DOPE   C28 5598   3.211   1.099  12.489
   44DOPE   H8R 5599   3.279   1.170  12.645
   44DOPE   H8S 5600   3.273   1.017  12.369
   44DOPE   C29 5601   3.108   1.039  12.765
   44DOPE   H9R 5602   3.082   0.934  12.705
   44DOPE  C210 5603   3.044   1.105  13.056
   44DOPE  H10R 5604   2.971   1.052  13.245
   44DOPE  C211 5605   3.066   1.250  13.158
   44DOPE  H11R 5606   2.970   1.305  13.155
   44DOPE  H11S 5607   3.134   1.299  12.939
   44DOPE  C212 5608   3.131   1.263  13.572
   44DOPE  H12R 5609   3.170   1.366  13.620
   44DOPE  H12S 5610   3.219   1.196  13.587
   44DOPE  C213 5611   3.035   1.229  13.914
   44DOPE  H13R 5612   2.956   1.159  13.803
   44DOPE  H13S 5613   2.986   1.322  14.010
   44DOPE  C214 5614   3.107   1.162  14.265
   44DOPE  H14R 5615   3.168   1.238  14.424
   44DOPE  H14S 5616   3.171   1.086  14.133
   44DOPE  C215 5617   3.015   1.088  14.553
   44DOPE  H15R 5618   2.933   1.161  14.571
   44DOPE  H15S 5619   3.065   1.077  14.847
   44DOPE  C216 5620   2.955   0.953  14.415
   44DOPE  H16R 5621   2.996   0.867  14.583
   44DOPE  H16S 5622   2.981   0.940  14.091
   44DOPE  C217 5623   2.802   0.956  14.436
   44DOPE  H17R 5624   2.757   0.892  14.199
   44DOPE  H17S 5625   2.777   1.060  14.364
   44DOPE  C218 5626   2.730   0.927  14.829
   44DOPE  H18R 5627   2.746   0.822  14.925
   44DOPE  H18S 5628   2.622   0.942  14.781
   44DOPE  H18T 5629   2.759   0.996  15.075
   44DOPE   C33 5630   3.431   0.789  11.922
   44DOPE   H3X 5631   3.503   0.727  11.748
   44DOPE   H3Y 5632   3.382   0.723  12.147
   44DOPE   C34 5633   3.515   0.892  12.156
   44DOPE   H4X 5634   3.449   0.937  12.387
   44DOPE   H4Y 5635   3.593   0.836  12.327
   44DOPE   C35 5636   3.585   1.002  11.913
   44DOPE   H5X 5637   3.510   1.059  11.736
   44DOPE   H5Y 5638   3.657   0.958  11.697
   44DOPE   C36 5639   3.664   1.103  12.168
   44DOPE   H6X 5640   3.720   1.172  11.964
   44DOPE   H6Y 5641   3.737   1.052  12.363
   44DOPE   C37 5642   3.566   1.182  12.423
   44DOPE   H7X 5643   3.489   1.226  12.216
   44DOPE   H7Y 5644   3.513   1.110  12.621
   44DOPE   C38 5645   3.627   1.292  12.681
   44DOPE   H8X 5646   3.676   1.368  12.489
   44DOPE   H8Y 5647   3.706   1.250  12.879
   44DOPE   C39 5648   3.510   1.347  12.918
   44DOPE   H9X 5649   3.456   1.430  12.777
   44DOPE  C310 5650   3.464   1.296  13.260
   44DOPE  H10X 5651   3.375   1.340  13.401
   44DOPE  C311 5652   3.524   1.174  13.455
   44DOPE  H11X 5653   3.607   1.136  13.269
   44DOPE  H11Y 5654   3.568   1.203  13.749
   44DOPE  C312 5655   3.435   1.051  13.515
   44DOPE  H12X 5656   3.486   0.960  13.398
   44DOPE  H12Y 5657   3.339   1.059  13.344
   44DOPE  C313 5658   3.409   1.028  13.959
   44DOPE  H13X 5659   3.503   1.019  14.130
   44DOPE  H13Y 5660   3.362   1.121  14.073
   44DOPE  C314 5661   3.320   0.906  14.034
   44DOPE  H14X 5662   3.240   0.899  13.803
   44DOPE  H14Y 5663   3.269   0.925  14.322
   44DOPE  C315 5664   3.395   0.774  14.070
   44DOPE  H15X 5665   3.491   0.791  14.229
   44DOPE  H15Y 5666   3.418   0.734  13.767
   44DOPE  C316 5667   3.312   0.673  14.313
   44DOPE  H16X 5668   3.359   0.573  14.292
   44DOPE  H16Y 5669   3.210   0.664  14.184
   44DOPE  C317 5670   3.302   0.715  14.757
   44DOPE  H17X 5671   3.405   0.735  14.871
   44DOPE  H17Y 5672   3.246   0.810  14.793
   44DOPE  C318 5673   3.232   0.611  15.021
   44DOPE  H18X 5674   3.129   0.593  14.907
   44DOPE  H18Y 5675   3.288   0.515  15.027
   44DOPE  H18Z 5676   3.226   0.651  15.333
   45DOPE     N 5677   4.323   0.806   8.994
   45DOPE   HN1 5678   4.408   0.867   8.982
   45DOPE   HN2 5679   4.311   0.763   9.276
   45DOPE   HN3 5680   4.337   0.733   8.772
   45DOPE   C12 5681   4.202   0.884   8.874
   45DOPE  H12A 5682   4.189   0.871   8.547
   45DOPE  H12B 5683   4.221   0.991   8.949
   45DOPE   C11 5684   4.077   0.835   9.087
   45DOPE  H11A 5685   4.099   0.830   9.417
   45DOPE  H11B 5686   4.047   0.733   8.994
   45DOPE     P 5687   3.923   1.023   9.327
   45DOPE   O13 5688   3.792   1.079   9.216
   45DOPE   O14 5689   4.038   1.111   9.414
   45DOPE   O11 5690   3.909   0.914   9.666
   45DOPE   O12 5691   3.970   0.924   8.988
   45DOPE    C1 5692   3.789   0.904   9.885
   45DOPE    HA 5693   3.792   0.810  10.062
   45DOPE    HB 5694   3.699   0.900   9.687
   45DOPE    C2 5695   3.778   1.023  10.176
   45DOPE    HS 5696   3.786   1.117  10.002
   45DOPE   O21 5697   3.884   1.010  10.467
   45DOPE   C21 5698   3.934   1.126  10.590
   45DOPE   O22 5699   3.885   1.235  10.530
   45DOPE   C22 5700   4.063   1.100  10.830
   45DOPE   H2R 5701   4.136   1.053  10.620
   45DOPE   H2S 5702   4.041   1.027  11.073
   45DOPE    C3 5703   3.639   1.018  10.368
   45DOPE    HX 5704   3.563   1.055  10.149
   45DOPE    HY 5705   3.641   1.089  10.626
   45DOPE   O31 5706   3.612   0.880  10.470
   45DOPE   C31 5707   3.591   0.864  10.854
   45DOPE   O32 5708   3.546   0.949  11.079
   45DOPE   C32 5709   3.635   0.725  10.989
   45DOPE   H2X 5710   3.542   0.676  11.088
   45DOPE   H2Y 5711   3.675   0.670  10.728
   45DOPE   C23 5712   4.125   1.228  11.013
   45DOPE   H3R 5713   4.066   1.261  11.277
   45DOPE   H3S 5714   4.118   1.310  10.788
   45DOPE   C24 5715   4.274   1.216  11.124
   45DOPE   H4R 5716   4.311   1.316  11.214
   45DOPE   H4S 5717   4.330   1.186  10.848
   45DOPE   C25 5718   4.306   1.115  11.463
   45DOPE   H5R 5719   4.415   1.114  11.517
   45DOPE   H5S 5720   4.276   1.013  11.361
   45DOPE   C26 5721   4.236   1.146  11.862
   45DOPE   H6R 5722   4.265   1.068  12.084
   45DOPE   H6S 5723   4.126   1.138  11.817
   45DOPE   C27 5724   4.268   1.284  12.039
   45DOPE   H7R 5725   4.226   1.362  11.841
   45DOPE   H7S 5726   4.379   1.297  12.042
   45DOPE   C28 5727   4.215   1.303  12.471
   45DOPE   H8R 5728   4.257   1.397  12.597
   45DOPE   H8S 5729   4.252   1.218  12.657
   45DOPE   C29 5730   4.064   1.308  12.471
   45DOPE   H9R 5731   4.017   1.263  12.207
   45DOPE  C210 5732   3.983   1.351  12.765
   45DOPE  H10R 5733   3.875   1.348  12.711
   45DOPE  C211 5734   4.019   1.404  13.176
   45DOPE  H11R 5735   3.926   1.441  13.326
   45DOPE  H11S 5736   4.088   1.491  13.152
   45DOPE  C212 5737   4.081   1.296  13.449
   45DOPE  H12R 5738   4.087   1.333  13.761
   45DOPE  H12S 5739   4.186   1.280  13.344
   45DOPE  C213 5740   4.010   1.158  13.440
   45DOPE  H13R 5741   4.083   1.088  13.563
   45DOPE  H13S 5742   3.992   1.124  13.128
   45DOPE  C214 5743   3.881   1.144  13.689
   45DOPE  H14R 5744   3.809   1.218  13.563
   45DOPE  H14S 5745   3.899   1.172  14.007
   45DOPE  C215 5746   3.815   1.004  13.662
   45DOPE  H15R 5747   3.851   0.952  13.386
   45DOPE  H15S 5748   3.707   1.016  13.623
   45DOPE  C216 5749   3.822   0.909  14.025
   45DOPE  H16R 5750   3.919   0.857  14.046
   45DOPE  H16S 5751   3.746   0.829  13.971
   45DOPE  C217 5752   3.791   0.970  14.433
   45DOPE  H17R 5753   3.708   1.043  14.412
   45DOPE  H17S 5754   3.882   1.025  14.541
   45DOPE  C218 5755   3.755   0.859  14.727
   45DOPE  H18R 5756   3.841   0.789  14.757
   45DOPE  H18S 5757   3.667   0.802  14.616
   45DOPE  H18T 5758   3.727   0.897  15.030
   45DOPE   C33 5759   3.741   0.724  11.334
   45DOPE   H3X 5760   3.766   0.618  11.400
   45DOPE   H3Y 5761   3.702   0.766  11.616
   45DOPE   C34 5762   3.871   0.796  11.223
   45DOPE   H4X 5763   3.910   0.748  10.947
   45DOPE   H4Y 5764   3.851   0.903  11.151
   45DOPE   C35 5765   3.980   0.787  11.547
   45DOPE   H5X 5766   4.078   0.798  11.385
   45DOPE   H5Y 5767   3.980   0.687  11.688
   45DOPE   C36 5768   3.983   0.899  11.865
   45DOPE   H6X 5769   3.932   0.990  11.748
   45DOPE   H6Y 5770   4.090   0.926  11.910
   45DOPE   C37 5771   3.930   0.864  12.285
   45DOPE   H7X 5772   3.953   0.950  12.486
   45DOPE   H7Y 5773   3.819   0.854  12.273
   45DOPE   C38 5774   3.986   0.735  12.474
   45DOPE   H8X 5775   3.928   0.649  12.354
   45DOPE   H8Y 5776   3.964   0.739  12.801
   45DOPE   C39 5777   4.133   0.709  12.402
   45DOPE   H9X 5778   4.156   0.650  12.132
   45DOPE  C310 5779   4.235   0.752  12.630
   45DOPE  H10X 5780   4.339   0.723  12.552
   45DOPE  C311 5781   4.220   0.835  13.002
   45DOPE  H11X 5782   4.310   0.897  13.053
   45DOPE  H11Y 5783   4.135   0.907  12.966
   45DOPE  C312 5784   4.191   0.749  13.374
   45DOPE  H12X 5785   4.276   0.682  13.449
   45DOPE  H12Y 5786   4.103   0.683  13.314
   45DOPE  C313 5787   4.154   0.836  13.737
   45DOPE  H13X 5788   4.063   0.890  13.644
   45DOPE  H13Y 5789   4.129   0.770  13.992
   45DOPE  C314 5790   4.259   0.940  13.866
   45DOPE  H14X 5791   4.280   1.009  13.614
   45DOPE  H14Y 5792   4.353   0.887  13.941
   45DOPE  C315 5793   4.218   1.025  14.229
   45DOPE  H15X 5794   4.134   1.093  14.157
   45DOPE  H15Y 5795   4.306   1.089  14.313
   45DOPE  C316 5796   4.177   0.944  14.595
   45DOPE  H16X 5797   4.256   0.868  14.655
   45DOPE  H16Y 5798   4.082   0.889  14.544
   45DOPE  C317 5799   4.162   1.030  14.970
   45DOPE  H17X 5800   4.252   1.096  15.000
   45DOPE  H17Y 5801   4.072   1.096  14.958
   45DOPE  C318 5802   4.153   0.938  15.327
   45DOPE  H18X 5803   4.167   0.994  15.609
   45DOPE  H18Y 5804   4.056   0.885  15.330
   45DOPE  H18Z 5805   4.232   0.860  15.306
   46DOPE     N 5806   4.315   6.672   9.594
   46DOPE   HN1 5807   4.264   6.755   9.489
   46DOPE   HN2 5808   4.264   6.619   9.810
   46DOPE   HN3 5809   4.403   6.711   9.720
   46DOPE   C12 5810   4.365   6.591   9.243
   46DOPE  H12A 5811   4.341   6.648   8.964
   46DOPE  H12B 5812   4.315   6.492   9.234
   46DOPE   C11 5813   4.517   6.579   9.279
   46DOPE  H11A 5814   4.561   6.541   8.994
   46DOPE  H11B 5815   4.543   6.507   9.522
   46DOPE     P 5816   4.588   6.827   9.099
   46DOPE   O13 5817   4.508   6.935   9.279
   46DOPE   O14 5818   4.550   6.782   8.691
   46DOPE   O11 5819   4.744   6.852   9.132
   46DOPE   O12 5820   4.570   6.705   9.390
   46DOPE    C1 5821   4.831   6.739   9.069
   46DOPE    HA 5822   4.927   6.775   8.946
   46DOPE    HB 5823   4.789   6.669   8.838
   46DOPE    C2 5824   4.861   6.659   9.462
   46DOPE    HS 5825   4.766   6.646   9.636
   46DOPE   O21 5826   4.962   6.727   9.690
   46DOPE   C21 5827   4.912   6.805   9.972
   46DOPE   O22 5828   4.795   6.822  10.056
   46DOPE   C22 5829   5.024   6.869  10.215
   46DOPE   H2R 5830   4.984   6.964  10.338
   46DOPE   H2S 5831   5.109   6.891  10.014
   46DOPE    C3 5832   4.906   6.513   9.378
   46DOPE    HX 5833   4.985   6.516   9.147
   46DOPE    HY 5834   4.819   6.457   9.252
   46DOPE   O31 5835   4.959   6.448   9.732
   46DOPE   C31 5836   4.868   6.410  10.008
   46DOPE   O32 5837   4.748   6.423   9.969
   46DOPE   C32 5838   4.944   6.363  10.380
   46DOPE   H2X 5839   5.002   6.273  10.284
   46DOPE   H2Y 5840   5.015   6.444  10.455
   46DOPE   C23 5841   5.065   6.779  10.566
   46DOPE   H3R 5842   5.168   6.803  10.671
   46DOPE   H3S 5843   5.068   6.671  10.479
   46DOPE   C24 5844   4.968   6.800  10.911
   46DOPE   H4R 5845   4.871   6.757  10.818
   46DOPE   H4S 5846   4.947   6.908  10.950
   46DOPE   C25 5847   5.019   6.743  11.307
   46DOPE   H5R 5848   5.099   6.667  11.247
   46DOPE   H5S 5849   4.938   6.690  11.469
   46DOPE   C26 5850   5.073   6.856  11.574
   46DOPE   H6R 5851   5.065   6.950  11.400
   46DOPE   H6S 5852   5.181   6.843  11.637
   46DOPE   C27 5853   4.995   6.886  11.958
   46DOPE   H7R 5854   4.888   6.894  11.883
   46DOPE   H7S 5855   5.030   6.987  12.054
   46DOPE   C28 5856   5.013   6.786  12.303
   46DOPE   H8R 5857   5.119   6.755  12.339
   46DOPE   H8S 5858   4.957   6.694  12.231
   46DOPE   C29 5859   4.959   6.857  12.669
   46DOPE   H9R 5860   4.850   6.867  12.678
   46DOPE  C210 5861   5.030   6.898  12.990
   46DOPE  H10R 5862   4.977   6.955  13.224
   46DOPE  C211 5863   5.178   6.882  13.056
   46DOPE  H11R 5864   5.231   6.895  12.765
   46DOPE  H11S 5865   5.200   6.778  13.155
   46DOPE  C212 5866   5.243   6.978  13.365
   46DOPE  H12R 5867   5.207   7.082  13.314
   46DOPE  H12S 5868   5.353   6.979  13.305
   46DOPE  C213 5869   5.226   6.940  13.812
   46DOPE  H13R 5870   5.274   7.019  13.998
   46DOPE  H13S 5871   5.281   6.846  13.869
   46DOPE  C214 5872   5.080   6.922  13.953
   46DOPE  H14R 5873   5.028   6.853  13.743
   46DOPE  H14S 5874   5.027   7.019  13.950
   46DOPE  C215 5875   5.065   6.853  14.361
   46DOPE  H15R 5876   5.123   6.759  14.361
   46DOPE  H15S 5877   4.958   6.829  14.412
   46DOPE  C216 5878   5.118   6.933  14.718
   46DOPE  H16R 5879   5.051   7.020  14.757
   46DOPE  H16S 5880   5.217   6.973  14.643
   46DOPE  C217 5881   5.115   6.849  15.105
   46DOPE  H17R 5882   5.070   6.750  15.048
   46DOPE  H17S 5883   5.040   6.907  15.276
   46DOPE  C218 5884   5.238   6.836  15.381
   46DOPE  H18R 5885   5.207   6.797  15.678
   46DOPE  H18S 5886   5.290   6.931  15.423
   46DOPE  H18T 5887   5.319   6.772  15.273
   46DOPE   C33 5888   4.862   6.327  10.761
   46DOPE   H3X 5889   4.915   6.245  10.923
   46DOPE   H3Y 5890   4.762   6.286  10.671
   46DOPE   C34 5891   4.848   6.446  11.049
   46DOPE   H4X 5892   4.947   6.469  11.181
   46DOPE   H4Y 5893   4.817   6.532  10.860
   46DOPE   C35 5894   4.746   6.424  11.391
   46DOPE   H5X 5895   4.786   6.348  11.601
   46DOPE   H5Y 5896   4.652   6.384  11.256
   46DOPE   C36 5897   4.708   6.550  11.634
   46DOPE   H6X 5898   4.797   6.586  11.802
   46DOPE   H6Y 5899   4.632   6.523  11.865
   46DOPE   C37 5900   4.651   6.664  11.373
   46DOPE   H7X 5901   4.728   6.691  11.151
   46DOPE   H7Y 5902   4.564   6.627  11.199
   46DOPE   C38 5903   4.615   6.795  11.592
   46DOPE   H8X 5904   4.602   6.875  11.364
   46DOPE   H8Y 5905   4.702   6.826  11.775
   46DOPE   C39 5906   4.490   6.781  11.838
   46DOPE   H9X 5907   4.396   6.785  11.664
   46DOPE  C310 5908   4.485   6.760  12.237
   46DOPE  H10X 5909   4.387   6.748  12.381
   46DOPE  C311 5910   4.604   6.748  12.513
   46DOPE  H11X 5911   4.699   6.734  12.342
   46DOPE  H11Y 5912   4.616   6.840  12.696
   46DOPE  C312 5913   4.589   6.630  12.804
   46DOPE  H12X 5914   4.571   6.535  12.639
   46DOPE  H12Y 5915   4.501   6.649  13.002
   46DOPE  C313 5916   4.713   6.611  13.071
   46DOPE  H13X 5917   4.749   6.710  13.176
   46DOPE  H13Y 5918   4.684   6.553  13.341
   46DOPE  C314 5919   4.826   6.537  12.855
   46DOPE  H14X 5920   4.837   6.576  12.549
   46DOPE  H14Y 5921   4.797   6.430  12.822
   46DOPE  C315 5922   4.959   6.545  13.083
   46DOPE  H15X 5923   4.983   6.649  13.167
   46DOPE  H15Y 5924   5.042   6.508  12.891
   46DOPE  C316 5925   4.948   6.463  13.467
   46DOPE  H16X 5926   4.907   6.365  13.368
   46DOPE  H16Y 5927   4.876   6.511  13.674
   46DOPE  C317 5928   5.077   6.433  13.689
   46DOPE  H17X 5929   5.050   6.362  13.932
   46DOPE  H17Y 5930   5.148   6.381  13.488
   46DOPE  C318 5931   5.141   6.557  13.872
   46DOPE  H18X 5932   5.063   6.604  14.061
   46DOPE  H18Y 5933   5.228   6.533  14.064
   46DOPE  H18Z 5934   5.173   6.630  13.641
   47DOPE     N 5935   1.528   6.163   9.414
   47DOPE   HN1 5936   1.542   6.265   9.384
   47DOPE   HN2 5937   1.426   6.147   9.471
   47DOPE   HN3 5938   1.582   6.123   9.651
   47DOPE   C12 5939   1.550   6.085   9.042
   47DOPE  H12A 5940   1.652   6.040   9.048
   47DOPE  H12B 5941   1.541   6.155   8.787
   47DOPE   C11 5942   1.448   5.972   9.048
   47DOPE  H11A 5943   1.465   5.925   9.336
   47DOPE  H11B 5944   1.464   5.898   8.814
   47DOPE     P 5945   1.198   5.911   9.186
   47DOPE   O13 5946   1.109   5.889   8.841
   47DOPE   O14 5947   1.146   5.964   9.564
   47DOPE   O11 5948   1.277   5.780   9.288
   47DOPE   O12 5949   1.314   6.012   9.051
   47DOPE    C1 5950   1.303   5.684   8.979
   47DOPE    HA 5951   1.340   5.731   8.700
   47DOPE    HB 5952   1.208   5.633   8.904
   47DOPE    C2 5953   1.408   5.579   9.120
   47DOPE    HS 5954   1.433   5.511   8.868
   47DOPE   O21 5955   1.359   5.501   9.450
   47DOPE   C21 5956   1.230   5.480   9.504
   47DOPE   O22 5957   1.153   5.430   9.264
   47DOPE   C22 5958   1.213   5.498   9.960
   47DOPE   H2R 5959   1.303   5.552  10.077
   47DOPE   H2S 5960   1.217   5.396  10.092
   47DOPE    C3 5961   1.541   5.643   9.273
   47DOPE    HX 5962   1.619   5.672   9.054
   47DOPE    HY 5963   1.577   5.553   9.420
   47DOPE   O31 5964   1.516   5.738   9.585
   47DOPE   C31 5965   1.602   5.807   9.795
   47DOPE   O32 5966   1.715   5.839   9.693
   47DOPE   C32 5967   1.510   5.877  10.113
   47DOPE   H2X 5968   1.568   5.962  10.224
   47DOPE   H2Y 5969   1.422   5.918   9.951
   47DOPE   C23 5970   1.088   5.573  10.116
   47DOPE   H3R 5971   0.996   5.519  10.032
   47DOPE   H3S 5972   1.082   5.675   9.981
   47DOPE   C24 5973   1.099   5.583  10.575
   47DOPE   H4R 5974   1.201   5.621  10.647
   47DOPE   H4S 5975   1.096   5.480  10.695
   47DOPE   C25 5976   0.997   5.673  10.794
   47DOPE   H5R 5977   0.895   5.654  10.674
   47DOPE   H5S 5978   1.022   5.779  10.731
   47DOPE   C26 5979   0.999   5.649  11.253
   47DOPE   H6R 5980   1.103   5.636  11.361
   47DOPE   H6S 5981   0.943   5.555  11.319
   47DOPE   C27 5982   0.933   5.760  11.499
   47DOPE   H7R 5983   0.844   5.791  11.319
   47DOPE   H7S 5984   1.001   5.848  11.517
   47DOPE   C28 5985   0.883   5.724  11.928
   47DOPE   H8R 5986   0.790   5.663  11.889
   47DOPE   H8S 5987   0.849   5.820  12.063
   47DOPE   C29 5988   0.976   5.653  12.213
   47DOPE   H9R 5989   0.983   5.546  12.156
   47DOPE  C210 5990   1.056   5.706  12.501
   47DOPE  H10R 5991   1.112   5.639  12.702
   47DOPE  C211 5992   1.062   5.854  12.570
   47DOPE  H11R 5993   0.960   5.893  12.627
   47DOPE  H11S 5994   1.092   5.892  12.270
   47DOPE  C212 5995   1.160   5.935  12.846
   47DOPE  H12R 5996   1.134   6.040  12.771
   47DOPE  H12S 5997   1.266   5.920  12.768
   47DOPE  C213 5998   1.135   5.942  13.296
   47DOPE  H13R 5999   1.176   5.853  13.452
   47DOPE  H13S 6000   1.025   5.941  13.335
   47DOPE  C214 6001   1.191   6.072  13.491
   47DOPE  H14R 6002   1.105   6.133  13.596
   47DOPE  H14S 6003   1.246   6.134  13.272
   47DOPE  C215 6004   1.279   6.045  13.854
   47DOPE  H15R 6005   1.383   6.029  13.749
   47DOPE  H15S 6006   1.243   5.951  14.001
   47DOPE  C216 6007   1.277   6.153  14.181
   47DOPE  H16R 6008   1.257   6.254  14.055
   47DOPE  H16S 6009   1.377   6.156  14.331
   47DOPE  C217 6010   1.175   6.117  14.505
   47DOPE  H17R 6011   1.187   6.010  14.592
   47DOPE  H17S 6012   1.073   6.127  14.379
   47DOPE  C218 6013   1.184   6.205  14.871
   47DOPE  H18R 6014   1.192   6.312  14.790
   47DOPE  H18S 6015   1.271   6.176  15.057
   47DOPE  H18T 6016   1.090   6.194  15.045
   47DOPE   C33 6017   1.449   5.797  10.476
   47DOPE   H3X 6018   1.501   5.701  10.518
   47DOPE   H3Y 6019   1.342   5.775  10.416
   47DOPE   C34 6020   1.462   5.861  10.896
   47DOPE   H4X 6021   1.570   5.870  10.974
   47DOPE   H4Y 6022   1.418   5.962  10.899
   47DOPE   C35 6023   1.389   5.776  11.217
   47DOPE   H5X 6024   1.447   5.683  11.277
   47DOPE   H5Y 6025   1.291   5.743  11.091
   47DOPE   C36 6026   1.356   5.850  11.607
   47DOPE   H6X 6027   1.312   5.781  11.835
   47DOPE   H6Y 6028   1.274   5.921  11.535
   47DOPE   C37 6029   1.473   5.927  11.799
   47DOPE   H7X 6030   1.540   5.971  11.571
   47DOPE   H7Y 6031   1.430   6.012  11.973
   47DOPE   C38 6032   1.553   5.841  12.093
   47DOPE   H8X 6033   1.480   5.799  12.312
   47DOPE   H8Y 6034   1.623   5.905  12.270
   47DOPE   C39 6035   1.630   5.734  11.871
   47DOPE   H9X 6036   1.707   5.772  11.664
   47DOPE  C310 6037   1.607   5.602  11.895
   47DOPE  H10X 6038   1.665   5.533  11.706
   47DOPE  C311 6039   1.501   5.537  12.153
   47DOPE  H11X 6040   1.403   5.587  12.105
   47DOPE  H11Y 6041   1.488   5.430  12.066
   47DOPE  C312 6042   1.536   5.544  12.603
   47DOPE  H12X 6043   1.548   5.650  12.696
   47DOPE  H12Y 6044   1.633   5.493  12.657
   47DOPE  C313 6045   1.428   5.481  12.867
   47DOPE  H13X 6046   1.331   5.534  12.813
   47DOPE  H13Y 6047   1.415   5.375  12.777
   47DOPE  C314 6048   1.459   5.487  13.320
   47DOPE  H14X 6049   1.557   5.436  13.377
   47DOPE  H14Y 6050   1.380   5.429  13.482
   47DOPE  C315 6051   1.463   5.629  13.491
   47DOPE  H15X 6052   1.377   5.687  13.365
   47DOPE  H15Y 6053   1.556   5.680  13.389
   47DOPE  C316 6054   1.455   5.636  13.953
   47DOPE  H16X 6055   1.527   5.565  14.091
   47DOPE  H16Y 6056   1.352   5.606  14.046
   47DOPE  C317 6057   1.484   5.777  14.109
   47DOPE  H17X 6058   1.591   5.801  14.058
   47DOPE  H17Y 6059   1.426   5.845  13.917
   47DOPE  C318 6060   1.449   5.804  14.550
   47DOPE  H18X 6061   1.461   5.912  14.619
   47DOPE  H18Y 6062   1.344   5.776  14.613
   47DOPE  H18Z 6063   1.516   5.746  14.751
   48DOPE     N 6064   6.385   1.781   8.436
   48DOPE   HN1 6065   6.286   1.771   8.364
   48DOPE   HN2 6066   6.393   1.869   8.604
   48DOPE   HN3 6067   6.443   1.796   8.178
   48DOPE   C12 6068   6.440   1.677   8.706
   48DOPE  H12A 6069   6.483   1.593   8.529
   48DOPE  H12B 6070   6.358   1.640   8.901
   48DOPE   C11 6071   6.546   1.749   8.955
   48DOPE  H11A 6072   6.637   1.760   8.775
   48DOPE  H11B 6073   6.575   1.686   9.216
   48DOPE     P 6074   6.409   1.898   9.435
   48DOPE   O13 6075   6.289   1.817   9.366
   48DOPE   O14 6076   6.393   2.043   9.516
   48DOPE   O11 6077   6.505   1.832   9.753
   48DOPE   O12 6078   6.502   1.882   9.057
   48DOPE    C1 6079   6.639   1.885   9.747
   48DOPE    HA 6080   6.641   1.996   9.714
   48DOPE    HB 6081   6.700   1.842   9.498
   48DOPE    C2 6082   6.711   1.854  10.140
   48DOPE    HS 6083   6.821   1.872  10.092
   48DOPE   O21 6084   6.691   1.721  10.284
   48DOPE   C21 6085   6.711   1.628  10.017
   48DOPE   O22 6086   6.784   1.636   9.723
   48DOPE   C22 6087   6.636   1.503  10.164
   48DOPE   H2R 6088   6.676   1.481  10.467
   48DOPE   H2S 6089   6.659   1.419   9.957
   48DOPE    C3 6090   6.664   1.952  10.467
   48DOPE    HX 6091   6.696   2.054  10.386
   48DOPE    HY 6092   6.718   1.916  10.731
   48DOPE   O31 6093   6.522   1.956  10.536
   48DOPE   C31 6094   6.478   1.881  10.836
   48DOPE   O32 6095   6.540   1.793  11.004
   48DOPE   C32 6096   6.342   1.933  10.968
   48DOPE   H2X 6097   6.310   2.014  10.758
   48DOPE   H2Y 6098   6.269   1.850  10.947
   48DOPE   C23 6099   6.482   1.514  10.221
   48DOPE   H3R 6100   6.435   1.535   9.924
   48DOPE   H3S 6101   6.457   1.599  10.422
   48DOPE   C24 6102   6.422   1.383  10.392
   48DOPE   H4R 6103   6.464   1.298  10.221
   48DOPE   H4S 6104   6.313   1.384  10.335
   48DOPE   C25 6105   6.446   1.357  10.842
   48DOPE   H5R 6106   6.554   1.341  10.896
   48DOPE   H5S 6107   6.394   1.262  10.920
   48DOPE   C26 6108   6.396   1.467  11.130
   48DOPE   H6R 6109   6.291   1.492  11.043
   48DOPE   H6S 6110   6.455   1.560  11.088
   48DOPE   C27 6111   6.397   1.422  11.574
   48DOPE   H7R 6112   6.373   1.314  11.577
   48DOPE   H7S 6113   6.315   1.473  11.742
   48DOPE   C28 6114   6.532   1.443  11.796
   48DOPE   H8R 6115   6.609   1.388  11.622
   48DOPE   H8S 6116   6.525   1.393  12.093
   48DOPE   C29 6117   6.577   1.587  11.844
   48DOPE   H9R 6118   6.579   1.642  11.556
   48DOPE  C210 6119   6.618   1.655  12.171
   48DOPE  H10R 6120   6.641   1.761  12.132
   48DOPE  C211 6121   6.634   1.609  12.600
   48DOPE  H11R 6122   6.735   1.581  12.678
   48DOPE  H11S 6123   6.591   1.509  12.633
   48DOPE  C212 6124   6.601   1.707  12.948
   48DOPE  H12R 6125   6.634   1.659  13.230
   48DOPE  H12S 6126   6.492   1.721  12.990
   48DOPE  C213 6127   6.664   1.847  12.915
   48DOPE  H13R 6128   6.637   1.893  12.624
   48DOPE  H13S 6129   6.775   1.835  12.930
   48DOPE  C214 6130   6.620   1.943  13.251
   48DOPE  H14R 6131   6.509   1.949  13.257
   48DOPE  H14S 6132   6.659   2.045  13.182
   48DOPE  C215 6133   6.673   1.901  13.662
   48DOPE  H15R 6134   6.782   1.884  13.638
   48DOPE  H15S 6135   6.626   1.804  13.749
   48DOPE  C216 6136   6.644   2.005  13.989
   48DOPE  H16R 6137   6.536   2.031  13.968
   48DOPE  H16S 6138   6.702   2.097  13.923
   48DOPE  C217 6139   6.675   1.959  14.421
   48DOPE  H17R 6140   6.592   1.897  14.538
   48DOPE  H17S 6141   6.677   2.050  14.616
   48DOPE  C218 6142   6.803   1.879  14.478
   48DOPE  H18R 6143   6.820   1.806  14.235
   48DOPE  H18S 6144   6.800   1.822  14.763
   48DOPE  H18T 6145   6.890   1.948  14.484
   48DOPE   C33 6146   6.344   1.991  11.400
   48DOPE   H3X 6147   6.254   2.055  11.445
   48DOPE   H3Y 6148   6.433   2.056  11.448
   48DOPE   C34 6149   6.340   1.883  11.724
   48DOPE   H4X 6150   6.257   1.813  11.655
   48DOPE   H4Y 6151   6.434   1.824  11.715
   48DOPE   C35 6152   6.321   1.940  12.147
   48DOPE   H5X 6153   6.221   1.988  12.171
   48DOPE   H5Y 6154   6.398   2.018  12.207
   48DOPE   C36 6155   6.335   1.831  12.465
   48DOPE   H6X 6156   6.306   1.868  12.765
   48DOPE   H6Y 6157   6.443   1.810  12.474
   48DOPE   C37 6158   6.263   1.699  12.363
   48DOPE   H7X 6159   6.169   1.726  12.210
   48DOPE   H7Y 6160   6.319   1.645  12.129
   48DOPE   C38 6161   6.229   1.611  12.735
   48DOPE   H8X 6162   6.142   1.546  12.675
   48DOPE   H8Y 6163   6.206   1.673  13.002
   48DOPE   C39 6164   6.347   1.523  12.786
   48DOPE   H9X 6165   6.400   1.511  12.501
   48DOPE  C310 6166   6.404   1.466  13.107
   48DOPE  H10X 6167   6.492   1.403  13.059
   48DOPE  C311 6168   6.362   1.475  13.533
   48DOPE  H11X 6169   6.259   1.515  13.566
   48DOPE  H11Y 6170   6.367   1.374  13.674
   48DOPE  C312 6171   6.458   1.558  13.776
   48DOPE  H12X 6172   6.457   1.661  13.653
   48DOPE  H12Y 6173   6.562   1.521  13.743
   48DOPE  C313 6174   6.411   1.552  14.208
   48DOPE  H13X 6175   6.300   1.541  14.208
   48DOPE  H13Y 6176   6.454   1.463  14.361
   48DOPE  C314 6177   6.442   1.682  14.421
   48DOPE  H14X 6178   6.551   1.701  14.373
   48DOPE  H14Y 6179   6.426   1.669  14.748
   48DOPE  C315 6180   6.357   1.798  14.256
   48DOPE  H15X 6181   6.339   1.793  13.926
   48DOPE  H15Y 6182   6.412   1.892  14.307
   48DOPE  C316 6183   6.223   1.812  14.472
   48DOPE  H16X 6184   6.253   1.789  14.784
   48DOPE  H16Y 6185   6.147   1.738  14.382
   48DOPE  C317 6186   6.169   1.956  14.499
   48DOPE  H17X 6187   6.118   1.970  14.790
   48DOPE  H17Y 6188   6.259   2.018  14.502
   48DOPE  C318 6189   6.082   2.012  14.166
   48DOPE  H18X 6190   5.987   1.958  14.151
   48DOPE  H18Y 6191   6.058   2.119  14.217
   48DOPE  H18Z 6192   6.134   2.002  13.872
   49DOPE     N 6193   1.801   6.291   8.466
   49DOPE   HN1 6194   1.819   6.209   8.646
   49DOPE   HN2 6195   1.738   6.264   8.229
   49DOPE   HN3 6196   1.896   6.318   8.355
   49DOPE   C12 6197   1.751   6.414   8.682
   49DOPE  H12A 6198   1.649   6.394   8.796
   49DOPE  H12B 6199   1.745   6.497   8.460
   49DOPE   C11 6200   1.842   6.454   9.030
   49DOPE  H11A 6201   1.946   6.472   8.919
   49DOPE  H11B 6202   1.842   6.373   9.255
   49DOPE     P 6203   1.828   6.643   9.597
   49DOPE   O13 6204   1.703   6.668   9.822
   49DOPE   O14 6205   1.914   6.760   9.501
   49DOPE   O11 6206   1.912   6.533   9.825
   49DOPE   O12 6207   1.789   6.573   9.192
   49DOPE    C1 6208   2.055   6.540   9.831
   49DOPE    HA 6209   2.089   6.640   9.936
   49DOPE    HB 6210   2.096   6.524   9.525
   49DOPE    C2 6211   2.121   6.433  10.113
   49DOPE    HS 6212   2.211   6.392   9.960
   49DOPE   O21 6213   2.031   6.324  10.206
   49DOPE   C21 6214   1.983   6.263   9.888
   49DOPE   O22 6215   2.031   6.264   9.552
   49DOPE   C22 6216   1.849   6.194   9.993
   49DOPE   H2R 6217   1.874   6.105  10.176
   49DOPE   H2S 6218   1.804   6.159   9.708
   49DOPE    C3 6219   2.167   6.498  10.515
   49DOPE    HX 6220   2.262   6.552  10.449
   49DOPE    HY 6221   2.193   6.418  10.737
   49DOPE   O31 6222   2.071   6.592  10.668
   49DOPE   C31 6223   1.965   6.539  10.854
   49DOPE   O32 6224   1.960   6.426  10.989
   49DOPE   C32 6225   1.855   6.644  10.908
   49DOPE   H2X 6226   1.870   6.685  11.211
   49DOPE   H2Y 6227   1.867   6.725  10.686
   49DOPE   C23 6228   1.749   6.283  10.230
   49DOPE   H3R 6229   1.721   6.376  10.065
   49DOPE   H3S 6230   1.800   6.316  10.509
   49DOPE   C24 6231   1.625   6.204  10.356
   49DOPE   H4R 6232   1.662   6.109  10.491
   49DOPE   H4S 6233   1.556   6.183  10.110
   49DOPE   C25 6234   1.536   6.269  10.665
   49DOPE   H5R 6235   1.436   6.218  10.665
   49DOPE   H5S 6236   1.518   6.377  10.599
   49DOPE   C26 6237   1.596   6.248  11.076
   49DOPE   H6R 6238   1.700   6.288  11.082
   49DOPE   H6S 6239   1.605   6.140  11.148
   49DOPE   C27 6240   1.504   6.315  11.376
   49DOPE   H7R 6241   1.410   6.261  11.343
   49DOPE   H7S 6242   1.485   6.421  11.301
   49DOPE   C28 6243   1.548   6.299  11.805
   49DOPE   H8R 6244   1.548   6.190  11.877
   49DOPE   H8S 6245   1.476   6.350  12.006
   49DOPE   C29 6246   1.687   6.351  11.847
   49DOPE   H9R 6247   1.728   6.419  11.619
   49DOPE  C210 6248   1.752   6.334  12.189
   49DOPE  H10R 6249   1.852   6.377  12.222
   49DOPE  C211 6250   1.693   6.264  12.546
   49DOPE  H11R 6251   1.718   6.156  12.573
   49DOPE  H11S 6252   1.582   6.273  12.567
   49DOPE  C212 6253   1.750   6.347  12.888
   49DOPE  H12R 6254   1.687   6.438  12.912
   49DOPE  H12S 6255   1.857   6.376  12.834
   49DOPE  C213 6256   1.755   6.278  13.284
   49DOPE  H13R 6257   1.801   6.180  13.206
   49DOPE  H13S 6258   1.652   6.260  13.395
   49DOPE  C214 6259   1.841   6.357  13.590
   49DOPE  H14R 6260   1.851   6.461  13.479
   49DOPE  H14S 6261   1.944   6.319  13.620
   49DOPE  C215 6262   1.783   6.358  14.016
   49DOPE  H15R 6263   1.696   6.289  14.037
   49DOPE  H15S 6264   1.749   6.461  14.061
   49DOPE  C216 6265   1.878   6.334  14.373
   49DOPE  H16R 6266   1.896   6.225  14.412
   49DOPE  H16S 6267   1.824   6.369  14.643
   49DOPE  C217 6268   2.014   6.405  14.355
   49DOPE  H17R 6269   2.078   6.348  14.142
   49DOPE  H17S 6270   2.060   6.396  14.658
   49DOPE  C218 6271   2.017   6.553  14.223
   49DOPE  H18R 6272   2.120   6.593  14.259
   49DOPE  H18S 6273   1.948   6.615  14.406
   49DOPE  H18T 6274   1.989   6.563  13.902
   49DOPE   C33 6275   1.715   6.578  10.866
   49DOPE   H3X 6276   1.717   6.480  11.013
   49DOPE   H3Y 6277   1.695   6.562  10.539
   49DOPE   C34 6278   1.594   6.653  11.046
   49DOPE   H4X 6279   1.585   6.744  10.854
   49DOPE   H4Y 6280   1.500   6.596  11.010
   49DOPE   C35 6281   1.611   6.700  11.481
   49DOPE   H5X 6282   1.589   6.806  11.436
   49DOPE   H5Y 6283   1.714   6.688  11.592
   49DOPE   C36 6284   1.510   6.666  11.811
   49DOPE   H6X 6285   1.527   6.565  11.937
   49DOPE   H6Y 6286   1.407   6.669  11.691
   49DOPE   C37 6287   1.519   6.770  12.156
   49DOPE   H7X 6288   1.477   6.867  12.054
   49DOPE   H7Y 6289   1.455   6.735  12.405
   49DOPE   C38 6290   1.658   6.800  12.339
   49DOPE   H8X 6291   1.635   6.856  12.618
   49DOPE   H8Y 6292   1.716   6.876  12.180
   49DOPE   C39 6293   1.750   6.681  12.399
   49DOPE   H9X 6294   1.765   6.615  12.138
   49DOPE  C310 6295   1.807   6.647  12.747
   49DOPE  H10X 6296   1.885   6.570  12.753
   49DOPE  C311 6297   1.787   6.724  13.122
   49DOPE  H11X 6298   1.854   6.693  13.371
   49DOPE  H11Y 6299   1.821   6.823  13.023
   49DOPE  C312 6300   1.642   6.735  13.281
   49DOPE  H12X 6301   1.569   6.728  13.032
   49DOPE  H12Y 6302   1.623   6.830  13.440
   49DOPE  C313 6303   1.603   6.625  13.569
   49DOPE  H13X 6304   1.496   6.601  13.512
   49DOPE  H13Y 6305   1.661   6.535  13.497
   49DOPE  C314 6306   1.617   6.664  14.010
   49DOPE  H14X 6307   1.582   6.768  14.070
   49DOPE  H14Y 6308   1.724   6.662  14.097
   49DOPE  C315 6309   1.534   6.564  14.250
   49DOPE  H15X 6310   1.545   6.464  14.103
   49DOPE  H15Y 6311   1.426   6.586  14.232
   49DOPE  C316 6312   1.580   6.551  14.679
   49DOPE  H16X 6313   1.534   6.632  14.859
   49DOPE  H16Y 6314   1.691   6.564  14.700
   49DOPE  C317 6315   1.545   6.415  14.859
   49DOPE  H17X 6316   1.435   6.400  14.847
   49DOPE  H17Y 6317   1.591   6.333  14.679
   49DOPE  C318 6318   1.595   6.411  15.288
   49DOPE  H18X 6319   1.537   6.341  15.474
   49DOPE  H18Y 6320   1.703   6.386  15.297
   49DOPE  H18Z 6321   1.583   6.512  15.417
   50DOPE     N 6322   0.326   4.296   8.976
   50DOPE   HN1 6323   0.334   4.196   9.051
   50DOPE   HN2 6324   0.255   4.309   8.748
   50DOPE   HN3 6325   0.418   4.333   8.874
   50DOPE   C12 6326   0.291   4.386   9.318
   50DOPE  H12A 6327   0.363   4.368   9.567
   50DOPE  H12B 6328   0.188   4.365   9.420
   50DOPE   C11 6329   0.303   4.529   9.168
   50DOPE  H11A 6330   0.282   4.603   9.414
   50DOPE  H11B 6331   0.226   4.543   8.934
   50DOPE     P 6332   0.557   4.571   9.261
   50DOPE   O13 6333   0.512   4.621   9.651
   50DOPE   O14 6334   0.657   4.652   9.045
   50DOPE   O11 6335   0.603   4.420   9.294
   50DOPE   O12 6336   0.429   4.553   8.988
   50DOPE    C1 6337   0.708   4.371   9.543
   50DOPE    HA 6338   0.805   4.423   9.492
   50DOPE    HB 6339   0.725   4.266   9.447
   50DOPE    C2 6340   0.678   4.362  10.008
   50DOPE    HS 6341   0.728   4.268  10.113
   50DOPE   O21 6342   0.539   4.367  10.110
   50DOPE   C21 6343   0.491   4.250  10.179
   50DOPE   O22 6344   0.518   4.148   9.996
   50DOPE   C22 6345   0.398   4.254  10.539
   50DOPE   H2R 6346   0.373   4.150  10.596
   50DOPE   H2S 6347   0.305   4.307  10.455
   50DOPE    C3 6348   0.745   4.474  10.260
   50DOPE    HX 6349   0.724   4.571  10.110
   50DOPE    HY 6350   0.849   4.441  10.230
   50DOPE   O31 6351   0.715   4.477  10.683
   50DOPE   C31 6352   0.700   4.595  10.872
   50DOPE   O32 6353   0.702   4.704  10.716
   50DOPE   C32 6354   0.681   4.563  11.322
   50DOPE   H2X 6355   0.588   4.505  11.349
   50DOPE   H2Y 6356   0.770   4.503  11.403
   50DOPE   C23 6357   0.459   4.315  10.926
   50DOPE   H3R 6358   0.380   4.314  11.160
   50DOPE   H3S 6359   0.484   4.421  10.863
   50DOPE   C24 6360   0.583   4.241  11.094
   50DOPE   H4R 6361   0.673   4.271  10.923
   50DOPE   H4S 6362   0.574   4.133  11.037
   50DOPE   C25 6363   0.611   4.262  11.544
   50DOPE   H5R 6364   0.531   4.318  11.703
   50DOPE   H5S 6365   0.706   4.319  11.562
   50DOPE   C26 6366   0.637   4.133  11.775
   50DOPE   H6R 6367   0.718   4.076  11.622
   50DOPE   H6S 6368   0.546   4.070  11.778
   50DOPE   C27 6369   0.679   4.163  12.207
   50DOPE   H7R 6370   0.696   4.273  12.249
   50DOPE   H7S 6371   0.776   4.114  12.258
   50DOPE   C28 6372   0.582   4.107  12.519
   50DOPE   H8R 6373   0.578   3.997  12.483
   50DOPE   H8S 6374   0.480   4.147  12.465
   50DOPE   C29 6375   0.629   4.142  12.930
   50DOPE   H9R 6376   0.701   4.074  13.062
   50DOPE  C210 6377   0.600   4.252  13.131
   50DOPE  H10R 6378   0.644   4.263  13.428
   50DOPE  C211 6379   0.514   4.367  13.005
   50DOPE  H11R 6380   0.430   4.332  12.816
   50DOPE  H11S 6381   0.571   4.437  12.810
   50DOPE  C212 6382   0.457   4.439  13.374
   50DOPE  H12R 6383   0.533   4.500  13.533
   50DOPE  H12S 6384   0.420   4.365  13.596
   50DOPE  C213 6385   0.342   4.529  13.251
   50DOPE  H13R 6386   0.268   4.542  13.497
   50DOPE  H13S 6387   0.289   4.476  13.005
   50DOPE  C214 6388   0.389   4.665  13.095
   50DOPE  H14R 6389   0.304   4.726  12.990
   50DOPE  H14S 6390   0.449   4.644  12.822
   50DOPE  C215 6391   0.455   4.759  13.401
   50DOPE  H15R 6392   0.466   4.860  13.263
   50DOPE  H15S 6393   0.556   4.724  13.485
   50DOPE  C216 6394   0.367   4.764  13.773
   50DOPE  H16R 6395   0.379   4.670  13.947
   50DOPE  H16S 6396   0.263   4.765  13.650
   50DOPE  C217 6397   0.374   4.883  14.052
   50DOPE  H17R 6398   0.369   4.978  13.881
   50DOPE  H17S 6399   0.466   4.887  14.238
   50DOPE  C218 6400   0.257   4.867  14.337
   50DOPE  H18R 6401   0.285   4.791  14.562
   50DOPE  H18S 6402   0.170   4.825  14.172
   50DOPE  H18T 6403   0.227   4.962  14.484
   50DOPE   C33 6404   0.671   4.677  11.634
   50DOPE   H3X 6405   0.581   4.739  11.586
   50DOPE   H3Y 6406   0.759   4.743  11.586
   50DOPE   C34 6407   0.676   4.630  12.078
   50DOPE   H4X 6408   0.578   4.589  12.177
   50DOPE   H4Y 6409   0.754   4.551  12.117
   50DOPE   C35 6410   0.716   4.754  12.318
   50DOPE   H5X 6411   0.648   4.834  12.207
   50DOPE   H5Y 6412   0.822   4.772  12.240
   50DOPE   C36 6413   0.711   4.768  12.768
   50DOPE   H6X 6414   0.619   4.724  12.873
   50DOPE   H6Y 6415   0.706   4.875  12.855
   50DOPE   C37 6416   0.828   4.703  12.981
   50DOPE   H7X 6417   0.918   4.701  12.786
   50DOPE   H7Y 6418   0.854   4.764  13.251
   50DOPE   C38 6419   0.778   4.563  13.089
   50DOPE   H8X 6420   0.755   4.522  12.786
   50DOPE   H8Y 6421   0.682   4.580  13.245
   50DOPE   C39 6422   0.845   4.449  13.296
   50DOPE   H9X 6423   0.916   4.397  13.101
   50DOPE  C310 6424   0.825   4.395  13.659
   50DOPE  H10X 6425   0.886   4.307  13.707
   50DOPE  C311 6426   0.733   4.420  14.016
   50DOPE  H11X 6427   0.642   4.356  13.980
   50DOPE  H11Y 6428   0.784   4.376  14.280
   50DOPE  C312 6429   0.681   4.561  14.148
   50DOPE  H12X 6430   0.572   4.548  14.211
   50DOPE  H12Y 6431   0.692   4.631  13.896
   50DOPE  C313 6432   0.736   4.623  14.541
   50DOPE  H13X 6433   0.842   4.655  14.508
   50DOPE  H13Y 6434   0.676   4.714  14.610
   50DOPE  C314 6435   0.719   4.525  14.892
   50DOPE  H14X 6436   0.796   4.447  14.865
   50DOPE  H14Y 6437   0.619   4.479  14.850
   50DOPE  C315 6438   0.730   4.571  15.324
   50DOPE  H15X 6439   0.730   4.480  15.522
   50DOPE  H15Y 6440   0.639   4.627  15.408
   50DOPE  C316 6441   0.857   4.650  15.411
   50DOPE  H16X 6442   0.827   4.733  15.621
   50DOPE  H16Y 6443   0.897   4.698  15.135
   50DOPE  C317 6444   0.967   4.570  15.621
   50DOPE  H17X 6445   1.045   4.645  15.684
   50DOPE  H17Y 6446   0.929   4.526  15.906
   50DOPE  C318 6447   1.042   4.465  15.378
   50DOPE  H18X 6448   0.974   4.388  15.252
   50DOPE  H18Y 6449   1.096   4.517  15.135
   50DOPE  H18Z 6450   1.117   4.413  15.570
   51DOPE     N 6451   2.741   7.177   8.700
   51DOPE   HN1 6452   2.793   7.174   8.430
   51DOPE   HN2 6453   2.702   7.082   8.748
   51DOPE   HN3 6454   2.664   7.247   8.658
   51DOPE   C12 6455   2.838   7.219   9.027
   51DOPE  H12A 6456   2.784   7.216   9.318
   51DOPE  H12B 6457   2.870   7.323   8.967
   51DOPE   C11 6458   2.964   7.129   9.054
   51DOPE  H11A 6459   3.026   7.136   8.778
   51DOPE  H11B 6460   2.933   7.023   9.090
   51DOPE     P 6461   3.168   7.256   9.429
   51DOPE   O13 6462   3.157   7.338   9.798
   51DOPE   O14 6463   3.186   7.322   9.036
   51DOPE   O11 6464   3.284   7.149   9.489
   51DOPE   O12 6465   3.038   7.165   9.402
   51DOPE    C1 6466   3.264   7.019   9.648
   51DOPE    HA 6467   3.364   6.970   9.672
   51DOPE    HB 6468   3.203   6.957   9.441
   51DOPE    C2 6469   3.203   7.019  10.080
   51DOPE    HS 6470   3.096   7.048  10.041
   51DOPE   O21 6471   3.277   7.115  10.311
   51DOPE   C21 6472   3.202   7.180  10.572
   51DOPE   O22 6473   3.089   7.149  10.674
   51DOPE   C22 6474   3.281   7.296  10.740
   51DOPE   H2R 6475   3.300   7.364  10.482
   51DOPE   H2S 6476   3.378   7.259  10.860
   51DOPE    C3 6477   3.208   6.879  10.278
   51DOPE    HX 6478   3.314   6.860  10.368
   51DOPE    HY 6479   3.182   6.805  10.041
   51DOPE   O31 6480   3.113   6.862  10.599
   51DOPE   C31 6481   3.159   6.888  10.962
   51DOPE   O32 6482   3.274   6.920  11.043
   51DOPE   C32 6483   3.051   6.865  11.280
   51DOPE   H2X 6484   2.963   6.926  11.199
   51DOPE   H2Y 6485   3.022   6.758  11.280
   51DOPE   C23 6486   3.203   7.374  11.064
   51DOPE   H3R 6487   3.224   7.332  11.361
   51DOPE   H3S 6488   3.093   7.365  11.022
   51DOPE   C24 6489   3.235   7.524  11.046
   51DOPE   H4R 6490   3.172   7.575  11.271
   51DOPE   H4S 6491   3.204   7.561  10.746
   51DOPE   C25 6492   3.382   7.565  11.103
   51DOPE   H5R 6493   3.388   7.676  11.115
   51DOPE   H5S 6494   3.439   7.531  10.836
   51DOPE   C26 6495   3.449   7.507  11.475
   51DOPE   H6R 6496   3.549   7.553  11.523
   51DOPE   H6S 6497   3.466   7.399  11.409
   51DOPE   C27 6498   3.367   7.518  11.865
   51DOPE   H7R 6499   3.264   7.554  11.811
   51DOPE   H7S 6500   3.415   7.594  12.063
   51DOPE   C28 6501   3.361   7.382  12.072
   51DOPE   H8R 6502   3.316   7.310  11.862
   51DOPE   H8S 6503   3.290   7.376  12.324
   51DOPE   C29 6504   3.503   7.349  12.192
   51DOPE   H9R 6505   3.549   7.415  12.417
   51DOPE  C210 6506   3.563   7.235  12.087
   51DOPE  H10R 6507   3.664   7.211  12.198
   51DOPE  C211 6508   3.489   7.132  11.847
   51DOPE  H11R 6509   3.550   7.053  11.706
   51DOPE  H11S 6510   3.432   7.176  11.589
   51DOPE  C212 6511   3.396   7.076  12.174
   51DOPE  H12R 6512   3.314   7.020  12.024
   51DOPE  H12S 6513   3.345   7.153  12.360
   51DOPE  C213 6514   3.466   6.982  12.468
   51DOPE  H13R 6515   3.573   6.976  12.375
   51DOPE  H13S 6516   3.421   6.887  12.390
   51DOPE  C214 6517   3.462   7.011  12.927
   51DOPE  H14R 6518   3.506   7.113  12.969
   51DOPE  H14S 6519   3.528   6.939  13.086
   51DOPE  C215 6520   3.328   7.011  13.158
   51DOPE  H15R 6521   3.253   7.063  12.975
   51DOPE  H15S 6522   3.341   7.074  13.431
   51DOPE  C216 6523   3.268   6.876  13.305
   51DOPE  H16R 6524   3.244   6.812  13.041
   51DOPE  H16S 6525   3.169   6.902  13.437
   51DOPE  C217 6526   3.344   6.791  13.617
   51DOPE  H17R 6527   3.416   6.725  13.461
   51DOPE  H17S 6528   3.270   6.721  13.755
   51DOPE  C218 6529   3.424   6.860  13.953
   51DOPE  H18R 6530   3.472   6.783  14.145
   51DOPE  H18S 6531   3.360   6.922  14.148
   51DOPE  H18T 6532   3.503   6.925  13.827
   51DOPE   C33 6533   3.109   6.908  11.688
   51DOPE   H3X 6534   3.136   7.016  11.658
   51DOPE   H3Y 6535   3.203   6.852  11.748
   51DOPE   C34 6536   3.020   6.893  12.057
   51DOPE   H4X 6537   2.920   6.936  11.991
   51DOPE   H4Y 6538   3.007   6.785  12.132
   51DOPE   C35 6539   3.080   6.967  12.420
   51DOPE   H5X 6540   3.184   6.930  12.465
   51DOPE   H5Y 6541   3.025   6.939  12.699
   51DOPE   C36 6542   3.082   7.120  12.372
   51DOPE   H6X 6543   3.152   7.152  12.135
   51DOPE   H6Y 6544   3.116   7.168  12.657
   51DOPE   C37 6545   2.946   7.180  12.261
   51DOPE   H7X 6546   2.952   7.291  12.249
   51DOPE   H7Y 6547   2.920   7.146  11.955
   51DOPE   C38 6548   2.841   7.134  12.558
   51DOPE   H8X 6549   2.838   7.023  12.585
   51DOPE   H8Y 6550   2.741   7.160  12.447
   51DOPE   C39 6551   2.862   7.199  12.954
   51DOPE   H9X 6552   2.934   7.283  12.969
   51DOPE  C310 6553   2.801   7.158  13.284
   51DOPE  H10X 6554   2.816   7.214  13.563
   51DOPE  C311 6555   2.704   7.042  13.305
   51DOPE  H11X 6556   2.616   7.068  13.491
   51DOPE  H11Y 6557   2.665   7.009  13.008
   51DOPE  C312 6558   2.782   6.928  13.491
   51DOPE  H12X 6559   2.851   6.884  13.263
   51DOPE  H12Y 6560   2.712   6.848  13.593
   51DOPE  C313 6561   2.867   6.977  13.842
   51DOPE  H13X 6562   2.960   7.024  13.722
   51DOPE  H13Y 6563   2.811   7.056  14.010
   51DOPE  C314 6564   2.905   6.871  14.139
   51DOPE  H14X 6565   2.957   6.786  13.995
   51DOPE  H14Y 6566   2.811   6.834  14.283
   51DOPE  C315 6567   2.991   6.934  14.460
   51DOPE  H15X 6568   3.012   6.851  14.673
   51DOPE  H15Y 6569   2.930   7.014  14.610
   51DOPE  C316 6570   3.126   6.993  14.325
   51DOPE  H16X 6571   3.145   6.956  14.019
   51DOPE  H16Y 6572   3.204   6.948  14.520
   51DOPE  C317 6573   3.145   7.146  14.334
   51DOPE  H17X 6574   3.250   7.166  14.235
   51DOPE  H17Y 6575   3.079   7.188  14.097
   51DOPE  C318 6576   3.123   7.219  14.733
   51DOPE  H18X 6577   3.017   7.212  14.829
   51DOPE  H18Y 6578   3.188   7.179  14.973
   51DOPE  H18Z 6579   3.148   7.327  14.703
   52DOPE     N 6580   7.187   4.792   8.925
   52DOPE   HN1 6581   7.111   4.826   8.733
   52DOPE   HN2 6582   7.254   4.872   8.970
   52DOPE   HN3 6583   7.245   4.720   8.781
   52DOPE   C12 6584   7.150   4.725   9.312
   52DOPE  H12A 6585   7.068   4.653   9.243
   52DOPE  H12B 6586   7.119   4.800   9.537
   52DOPE   C11 6587   7.266   4.641   9.456
   52DOPE  H11A 6588   7.227   4.574   9.699
   52DOPE  H11B 6589   7.349   4.702   9.576
   52DOPE     P 6590   7.398   4.442   9.168
   52DOPE   O13 6591   7.533   4.498   9.246
   52DOPE   O14 6592   7.376   4.363   8.805
   52DOPE   O11 6593   7.333   4.377   9.546
   52DOPE   O12 6594   7.306   4.567   9.111
   52DOPE    C1 6595   7.392   4.281   9.810
   52DOPE    HA 6596   7.503   4.283   9.786
   52DOPE    HB 6597   7.355   4.180   9.732
   52DOPE    C2 6598   7.349   4.315  10.248
   52DOPE    HS 6599   7.238   4.302  10.257
   52DOPE   O21 6600   7.390   4.449  10.317
   52DOPE   C21 6601   7.303   4.528  10.494
   52DOPE   O22 6602   7.183   4.512  10.527
   52DOPE   C22 6603   7.385   4.640  10.674
   52DOPE   H2R 6604   7.409   4.711  10.428
   52DOPE   H2S 6605   7.480   4.592  10.773
   52DOPE    C3 6606   7.411   4.232  10.599
   52DOPE    HX 6607   7.522   4.244  10.569
   52DOPE    HY 6608   7.389   4.123  10.581
   52DOPE   O31 6609   7.381   4.287  10.989
   52DOPE   C31 6610   7.254   4.284  11.109
   52DOPE   O32 6611   7.165   4.218  10.962
   52DOPE   C32 6612   7.244   4.383  11.460
   52DOPE   H2X 6613   7.302   4.339  11.709
   52DOPE   H2Y 6614   7.299   4.472  11.361
   52DOPE   C23 6615   7.327   4.718  11.031
   52DOPE   H3R 6616   7.306   4.658  11.301
   52DOPE   H3S 6617   7.231   4.767  10.953
   52DOPE   C24 6618   7.434   4.820  11.148
   52DOPE   H4R 6619   7.393   4.894  11.364
   52DOPE   H4S 6620   7.461   4.876  10.875
   52DOPE   C25 6621   7.562   4.753  11.316
   52DOPE   H5R 6622   7.634   4.831  11.406
   52DOPE   H5S 6623   7.616   4.697  11.079
   52DOPE   C26 6624   7.541   4.666  11.688
   52DOPE   H6R 6625   7.643   4.639  11.790
   52DOPE   H6S 6626   7.489   4.572  11.616
   52DOPE   C27 6627   7.468   4.743  12.018
   52DOPE   H7R 6628   7.381   4.800  11.904
   52DOPE   H7S 6629   7.540   4.819  12.126
   52DOPE   C28 6630   7.413   4.652  12.351
   52DOPE   H8R 6631   7.477   4.561  12.375
   52DOPE   H8S 6632   7.310   4.619  12.279
   52DOPE   C29 6633   7.425   4.730  12.729
   52DOPE   H9R 6634   7.519   4.784  12.741
   52DOPE  C210 6635   7.338   4.753  13.026
   52DOPE  H10R 6636   7.373   4.808  13.287
   52DOPE  C211 6637   7.199   4.706  13.074
   52DOPE  H11R 6638   7.163   4.649  12.807
   52DOPE  H11S 6639   7.128   4.791  13.119
   52DOPE  C212 6640   7.195   4.616  13.446
   52DOPE  H12R 6641   7.249   4.520  13.401
   52DOPE  H12S 6642   7.087   4.598  13.452
   52DOPE  C213 6643   7.212   4.671  13.872
   52DOPE  H13R 6644   7.165   4.596  14.067
   52DOPE  H13S 6645   7.148   4.759  13.914
   52DOPE  C214 6646   7.356   4.688  14.019
   52DOPE  H14R 6647   7.395   4.787  13.947
   52DOPE  H14S 6648   7.418   4.616  13.842
   52DOPE  C215 6649   7.380   4.661  14.469
   52DOPE  H15R 6650   7.325   4.570  14.559
   52DOPE  H15S 6651   7.341   4.735  14.682
   52DOPE  C216 6652   7.531   4.645  14.529
   52DOPE  H16R 6653   7.577   4.598  14.259
   52DOPE  H16S 6654   7.548   4.575  14.784
   52DOPE  C217 6655   7.603   4.776  14.613
   52DOPE  H17R 6656   7.532   4.847  14.757
   52DOPE  H17S 6657   7.637   4.822  14.328
   52DOPE  C218 6658   7.721   4.749  14.901
   52DOPE  H18R 6659   7.820   4.783  14.985
   52DOPE  H18S 6660   7.774   4.680  14.691
   52DOPE  H18T 6661   7.731   4.861  14.901
   52DOPE   C33 6662   7.104   4.421  11.625
   52DOPE   H3X 6663   7.023   4.381  11.430
   52DOPE   H3Y 6664   7.090   4.532  11.634
   52DOPE   C34 6665   7.095   4.369  12.060
   52DOPE   H4X 6666   7.113   4.260  12.054
   52DOPE   H4Y 6667   7.179   4.415  12.237
   52DOPE   C35 6668   6.963   4.399  12.273
   52DOPE   H5X 6669   6.882   4.356  12.081
   52DOPE   H5Y 6670   6.949   4.509  12.285
   52DOPE   C36 6671   6.943   4.339  12.699
   52DOPE   H6X 6672   6.984   4.237  12.711
   52DOPE   H6Y 6673   6.833   4.331  12.747
   52DOPE   C37 6674   7.001   4.423  13.044
   52DOPE   H7X 6675   7.110   4.412  13.044
   52DOPE   H7Y 6676   6.977   4.529  12.954
   52DOPE   C38 6677   6.938   4.407  13.476
   52DOPE   H8X 6678   6.836   4.408  13.365
   52DOPE   H8Y 6679   6.943   4.501  13.650
   52DOPE   C39 6680   6.933   4.293  13.776
   52DOPE   H9X 6681   6.861   4.217  13.680
   52DOPE  C310 6682   6.993   4.269  14.133
   52DOPE  H10X 6683   6.961   4.176  14.280
   52DOPE  C311 6684   7.092   4.341  14.403
   52DOPE  H11X 6685   7.146   4.423  14.250
   52DOPE  H11Y 6686   7.046   4.383  14.676
   52DOPE  C312 6687   7.202   4.243  14.535
   52DOPE  H12X 6688   7.161   4.139  14.535
   52DOPE  H12Y 6689   7.241   4.263  14.841
   52DOPE  C313 6690   7.315   4.253  14.226
   52DOPE  H13X 6691   7.357   4.153  14.166
   52DOPE  H13Y 6692   7.264   4.287  13.947
   52DOPE  C314 6693   7.426   4.354  14.328
   52DOPE  H14X 6694   7.421   4.380  14.652
   52DOPE  H14Y 6695   7.396   4.442  14.151
   52DOPE  C315 6696   7.573   4.332  14.202
   52DOPE  H15X 6697   7.638   4.388  14.418
   52DOPE  H15Y 6698   7.590   4.379  13.905
   52DOPE  C316 6699   7.617   4.187  14.184
   52DOPE  H16X 6700   7.725   4.186  14.106
   52DOPE  H16Y 6701   7.565   4.136  13.935
   52DOPE  C317 6702   7.594   4.109  14.574
   52DOPE  H17X 6703   7.492   4.067  14.568
   52DOPE  H17Y 6704   7.663   4.021  14.568
   52DOPE  C318 6705   7.611   4.188  14.967
   52DOPE  H18X 6706   7.617   4.119  15.225
   52DOPE  H18Y 6707   7.704   4.250  14.964
   52DOPE  H18Z 6708   7.526   4.256  15.018
   53DOPE     N 6709   6.122   6.539   8.430
   53DOPE   HN1 6710   6.163   6.449   8.331
   53DOPE   HN2 6711   6.077   6.525   8.712
   53DOPE   HN3 6712   6.047   6.572   8.232
   53DOPE   C12 6713   6.227   6.645   8.502
   53DOPE  H12A 6714   6.183   6.742   8.406
   53DOPE  H12B 6715   6.317   6.622   8.319
   53DOPE   C11 6716   6.259   6.653   8.949
   53DOPE  H11A 6717   6.316   6.747   9.009
   53DOPE  H11B 6718   6.319   6.565   9.051
   53DOPE     P 6719   6.115   6.694   9.603
   53DOPE   O13 6720   6.098   6.565   9.810
   53DOPE   O14 6721   6.005   6.792   9.618
   53DOPE   O11 6722   6.255   6.757   9.729
   53DOPE   O12 6723   6.135   6.654   9.147
   53DOPE    C1 6724   6.255   6.860  10.029
   53DOPE    HA 6725   6.179   6.938   9.966
   53DOPE    HB 6726   6.353   6.911  10.020
   53DOPE    C2 6727   6.234   6.799  10.455
   53DOPE    HS 6728   6.294   6.707  10.458
   53DOPE   O21 6729   6.095   6.773  10.512
   53DOPE   C21 6730   6.063   6.657  10.665
   53DOPE   O22 6731   6.137   6.566  10.767
   53DOPE   C22 6732   5.917   6.670  10.788
   53DOPE   H2R 6733   5.870   6.570  10.770
   53DOPE   H2S 6734   5.864   6.738  10.575
   53DOPE    C3 6735   6.285   6.888  10.806
   53DOPE    HX 6736   6.226   6.979  10.860
   53DOPE    HY 6737   6.381   6.925  10.695
   53DOPE   O31 6738   6.302   6.812  11.169
   53DOPE   C31 6739   6.238   6.854  11.493
   53DOPE   O32 6740   6.179   6.959  11.523
   53DOPE   C32 6741   6.246   6.744  11.817
   53DOPE   H2X 6742   6.154   6.683  11.808
   53DOPE   H2Y 6743   6.332   6.679  11.739
   53DOPE   C23 6744   5.920   6.728  11.214
   53DOPE   H3R 6745   5.890   6.835  11.217
   53DOPE   H3S 6746   6.022   6.725  11.340
   53DOPE   C24 6747   5.838   6.646  11.505
   53DOPE   H4R 6748   5.849   6.538  11.430
   53DOPE   H4S 6749   5.731   6.674  11.469
   53DOPE   C25 6750   5.879   6.662  11.946
   53DOPE   H5R 6751   5.920   6.763  12.009
   53DOPE   H5S 6752   5.957   6.587  12.024
   53DOPE   C26 6753   5.755   6.638  12.195
   53DOPE   H6R 6754   5.676   6.704  12.075
   53DOPE   H6S 6755   5.769   6.662  12.519
   53DOPE   C27 6756   5.708   6.494  12.153
   53DOPE   H7R 6757   5.708   6.461  11.832
   53DOPE   H7S 6758   5.604   6.483  12.258
   53DOPE   C28 6759   5.797   6.399  12.387
   53DOPE   H8R 6760   5.902   6.403  12.276
   53DOPE   H8S 6761   5.748   6.305  12.297
   53DOPE   C29 6762   5.788   6.399  12.834
   53DOPE   H9R 6763   5.712   6.329  12.948
   53DOPE  C210 6764   5.869   6.457  13.098
   53DOPE  H10R 6765   5.838   6.454  13.416
   53DOPE  C211 6766   5.993   6.539  13.017
   53DOPE  H11R 6767   5.972   6.648  13.047
   53DOPE  H11S 6768   6.030   6.522  12.708
   53DOPE  C212 6769   6.102   6.498  13.317
   53DOPE  H12R 6770   6.200   6.540  13.224
   53DOPE  H12S 6771   6.113   6.387  13.302
   53DOPE  C213 6772   6.079   6.539  13.758
   53DOPE  H13R 6773   5.971   6.539  13.833
   53DOPE  H13S 6774   6.115   6.644  13.794
   53DOPE  C214 6775   6.152   6.443  14.040
   53DOPE  H14R 6776   6.255   6.427  13.923
   53DOPE  H14S 6777   6.100   6.346  14.025
   53DOPE  C215 6778   6.161   6.484  14.484
   53DOPE  H15R 6779   6.061   6.504  14.613
   53DOPE  H15S 6780   6.220   6.579  14.499
   53DOPE  C216 6781   6.230   6.380  14.754
   53DOPE  H16R 6782   6.302   6.318  14.583
   53DOPE  H16S 6783   6.151   6.310  14.868
   53DOPE  C217 6784   6.294   6.451  15.114
   53DOPE  H17R 6785   6.218   6.449  15.354
   53DOPE  H17S 6786   6.311   6.557  15.033
   53DOPE  C218 6787   6.426   6.395  15.276
   53DOPE  H18R 6788   6.424   6.284  15.285
   53DOPE  H18S 6789   6.443   6.433  15.582
   53DOPE  H18T 6790   6.512   6.428  15.090
   53DOPE   C33 6791   6.268   6.798  12.246
   53DOPE   H3X 6792   6.335   6.885  12.225
   53DOPE   H3Y 6793   6.319   6.719  12.429
   53DOPE   C34 6794   6.144   6.844  12.477
   53DOPE   H4X 6795   6.113   6.942  12.345
   53DOPE   H4Y 6796   6.060   6.772  12.456
   53DOPE   C35 6797   6.178   6.865  12.921
   53DOPE   H5X 6798   6.276   6.913  12.924
   53DOPE   H5Y 6799   6.184   6.770  13.092
   53DOPE   C36 6800   6.098   6.969  13.143
   53DOPE   H6X 6801   6.103   7.063  12.975
   53DOPE   H6Y 6802   6.147   6.989  13.437
   53DOPE   C37 6803   5.953   6.938  13.215
   53DOPE   H7X 6804   5.896   6.920  12.939
   53DOPE   H7Y 6805   5.942   6.843  13.380
   53DOPE   C38 6806   5.905   7.065  13.428
   53DOPE   H8X 6807   5.939   7.153  13.254
   53DOPE   H8Y 6808   5.959   7.075  13.716
   53DOPE   C39 6809   5.756   7.069  13.470
   53DOPE   H9X 6810   5.700   7.064  13.185
   53DOPE  C310 6811   5.693   7.082  13.818
   53DOPE  H10X 6812   5.583   7.081  13.827
   53DOPE  C311 6813   5.762   7.094  14.217
   53DOPE  H11X 6814   5.847   7.166  14.208
   53DOPE  H11Y 6815   5.688   7.138  14.424
   53DOPE  C312 6816   5.809   6.962  14.406
   53DOPE  H12X 6817   5.725   6.892  14.424
   53DOPE  H12Y 6818   5.840   6.986  14.715
   53DOPE  C313 6819   5.923   6.882  14.214
   53DOPE  H13X 6820   5.881   6.835  13.938
   53DOPE  H13Y 6821   6.007   6.946  14.127
   53DOPE  C314 6822   5.974   6.770  14.490
   53DOPE  H14X 6823   6.060   6.722  14.340
   53DOPE  H14Y 6824   5.894   6.694  14.532
   53DOPE  C315 6825   6.022   6.814  14.910
   53DOPE  H15X 6826   6.067   6.726  15.063
   53DOPE  H15Y 6827   5.932   6.842  15.081
   53DOPE  C316 6828   6.122   6.930  14.895
   53DOPE  H16X 6829   6.074   7.018  14.751
   53DOPE  H16Y 6830   6.207   6.898  14.697
   53DOPE  C317 6831   6.180   6.976  15.300
   53DOPE  H17X 6832   6.266   7.044  15.237
   53DOPE  H17Y 6833   6.104   7.039  15.456
   53DOPE  C318 6834   6.227   6.865  15.585
   53DOPE  H18X 6835   6.299   6.798  15.429
   53DOPE  H18Y 6836   6.276   6.908  15.852
   53DOPE  H18Z 6837   6.141   6.804  15.687
   54DOPE     N 6838   0.302   3.612   8.964
   54DOPE   HN1 6839   0.401   3.602   8.868
   54DOPE   HN2 6840   0.249   3.524   8.919
   54DOPE   HN3 6841   0.256   3.686   8.784
   54DOPE   C12 6842   0.282   3.660   9.384
   54DOPE  H12A 6843   0.352   3.744   9.438
   54DOPE  H12B 6844   0.301   3.578   9.597
   54DOPE   C11 6845   0.138   3.710   9.402
   54DOPE  H11A 6846   0.123   3.766   9.687
   54DOPE  H11B 6847   0.070   3.622   9.420
   54DOPE     P 6848  -0.036   3.849   9.021
   54DOPE   O13 6849  -0.128   3.734   9.057
   54DOPE   O14 6850  -0.048   3.938   8.667
   54DOPE   O11 6851  -0.038   3.932   9.426
   54DOPE   O12 6852   0.113   3.793   9.051
   54DOPE    C1 6853   0.041   4.049   9.483
   54DOPE    HA 6854  -0.024   4.137   9.426
   54DOPE    HB 6855   0.129   4.055   9.276
   54DOPE    C2 6856   0.096   4.061   9.921
   54DOPE    HS 6857   0.148   4.158   9.954
   54DOPE   O21 6858   0.190   3.954   9.990
   54DOPE   C21 6859   0.224   3.931  10.368
   54DOPE   O22 6860   0.201   4.005  10.650
   54DOPE   C22 6861   0.306   3.804  10.395
   54DOPE   H2R 6862   0.300   3.747  10.110
   54DOPE   H2S 6863   0.267   3.740  10.635
   54DOPE    C3 6864  -0.025   4.058  10.221
   54DOPE    HX 6865  -0.097   4.128  10.089
   54DOPE    HY 6866   0.002   4.100  10.521
   54DOPE   O31 6867  -0.090   3.930  10.248
   54DOPE   C31 6868  -0.091   3.864  10.584
   54DOPE   O32 6869  -0.047   3.900  10.908
   54DOPE   C32 6870  -0.164   3.734  10.503
   54DOPE   H2X 6871  -0.272   3.754  10.545
   54DOPE   H2Y 6872  -0.147   3.703  10.188
   54DOPE   C23 6873   0.450   3.846  10.488
   54DOPE   H3R 6874   0.483   3.921  10.263
   54DOPE   H3S 6875   0.518   3.760  10.452
   54DOPE   C24 6876   0.469   3.906  10.908
   54DOPE   H4R 6877   0.413   4.000  10.926
   54DOPE   H4S 6878   0.575   3.938  10.926
   54DOPE   C25 6879   0.431   3.825  11.286
   54DOPE   H5R 6880   0.505   3.851  11.523
   54DOPE   H5S 6881   0.441   3.716  11.226
   54DOPE   C26 6882   0.294   3.861  11.463
   54DOPE   H6R 6883   0.279   3.802  11.742
   54DOPE   H6S 6884   0.216   3.828  11.241
   54DOPE   C27 6885   0.268   4.009  11.559
   54DOPE   H7R 6886   0.168   4.037  11.436
   54DOPE   H7S 6887   0.343   4.074  11.409
   54DOPE   C28 6888   0.273   4.043  12.006
   54DOPE   H8R 6889   0.369   4.002  12.123
   54DOPE   H8S 6890   0.192   3.990  12.162
   54DOPE   C29 6891   0.261   4.192  12.072
   54DOPE   H9R 6892   0.294   4.254  11.817
   54DOPE  C210 6893   0.205   4.252  12.396
   54DOPE  H10R 6894   0.211   4.361  12.420
   54DOPE  C211 6895   0.144   4.185  12.759
   54DOPE  H11R 6896   0.074   4.104  12.675
   54DOPE  H11S 6897   0.083   4.260  12.924
   54DOPE  C212 6898   0.247   4.131  13.065
   54DOPE  H12R 6899   0.313   4.214  13.155
   54DOPE  H12S 6900   0.309   4.052  12.927
   54DOPE  C213 6901   0.174   4.078  13.440
   54DOPE  H13R 6902   0.116   3.989  13.350
   54DOPE  H13S 6903   0.100   4.156  13.524
   54DOPE  C214 6904   0.253   4.040  13.821
   54DOPE  H14R 6905   0.335   3.968  13.764
   54DOPE  H14S 6906   0.177   3.988  14.010
   54DOPE  C215 6907   0.312   4.152  14.073
   54DOPE  H15R 6908   0.282   4.248  13.935
   54DOPE  H15S 6909   0.423   4.146  14.061
   54DOPE  C216 6910   0.269   4.159  14.520
   54DOPE  H16R 6911   0.180   4.226  14.532
   54DOPE  H16S 6912   0.348   4.222  14.643
   54DOPE  C217 6913   0.228   4.034  14.775
   54DOPE  H17R 6914   0.187   3.955  14.583
   54DOPE  H17S 6915   0.145   4.071  14.964
   54DOPE  C218 6916   0.311   3.964  15.105
   54DOPE  H18R 6917   0.405   3.921  14.988
   54DOPE  H18S 6918   0.252   3.882  15.243
   54DOPE  H18T 6919   0.336   4.035  15.348
   54DOPE   C33 6920  -0.118   3.624  10.791
   54DOPE   H3X 6921  -0.180   3.533  10.740
   54DOPE   H3Y 6922  -0.131   3.656  11.109
   54DOPE   C34 6923   0.028   3.585  10.716
   54DOPE   H4X 6924   0.045   3.564  10.392
   54DOPE   H4Y 6925   0.094   3.668  10.809
   54DOPE   C35 6926   0.062   3.460  10.953
   54DOPE   H5X 6927   0.161   3.419  10.860
   54DOPE   H5Y 6928  -0.017   3.387  10.872
   54DOPE   C36 6929   0.058   3.477  11.406
   54DOPE   H6X 6930   0.092   3.382  11.544
   54DOPE   H6Y 6931  -0.045   3.498  11.517
   54DOPE   C37 6932   0.154   3.579  11.580
   54DOPE   H7X 6933   0.251   3.575  11.415
   54DOPE   H7Y 6934   0.109   3.680  11.544
   54DOPE   C38 6935   0.182   3.548  12.024
   54DOPE   H8X 6936   0.256   3.625  12.120
   54DOPE   H8Y 6937   0.236   3.453  12.048
   54DOPE   C39 6938   0.057   3.541  12.279
   54DOPE   H9X 6939   0.005   3.445  12.285
   54DOPE  C310 6940   0.013   3.644  12.501
   54DOPE  H10X 6941  -0.075   3.633  12.696
   54DOPE  C311 6942   0.086   3.774  12.510
   54DOPE  H11X 6943   0.118   3.802  12.201
   54DOPE  H11Y 6944   0.020   3.857  12.615
   54DOPE  C312 6945   0.209   3.761  12.783
   54DOPE  H12X 6946   0.262   3.858  12.795
   54DOPE  H12Y 6947   0.283   3.688  12.666
   54DOPE  C313 6948   0.173   3.715  13.206
   54DOPE  H13X 6949   0.093   3.782  13.323
   54DOPE  H13Y 6950   0.131   3.612  13.203
   54DOPE  C314 6951   0.292   3.718  13.491
   54DOPE  H14X 6952   0.350   3.810  13.434
   54DOPE  H14Y 6953   0.361   3.633  13.425
   54DOPE  C315 6954   0.240   3.708  13.920
   54DOPE  H15X 6955   0.186   3.611  13.941
   54DOPE  H15Y 6956   0.163   3.786  13.974
   54DOPE  C316 6957   0.345   3.716  14.253
   54DOPE  H16X 6958   0.388   3.819  14.271
   54DOPE  H16Y 6959   0.428   3.647  14.181
   54DOPE  C317 6960   0.285   3.676  14.658
   54DOPE  H17X 6961   0.354   3.701  14.904
   54DOPE  H17Y 6962   0.191   3.733  14.712
   54DOPE  C318 6963   0.258   3.526  14.673
   54DOPE  H18X 6964   0.343   3.470  14.544
   54DOPE  H18Y 6965   0.244   3.491  14.988
   54DOPE  H18Z 6966   0.167   3.501  14.496
   55DOPE     N 6967   0.358   5.696   9.669
   55DOPE   HN1 6968   0.297   5.611   9.615
   55DOPE   HN2 6969   0.445   5.655   9.783
   55DOPE   HN3 6970   0.310   5.756   9.885
   55DOPE   C12 6971   0.395   5.773   9.294
   55DOPE  H12A 6972   0.303   5.799   9.126
   55DOPE  H12B 6973   0.457   5.706   9.105
   55DOPE   C11 6974   0.475   5.902   9.384
   55DOPE  H11A 6975   0.536   5.889   9.663
   55DOPE  H11B 6976   0.405   5.985   9.444
   55DOPE     P 6977   0.712   5.897   9.051
   55DOPE   O13 6978   0.777   5.954   8.688
   55DOPE   O14 6979   0.717   5.750   9.132
   55DOPE   O11 6980   0.747   5.983   9.444
   55DOPE   O12 6981   0.557   5.937   9.048
   55DOPE    C1 6982   0.759   6.124   9.360
   55DOPE    HA 6983   0.680   6.160   9.153
   55DOPE    HB 6984   0.858   6.137   9.216
   55DOPE    C2 6985   0.758   6.222   9.729
   55DOPE    HS 6986   0.813   6.314   9.654
   55DOPE   O21 6987   0.817   6.160  10.074
   55DOPE   C21 6988   0.948   6.138  10.011
   55DOPE   O22 6989   1.012   6.186   9.735
   55DOPE   C22 6990   1.001   6.057  10.377
   55DOPE   H2R 6991   1.081   5.989  10.278
   55DOPE   H2S 6992   0.916   5.995  10.488
   55DOPE    C3 6993   0.614   6.274   9.831
   55DOPE    HX 6994   0.569   6.315   9.549
   55DOPE    HY 6995   0.623   6.362  10.032
   55DOPE   O31 6996   0.525   6.174   9.981
   55DOPE   C31 6997   0.519   6.169  10.377
   55DOPE   O32 6998   0.559   6.253  10.611
   55DOPE   C32 6999   0.461   6.035  10.497
   55DOPE   H2X 7000   0.352   6.040  10.440
   55DOPE   H2Y 7001   0.508   5.957  10.308
   55DOPE   C23 7002   1.051   6.146  10.731
   55DOPE   H3R 7003   0.962   6.175  10.914
   55DOPE   H3S 7004   1.098   6.238  10.605
   55DOPE   C24 7005   1.156   6.084  11.010
   55DOPE   H4R 7006   1.251   6.078  10.836
   55DOPE   H4S 7007   1.125   5.981  11.088
   55DOPE   C25 7008   1.183   6.163  11.400
   55DOPE   H5R 7009   1.220   6.264  11.325
   55DOPE   H5S 7010   1.269   6.118  11.559
   55DOPE   C26 7011   1.063   6.170  11.685
   55DOPE   H6R 7012   0.997   6.084  11.604
   55DOPE   H6S 7013   1.000   6.260  11.631
   55DOPE   C27 7014   1.099   6.149  12.129
   55DOPE   H7R 7015   1.193   6.089  12.144
   55DOPE   H7S 7016   1.017   6.087  12.261
   55DOPE   C28 7017   1.117   6.270  12.408
   55DOPE   H8R 7018   1.190   6.335  12.252
   55DOPE   H8S 7019   1.165   6.244  12.696
   55DOPE   C29 7020   0.979   6.330  12.474
   55DOPE   H9R 7021   0.933   6.363  12.192
   55DOPE  C210 7022   0.908   6.352  12.813
   55DOPE  H10R 7023   0.808   6.392  12.774
   55DOPE  C211 7024   0.940   6.326  13.248
   55DOPE  H11R 7025   0.928   6.422  13.410
   55DOPE  H11S 7026   1.045   6.296  13.287
   55DOPE  C212 7027   0.845   6.227  13.458
   55DOPE  H12R 7028   0.867   6.125  13.341
   55DOPE  H12S 7029   0.739   6.251  13.386
   55DOPE  C213 7030   0.859   6.227  13.920
   55DOPE  H13R 7031   0.797   6.309  14.046
   55DOPE  H13S 7032   0.964   6.248  13.998
   55DOPE  C214 7033   0.820   6.096  14.133
   55DOPE  H14R 7034   0.711   6.080  14.085
   55DOPE  H14S 7035   0.837   6.111  14.460
   55DOPE  C215 7036   0.899   5.972  13.995
   55DOPE  H15R 7037   1.003   6.006  13.944
   55DOPE  H15S 7038   0.859   5.934  13.710
   55DOPE  C216 7039   0.913   5.857  14.298
   55DOPE  H16R 7040   0.819   5.799  14.286
   55DOPE  H16S 7041   0.928   5.901  14.601
   55DOPE  C217 7042   1.024   5.755  14.211
   55DOPE  H17R 7043   1.118   5.788  14.361
   55DOPE  H17S 7044   1.042   5.754  13.884
   55DOPE  C218 7045   0.992   5.610  14.340
   55DOPE  H18R 7046   1.070   5.541  14.229
   55DOPE  H18S 7047   0.894   5.578  14.214
   55DOPE  H18T 7048   0.987   5.600  14.673
   55DOPE   C33 7049   0.486   6.004  10.944
   55DOPE   H3X 7050   0.430   5.913  11.031
   55DOPE   H3Y 7051   0.445   6.088  11.127
   55DOPE   C34 7052   0.635   5.983  11.031
   55DOPE   H4X 7053   0.672   5.894  10.863
   55DOPE   H4Y 7054   0.693   6.071  10.917
   55DOPE   C35 7055   0.666   5.968  11.478
   55DOPE   H5X 7056   0.777   5.974  11.517
   55DOPE   H5Y 7057   0.633   5.867  11.580
   55DOPE   C36 7058   0.605   6.076  11.745
   55DOPE   H6X 7059   0.495   6.065  11.760
   55DOPE   H6Y 7060   0.630   6.175  11.616
   55DOPE   C37 7061   0.661   6.068  12.174
   55DOPE   H7X 7062   0.772   6.070  12.156
   55DOPE   H7Y 7063   0.629   6.159  12.339
   55DOPE   C38 7064   0.614   5.943  12.402
   55DOPE   H8X 7065   0.637   5.850  12.231
   55DOPE   H8Y 7066   0.503   5.947  12.426
   55DOPE   C39 7067   0.678   5.938  12.807
   55DOPE   H9X 7068   0.770   5.878  12.834
   55DOPE  C310 7069   0.627   5.996  13.137
   55DOPE  H10X 7070   0.681   5.988  13.422
   55DOPE  C311 7071   0.499   6.074  13.155
   55DOPE  H11X 7072   0.509   6.161  13.359
   55DOPE  H11Y 7073   0.470   6.114  12.858
   55DOPE  C312 7074   0.386   5.981  13.302
   55DOPE  H12X 7075   0.370   5.901  13.074
   55DOPE  H12Y 7076   0.291   6.040  13.317
   55DOPE  C313 7077   0.413   5.916  13.710
   55DOPE  H13X 7078   0.328   5.848  13.785
   55DOPE  H13Y 7079   0.504   5.853  13.695
   55DOPE  C314 7080   0.429   6.018  14.052
   55DOPE  H14X 7081   0.332   6.072  14.073
   55DOPE  H14Y 7082   0.505   6.094  13.980
   55DOPE  C315 7083   0.458   5.954  14.463
   55DOPE  H15X 7084   0.392   5.865  14.493
   55DOPE  H15Y 7085   0.431   6.029  14.697
   55DOPE  C316 7086   0.604   5.910  14.544
   55DOPE  H16X 7087   0.661   5.998  14.649
   55DOPE  H16Y 7088   0.643   5.876  14.250
   55DOPE  C317 7089   0.623   5.799  14.862
   55DOPE  H17X 7090   0.566   5.834  15.123
   55DOPE  H17Y 7091   0.579   5.704  14.745
   55DOPE  C318 7092   0.759   5.768  15.057
   55DOPE  H18X 7093   0.810   5.861  15.159
   55DOPE  H18Y 7094   0.745   5.702  15.324
   55DOPE  H18Z 7095   0.824   5.712  14.853
   56DOPE     N 7096   0.904   6.407   8.436
   56DOPE   HN1 7097   0.858   6.497   8.373
   56DOPE   HN2 7098   1.008   6.415   8.394
   56DOPE   HN3 7099   0.871   6.331   8.244
   56DOPE   C12 7100   0.890   6.370   8.865
   56DOPE  H12A 7101   0.964   6.291   8.934
   56DOPE  H12B 7102   0.787   6.331   8.907
   56DOPE   C11 7103   0.910   6.491   9.138
   56DOPE  H11A 7104   0.918   6.456   9.456
   56DOPE  H11B 7105   0.820   6.555   9.102
   56DOPE     P 7106   1.048   6.693   9.333
   56DOPE   O13 7107   1.155   6.777   9.162
   56DOPE   O14 7108   1.061   6.642   9.747
   56DOPE   O11 7109   0.907   6.767   9.279
   56DOPE   O12 7110   1.026   6.566   9.039
   56DOPE    C1 7111   0.882   6.819   8.880
   56DOPE    HA 7112   0.879   6.737   8.655
   56DOPE    HB 7113   0.965   6.889   8.796
   56DOPE    C2 7114   0.751   6.904   8.820
   56DOPE    HS 7115   0.775   6.974   8.574
   56DOPE   O21 7116   0.709   6.976   9.165
   56DOPE   C21 7117   0.799   7.047   9.339
   56DOPE   O22 7118   0.887   7.114   9.174
   56DOPE   C22 7119   0.773   7.033   9.786
   56DOPE   H2R 7120   0.814   6.934   9.870
   56DOPE   H2S 7121   0.665   7.034   9.849
   56DOPE    C3 7122   0.629   6.821   8.685
   56DOPE    HX 7123   0.644   6.789   8.370
   56DOPE    HY 7124   0.538   6.885   8.688
   56DOPE   O31 7125   0.613   6.705   8.934
   56DOPE   C31 7126   0.563   6.728   9.294
   56DOPE   O32 7127   0.501   6.826   9.405
   56DOPE   C32 7128   0.585   6.607   9.552
   56DOPE   H2X 7129   0.488   6.553   9.567
   56DOPE   H2Y 7130   0.660   6.538   9.426
   56DOPE   C23 7131   0.846   7.143  10.011
   56DOPE   H3R 7132   0.799   7.238   9.924
   56DOPE   H3S 7133   0.948   7.145   9.891
   56DOPE   C24 7134   0.846   7.130  10.470
   56DOPE   H4R 7135   0.737   7.126  10.548
   56DOPE   H4S 7136   0.888   7.221  10.617
   56DOPE   C25 7137   0.908   7.003  10.644
   56DOPE   H5R 7138   1.010   7.020  10.767
   56DOPE   H5S 7139   0.921   6.926  10.404
   56DOPE   C26 7140   0.814   6.946  10.965
   56DOPE   H6R 7141   0.854   6.849  11.079
   56DOPE   H6S 7142   0.715   6.927  10.824
   56DOPE   C27 7143   0.799   7.038  11.325
   56DOPE   H7R 7144   0.807   7.145  11.238
   56DOPE   H7S 7145   0.888   7.011  11.508
   56DOPE   C28 7146   0.670   7.020  11.568
   56DOPE   H8R 7147   0.582   7.045  11.379
   56DOPE   H8S 7148   0.672   7.090  11.829
   56DOPE   C29 7149   0.665   6.877  11.697
   56DOPE   H9R 7150   0.607   6.811  11.499
   56DOPE  C210 7151   0.719   6.827  12.033
   56DOPE  H10R 7152   0.718   6.719  12.078
   56DOPE  C211 7153   0.795   6.902  12.351
   56DOPE  H11R 7154   0.763   7.008  12.372
   56DOPE  H11S 7155   0.903   6.906  12.279
   56DOPE  C212 7156   0.775   6.828  12.750
   56DOPE  H12R 7157   0.815   6.725  12.720
   56DOPE  H12S 7158   0.667   6.814  12.813
   56DOPE  C213 7159   0.845   6.895  13.110
   56DOPE  H13R 7160   0.952   6.889  13.041
   56DOPE  H13S 7161   0.827   6.834  13.386
   56DOPE  C214 7162   0.809   7.041  13.209
   56DOPE  H14R 7163   0.712   7.040  13.368
   56DOPE  H14S 7164   0.800   7.103  12.936
   56DOPE  C215 7165   0.911   7.105  13.491
   56DOPE  H15R 7166   1.000   7.132  13.317
   56DOPE  H15S 7167   0.941   7.033  13.728
   56DOPE  C216 7168   0.872   7.238  13.677
   56DOPE  H16R 7169   0.865   7.316  13.437
   56DOPE  H16S 7170   0.954   7.267  13.887
   56DOPE  C217 7171   0.742   7.239  13.911
   56DOPE  H17R 7172   0.657   7.211  13.716
   56DOPE  H17S 7173   0.728   7.344  13.989
   56DOPE  C218 7174   0.742   7.157  14.292
   56DOPE  H18R 7175   0.736   7.049  14.223
   56DOPE  H18S 7176   0.654   7.185  14.481
   56DOPE  H18T 7177   0.833   7.177  14.475
   56DOPE   C33 7178   0.627   6.648   9.975
   56DOPE   H3X 7179   0.608   6.556  10.152
   56DOPE   H3Y 7180   0.567   6.731  10.107
   56DOPE   C34 7181   0.772   6.654  10.083
   56DOPE   H4X 7182   0.823   6.565   9.960
   56DOPE   H4Y 7183   0.826   6.741   9.957
   56DOPE   C35 7184   0.777   6.655  10.542
   56DOPE   H5X 7185   0.684   6.698  10.674
   56DOPE   H5Y 7186   0.860   6.724  10.614
   56DOPE   C36 7187   0.806   6.519  10.722
   56DOPE   H6X 7188   0.734   6.442  10.617
   56DOPE   H6Y 7189   0.797   6.524  11.055
   56DOPE   C37 7190   0.949   6.481  10.620
   56DOPE   H7X 7191   0.956   6.373  10.674
   56DOPE   H7Y 7192   0.972   6.494  10.296
   56DOPE   C38 7193   1.050   6.566  10.860
   56DOPE   H8X 7194   1.013   6.666  10.935
   56DOPE   H8Y 7195   1.141   6.579  10.668
   56DOPE   C39 7196   1.084   6.489  11.226
   56DOPE   H9X 7197   1.103   6.387  11.139
   56DOPE  C310 7198   1.071   6.518  11.619
   56DOPE  H10X 7199   1.105   6.441  11.829
   56DOPE  C311 7200   1.016   6.640  11.820
   56DOPE  H11X 7201   0.987   6.718  11.598
   56DOPE  H11Y 7202   0.923   6.611  11.982
   56DOPE  C312 7203   1.112   6.700  12.135
   56DOPE  H12X 7204   1.060   6.789  12.252
   56DOPE  H12Y 7205   1.207   6.731  11.991
   56DOPE  C313 7206   1.137   6.610  12.501
   56DOPE  H13X 7207   1.037   6.587  12.630
   56DOPE  H13Y 7208   1.184   6.517  12.396
   56DOPE  C314 7209   1.229   6.661  12.834
   56DOPE  H14X 7210   1.235   6.771  12.816
   56DOPE  H14Y 7211   1.332   6.624  12.774
   56DOPE  C315 7212   1.188   6.614  13.257
   56DOPE  H15X 7213   1.269   6.643  13.467
   56DOPE  H15Y 7214   1.183   6.504  13.257
   56DOPE  C316 7215   1.055   6.672  13.404
   56DOPE  H16X 7216   0.974   6.639  13.200
   56DOPE  H16Y 7217   1.064   6.783  13.383
   56DOPE  C317 7218   1.011   6.642  13.839
   56DOPE  H17X 7219   1.026   6.734  14.019
   56DOPE  H17Y 7220   0.901   6.624  13.839
   56DOPE  C318 7221   1.081   6.525  14.049
   56DOPE  H18X 7222   1.053   6.522  14.373
   56DOPE  H18Y 7223   1.054   6.428  13.914
   56DOPE  H18Z 7224   1.191   6.536  14.031
   57DOPE     N 7225  -0.021   2.083   8.958
   57DOPE   HN1 7226   0.048   2.042   8.760
   57DOPE   HN2 7227   0.033   2.139   9.171
   57DOPE   HN3 7228  -0.082   2.012   9.093
   57DOPE   C12 7229  -0.104   2.191   8.772
   57DOPE  H12A 7230  -0.211   2.161   8.766
   57DOPE  H12B 7231  -0.065   2.209   8.466
   57DOPE   C11 7232  -0.081   2.316   9.021
   57DOPE  H11A 7233  -0.123   2.301   9.327
   57DOPE  H11B 7234  -0.139   2.400   8.877
   57DOPE     P 7235   0.092   2.495   9.162
   57DOPE   O13 7236  -0.017   2.537   9.429
   57DOPE   O14 7237   0.106   2.570   8.781
   57DOPE   O11 7238   0.232   2.498   9.396
   57DOPE   O12 7239   0.061   2.343   9.051
   57DOPE    C1 7240   0.343   2.578   9.252
   57DOPE    HA 7241   0.308   2.678   9.159
   57DOPE    HB 7242   0.384   2.528   8.979
   57DOPE    C2 7243   0.466   2.594   9.552
   57DOPE    HS 7244   0.559   2.585   9.372
   57DOPE   O21 7245   0.467   2.491   9.849
   57DOPE   C21 7246   0.449   2.366   9.741
   57DOPE   O22 7247   0.461   2.319   9.402
   57DOPE   C22 7248   0.440   2.281  10.131
   57DOPE   H2R 7249   0.490   2.338  10.374
   57DOPE   H2S 7250   0.503   2.192  10.074
   57DOPE    C3 7251   0.483   2.733   9.795
   57DOPE    HX 7252   0.539   2.804   9.609
   57DOPE    HY 7253   0.553   2.706  10.041
   57DOPE   O31 7254   0.362   2.799   9.954
   57DOPE   C31 7255   0.380   2.870  10.308
   57DOPE   O32 7256   0.490   2.886  10.452
   57DOPE   C32 7257   0.246   2.918  10.521
   57DOPE   H2X 7258   0.269   3.022  10.617
   57DOPE   H2Y 7259   0.173   2.929  10.281
   57DOPE   C23 7260   0.302   2.229  10.290
   57DOPE   H3R 7261   0.262   2.156  10.068
   57DOPE   H3S 7262   0.222   2.300  10.353
   57DOPE   C24 7263   0.317   2.161  10.698
   57DOPE   H4R 7264   0.417   2.118  10.680
   57DOPE   H4S 7265   0.239   2.083  10.731
   57DOPE   C25 7266   0.324   2.246  11.082
   57DOPE   H5R 7267   0.238   2.315  11.100
   57DOPE   H5S 7268   0.416   2.307  11.085
   57DOPE   C26 7269   0.327   2.152  11.448
   57DOPE   H6R 7270   0.434   2.142  11.544
   57DOPE   H6S 7271   0.294   2.054  11.334
   57DOPE   C27 7272   0.236   2.182  11.814
   57DOPE   H7R 7273   0.280   2.271  11.964
   57DOPE   H7S 7274   0.240   2.099  12.033
   57DOPE   C28 7275   0.088   2.209  11.706
   57DOPE   H8R 7276   0.085   2.223  11.376
   57DOPE   H8S 7277   0.063   2.309  11.820
   57DOPE   C29 7278  -0.028   2.118  11.802
   57DOPE   H9R 7279  -0.057   2.057  11.541
   57DOPE  C210 7280  -0.093   2.091  12.144
   57DOPE  H10R 7281  -0.183   2.029  12.111
   57DOPE  C211 7282  -0.080   2.136  12.573
   57DOPE  H11R 7283   0.025   2.146  12.672
   57DOPE  H11S 7284  -0.113   2.042  12.723
   57DOPE  C212 7285  -0.177   2.236  12.783
   57DOPE  H12R 7286  -0.274   2.232  12.621
   57DOPE  H12S 7287  -0.148   2.342  12.798
   57DOPE  C213 7288  -0.200   2.193  13.221
   57DOPE  H13R 7289  -0.252   2.098  13.164
   57DOPE  H13S 7290  -0.271   2.259  13.380
   57DOPE  C214 7291  -0.075   2.161  13.479
   57DOPE  H14R 7292   0.014   2.140  13.290
   57DOPE  H14S 7293  -0.092   2.066  13.644
   57DOPE  C215 7294  -0.040   2.266  13.794
   57DOPE  H15R 7295  -0.116   2.347  13.785
   57DOPE  H15S 7296   0.057   2.315  13.731
   57DOPE  C216 7297  -0.019   2.212  14.217
   57DOPE  H16R 7298   0.091   2.206  14.280
   57DOPE  H16S 7299  -0.058   2.110  14.250
   57DOPE  C217 7300  -0.087   2.302  14.523
   57DOPE  H17R 7301  -0.047   2.405  14.496
   57DOPE  H17S 7302  -0.058   2.263  14.823
   57DOPE  C218 7303  -0.239   2.305  14.478
   57DOPE  H18R 7304  -0.286   2.358  14.733
   57DOPE  H18S 7305  -0.278   2.201  14.475
   57DOPE  H18T 7306  -0.272   2.354  14.196
   57DOPE   C33 7307   0.182   2.839  10.896
   57DOPE   H3X 7308   0.218   2.879  11.187
   57DOPE   H3Y 7309   0.228   2.745  10.881
   57DOPE   C34 7310   0.034   2.782  10.941
   57DOPE   H4X 7311  -0.033   2.811  10.698
   57DOPE   H4Y 7312   0.041   2.671  10.935
   57DOPE   C35 7313  -0.031   2.808  11.352
   57DOPE   H5X 7314  -0.053   2.915  11.358
   57DOPE   H5Y 7315   0.048   2.785  11.574
   57DOPE   C36 7316  -0.165   2.748  11.511
   57DOPE   H6X 7317  -0.162   2.638  11.535
   57DOPE   H6Y 7318  -0.249   2.776  11.310
   57DOPE   C37 7319  -0.180   2.818  11.925
   57DOPE   H7X 7320  -0.074   2.835  12.024
   57DOPE   H7Y 7321  -0.225   2.918  11.865
   57DOPE   C38 7322  -0.246   2.756  12.300
   57DOPE   H8X 7323  -0.200   2.659  12.387
   57DOPE   H8Y 7324  -0.354   2.738  12.243
   57DOPE   C39 7325  -0.220   2.865  12.609
   57DOPE   H9X 7326  -0.307   2.930  12.666
   57DOPE  C310 7327  -0.106   2.888  12.825
   57DOPE  H10X 7328  -0.107   2.973  13.035
   57DOPE  C311 7329   0.025   2.809  12.828
   57DOPE  H11X 7330   0.006   2.777  13.134
   57DOPE  H11Y 7331   0.016   2.721  12.642
   57DOPE  C312 7332   0.177   2.860  12.849
   57DOPE  H12X 7333   0.175   2.921  13.119
   57DOPE  H12Y 7334   0.185   2.928  12.588
   57DOPE  C313 7335   0.324   2.788  12.864
   57DOPE  H13X 7336   0.354   2.786  12.543
   57DOPE  H13Y 7337   0.388   2.867  13.002
   57DOPE  C314 7338   0.389   2.652  13.035
   57DOPE  H14X 7339   0.491   2.646  12.900
   57DOPE  H14Y 7340   0.334   2.566  12.930
   57DOPE  C315 7341   0.412   2.625  13.488
   57DOPE  H15X 7342   0.308   2.638  13.554
   57DOPE  H15Y 7343   0.470   2.705  13.638
   57DOPE  C316 7344   0.446   2.483  13.677
   57DOPE  H16X 7345   0.553   2.462  13.620
   57DOPE  H16Y 7346   0.389   2.404  13.518
   57DOPE  C317 7347   0.422   2.459  14.142
   57DOPE  H17X 7348   0.468   2.360  14.220
   57DOPE  H17Y 7349   0.480   2.534  14.313
   57DOPE  C318 7350   0.278   2.452  14.307
   57DOPE  H18X 7351   0.260   2.433  14.625
   57DOPE  H18Y 7352   0.229   2.550  14.286
   57DOPE  H18Z 7353   0.219   2.375  14.145
   58DOPE     N 7354   7.496   5.884   8.406
   58DOPE   HN1 7355   7.417   5.828   8.529
   58DOPE   HN2 7356   7.483   5.880   8.094
   58DOPE   HN3 7357   7.587   5.840   8.463
   58DOPE   C12 7358   7.496   6.022   8.592
   58DOPE  H12A 7359   7.418   6.081   8.439
   58DOPE  H12B 7360   7.595   6.068   8.538
   58DOPE   C11 7361   7.468   6.019   9.048
   58DOPE  H11A 7362   7.453   6.122   9.165
   58DOPE  H11B 7363   7.560   5.983   9.201
   58DOPE     P 7364   7.291   5.927   9.561
   58DOPE   O13 7365   7.157   5.866   9.537
   58DOPE   O14 7366   7.311   6.056   9.768
   58DOPE   O11 7367   7.388   5.821   9.756
   58DOPE   O12 7368   7.353   5.936   9.120
   58DOPE    C1 7369   7.480   5.739   9.537
   58DOPE    HA 7370   7.551   5.798   9.354
   58DOPE    HB 7371   7.426   5.675   9.321
   58DOPE    C2 7372   7.575   5.655   9.813
   58DOPE    HS 7373   7.593   5.556   9.666
   58DOPE   O21 7374   7.527   5.648  10.224
   58DOPE   C21 7375   7.476   5.529  10.302
   58DOPE   O22 7376   7.462   5.441  10.056
   58DOPE   C22 7377   7.459   5.501  10.758
   58DOPE   H2R 7378   7.554   5.525  10.908
   58DOPE   H2S 7379   7.441   5.391  10.773
   58DOPE    C3 7380   7.715   5.721   9.816
   58DOPE    HX 7381   7.762   5.707   9.519
   58DOPE    HY 7382   7.775   5.665  10.047
   58DOPE   O31 7383   7.701   5.862   9.897
   58DOPE   C31 7384   7.788   5.910  10.152
   58DOPE   O32 7385   7.898   5.859  10.215
   58DOPE   C32 7386   7.730   6.039  10.338
   58DOPE   H2X 7387   7.810   6.114  10.380
   58DOPE   H2Y 7388   7.654   6.081  10.128
   58DOPE   C23 7389   7.340   5.563  10.983
   58DOPE   H3R 7390   7.307   5.493  11.223
   58DOPE   H3S 7391   7.254   5.575  10.779
   58DOPE   C24 7392   7.372   5.696  11.181
   58DOPE   H4R 7393   7.429   5.762  10.971
   58DOPE   H4S 7394   7.434   5.681  11.451
   58DOPE   C25 7395   7.243   5.768  11.295
   58DOPE   H5R 7396   7.178   5.702  11.481
   58DOPE   H5S 7397   7.188   5.794  11.016
   58DOPE   C26 7398   7.272   5.895  11.529
   58DOPE   H6R 7399   7.348   5.954  11.364
   58DOPE   H6S 7400   7.315   5.865  11.826
   58DOPE   C27 7401   7.147   5.980  11.601
   58DOPE   H7R 7402   7.059   5.913  11.631
   58DOPE   H7S 7403   7.130   6.045  11.334
   58DOPE   C28 7404   7.161   6.064  11.985
   58DOPE   H8R 7405   7.175   5.994  12.240
   58DOPE   H8S 7406   7.066   6.120  12.036
   58DOPE   C29 7407   7.280   6.157  11.952
   58DOPE   H9R 7408   7.361   6.122  11.760
   58DOPE  C210 7409   7.298   6.273  12.147
   58DOPE  H10R 7410   7.391   6.329  12.093
   58DOPE  C211 7411   7.205   6.337  12.441
   58DOPE  H11R 7412   7.117   6.274  12.513
   58DOPE  H11S 7413   7.166   6.428  12.297
   58DOPE  C212 7414   7.281   6.380  12.822
   58DOPE  H12R 7415   7.207   6.424  13.035
   58DOPE  H12S 7416   7.354   6.459  12.744
   58DOPE  C213 7417   7.349   6.264  13.047
   58DOPE  H13R 7418   7.414   6.305  13.287
   58DOPE  H13S 7419   7.413   6.206  12.840
   58DOPE  C214 7420   7.240   6.176  13.230
   58DOPE  H14R 7421   7.163   6.159  12.996
   58DOPE  H14S 7422   7.191   6.233  13.476
   58DOPE  C215 7423   7.281   6.037  13.368
   58DOPE  H15R 7424   7.340   6.042  13.650
   58DOPE  H15S 7425   7.344   5.986  13.137
   58DOPE  C216 7426   7.152   5.956  13.425
   58DOPE  H16R 7427   7.172   5.849  13.452
   58DOPE  H16S 7428   7.085   5.969  13.158
   58DOPE  C217 7429   7.079   5.996  13.800
   58DOPE  H17R 7430   6.984   5.938  13.800
   58DOPE  H17S 7431   7.057   6.105  13.791
   58DOPE  C218 7432   7.146   5.963  14.190
   58DOPE  H18R 7433   7.121   5.859  14.283
   58DOPE  H18S 7434   7.112   6.034  14.424
   58DOPE  H18T 7435   7.256   5.973  14.169
   58DOPE   C33 7436   7.657   6.012  10.737
   58DOPE   H3X 7437   7.561   5.958  10.686
   58DOPE   H3Y 7438   7.630   6.110  10.875
   58DOPE   C34 7439   7.742   5.933  11.037
   58DOPE   H4X 7440   7.736   5.825  10.965
   58DOPE   H4Y 7441   7.849   5.964  11.019
   58DOPE   C35 7442   7.691   5.958  11.463
   58DOPE   H5X 7443   7.586   5.923  11.475
   58DOPE   H5Y 7444   7.693   6.067  11.526
   58DOPE   C36 7445   7.775   5.887  11.778
   58DOPE   H6X 7446   7.882   5.917  11.748
   58DOPE   H6Y 7447   7.771   5.777  11.721
   58DOPE   C37 7448   7.728   5.918  12.207
   58DOPE   H7X 7449   7.794   5.864  12.417
   58DOPE   H7Y 7450   7.741   6.027  12.264
   58DOPE   C38 7451   7.581   5.882  12.285
   58DOPE   H8X 7452   7.512   5.935  12.078
   58DOPE   H8Y 7453   7.553   5.915  12.591
   58DOPE   C39 7454   7.569   5.733  12.234
   58DOPE   H9X 7455   7.574   5.696  11.925
   58DOPE  C310 7456   7.561   5.645  12.537
   58DOPE  H10X 7457   7.566   5.538  12.465
   58DOPE  C311 7458   7.562   5.681  12.972
   58DOPE  H11X 7459   7.484   5.757  13.041
   58DOPE  H11Y 7460   7.537   5.590  13.143
   58DOPE  C312 7461   7.698   5.732  13.134
   58DOPE  H12X 7462   7.716   5.834  13.017
   58DOPE  H12Y 7463   7.779   5.667  13.014
   58DOPE  C313 7464   7.702   5.735  13.596
   58DOPE  H13X 7465   7.623   5.668  13.707
   58DOPE  H13Y 7466   7.799   5.695  13.701
   58DOPE  C314 7467   7.683   5.879  13.755
   58DOPE  H14X 7468   7.581   5.914  13.677
   58DOPE  H14Y 7469   7.755   5.944  13.593
   58DOPE  C315 7470   7.707   5.902  14.208
   58DOPE  H15X 7471   7.801   5.854  14.307
   58DOPE  H15Y 7472   7.626   5.859  14.394
   58DOPE  C316 7473   7.709   6.053  14.304
   58DOPE  H16X 7474   7.653   6.106  14.061
   58DOPE  H16Y 7475   7.814   6.089  14.298
   58DOPE  C317 7476   7.642   6.093  14.703
   58DOPE  H17X 7477   7.644   6.204  14.730
   58DOPE  H17Y 7478   7.535   6.063  14.688
   58DOPE  C318 7479   7.707   6.033  15.078
   58DOPE  H18X 7480   7.652   6.064  15.354
   58DOPE  H18Y 7481   7.705   5.922  15.060
   58DOPE  H18Z 7482   7.812   6.065  15.102
   59DOPE     N 7483  -0.175   0.989   8.532
   59DOPE   HN1 7484  -0.222   1.001   8.808
   59DOPE   HN2 7485  -0.205   1.066   8.343
   59DOPE   HN3 7486  -0.197   0.894   8.418
   59DOPE   C12 7487  -0.032   1.006   8.649
   59DOPE  H12A 7488   0.031   1.012   8.376
   59DOPE  H12B 7489  -0.005   0.917   8.826
   59DOPE   C11 7490  -0.019   1.134   8.898
   59DOPE  H11A 7491  -0.030   1.221   8.691
   59DOPE  H11B 7492   0.083   1.142   9.033
   59DOPE     P 7493  -0.101   1.073   9.621
   59DOPE   O13 7494  -0.053   0.936   9.540
   59DOPE   O14 7495  -0.226   1.093   9.846
   59DOPE   O11 7496   0.018   1.158   9.807
   59DOPE   O12 7497  -0.122   1.142   9.195
   59DOPE    C1 7498   0.031   1.299   9.768
   59DOPE    HA 7499  -0.054   1.344   9.597
   59DOPE    HB 7500   0.125   1.321   9.603
   59DOPE    C2 7501   0.041   1.377  10.176
   59DOPE    HS 7502   0.069   1.482  10.101
   59DOPE   O21 7503   0.136   1.316  10.449
   59DOPE   C21 7504   0.250   1.378  10.515
   59DOPE   O22 7505   0.289   1.479  10.350
   59DOPE   C22 7506   0.332   1.296  10.815
   59DOPE   H2R 7507   0.439   1.314  10.752
   59DOPE   H2S 7508   0.309   1.190  10.752
   59DOPE    C3 7509  -0.099   1.386  10.383
   59DOPE    HX 7510  -0.172   1.417  10.152
   59DOPE    HY 7511  -0.097   1.466  10.617
   59DOPE   O31 7512  -0.142   1.259  10.539
   59DOPE   C31 7513  -0.098   1.230  10.902
   59DOPE   O32 7514  -0.048   1.310  11.136
   59DOPE   C32 7515  -0.132   1.087  11.013
   59DOPE   H2X 7516  -0.141   1.082  11.343
   59DOPE   H2Y 7517  -0.232   1.066  10.878
   59DOPE   C23 7518   0.298   1.327  11.259
   59DOPE   H3R 7519   0.188   1.337  11.295
   59DOPE   H3S 7520   0.345   1.423  11.349
   59DOPE   C24 7521   0.346   1.215  11.535
   59DOPE   H4R 7522   0.453   1.201  11.466
   59DOPE   H4S 7523   0.291   1.122  11.460
   59DOPE   C25 7524   0.331   1.237  11.988
   59DOPE   H5R 7525   0.334   1.138  12.141
   59DOPE   H5S 7526   0.232   1.284  12.051
   59DOPE   C26 7527   0.445   1.320  12.168
   59DOPE   H6R 7528   0.463   1.409  11.976
   59DOPE   H6S 7529   0.540   1.262  12.156
   59DOPE   C27 7530   0.421   1.362  12.606
   59DOPE   H7R 7531   0.314   1.377  12.678
   59DOPE   H7S 7532   0.470   1.458  12.651
   59DOPE   C28 7533   0.506   1.292  12.921
   59DOPE   H8R 7534   0.561   1.368  13.101
   59DOPE   H8S 7535   0.584   1.237  12.759
   59DOPE   C29 7536   0.432   1.204  13.203
   59DOPE   H9R 7537   0.322   1.200  13.179
   59DOPE  C210 7538   0.497   1.134  13.485
   59DOPE  H10R 7539   0.436   1.067  13.671
   59DOPE  C211 7540   0.648   1.133  13.557
   59DOPE  H11R 7541   0.698   1.218  13.398
   59DOPE  H11S 7542   0.691   1.040  13.431
   59DOPE  C212 7543   0.692   1.141  14.001
   59DOPE  H12R 7544   0.662   1.240  14.121
   59DOPE  H12S 7545   0.802   1.134  14.022
   59DOPE  C213 7546   0.627   1.031  14.253
   59DOPE  H13R 7547   0.664   0.931  14.172
   59DOPE  H13S 7548   0.523   1.031  14.157
   59DOPE  C214 7549   0.617   1.049  14.709
   59DOPE  H14R 7550   0.610   1.158  14.781
   59DOPE  H14S 7551   0.709   1.010  14.859
   59DOPE  C215 7552   0.494   0.976  14.883
   59DOPE  H15R 7553   0.490   0.990  15.210
   59DOPE  H15S 7554   0.514   0.869  14.862
   59DOPE  C216 7555   0.357   1.013  14.700
   59DOPE  H16R 7556   0.352   1.006  14.367
   59DOPE  H16S 7557   0.336   1.118  14.775
   59DOPE  C217 7558   0.243   0.923  14.835
   59DOPE  H17R 7559   0.253   0.907  15.162
   59DOPE  H17S 7560   0.256   0.829  14.670
   59DOPE  C218 7561   0.101   0.969  14.739
   59DOPE  H18R 7562   0.027   0.898  14.871
   59DOPE  H18S 7563   0.084   0.975  14.412
   59DOPE  H18T 7564   0.081   1.068  14.877
   59DOPE   C33 7565  -0.032   0.982  10.845
   59DOPE   H3X 7566   0.006   1.013  10.545
   59DOPE   H3Y 7567  -0.090   0.888  10.797
   59DOPE   C34 7568   0.086   0.945  11.121
   59DOPE   H4X 7569   0.127   0.850  11.004
   59DOPE   H4Y 7570   0.165   1.023  11.085
   59DOPE   C35 7571   0.054   0.923  11.565
   59DOPE   H5X 7572   0.028   1.021  11.703
   59DOPE   H5Y 7573   0.145   0.886  11.724
   59DOPE   C36 7574  -0.062   0.824  11.631
   59DOPE   H6X 7575  -0.040   0.727  11.487
   59DOPE   H6Y 7576  -0.153   0.861  11.475
   59DOPE   C37 7577  -0.097   0.800  12.072
   59DOPE   H7X 7578  -0.160   0.708  12.090
   59DOPE   H7Y 7579  -0.004   0.781  12.249
   59DOPE   C38 7580  -0.173   0.920  12.237
   59DOPE   H8X 7581  -0.253   0.948  12.018
   59DOPE   H8Y 7582  -0.100   1.004  12.243
   59DOPE   C39 7583  -0.236   0.896  12.642
   59DOPE   H9X 7584  -0.271   0.793  12.702
   59DOPE  C310 7585  -0.255   0.992  12.915
   59DOPE  H10X 7586  -0.300   0.967  13.206
   59DOPE  C311 7587  -0.217   1.137  12.855
   59DOPE  H11X 7588  -0.167   1.157  12.564
   59DOPE  H11Y 7589  -0.308   1.200  12.855
   59DOPE  C312 7590  -0.126   1.187  13.188
   59DOPE  H12X 7591  -0.082   1.284  13.089
   59DOPE  H12Y 7592  -0.041   1.118  13.245
   59DOPE  C313 7593  -0.204   1.213  13.572
   59DOPE  H13X 7594  -0.305   1.252  13.497
   59DOPE  H13Y 7595  -0.220   1.117  13.737
   59DOPE  C314 7596  -0.134   1.315  13.836
   59DOPE  H14X 7597  -0.194   1.324  14.112
   59DOPE  H14Y 7598  -0.134   1.416  13.701
   59DOPE  C315 7599   0.011   1.283  13.908
   59DOPE  H15X 7600   0.070   1.292  13.626
   59DOPE  H15Y 7601   0.017   1.177  14.007
   59DOPE  C316 7602   0.074   1.374  14.223
   59DOPE  H16X 7603   0.000   1.399  14.460
   59DOPE  H16Y 7604   0.108   1.470  14.091
   59DOPE  C317 7605   0.188   1.299  14.418
   59DOPE  H17X 7606   0.217   1.351  14.697
   59DOPE  H17Y 7607   0.151   1.199  14.499
   59DOPE  C318 7608   0.305   1.286  14.136
   59DOPE  H18X 7609   0.331   1.387  14.043
   59DOPE  H18Y 7610   0.394   1.240  14.280
   59DOPE  H18Z 7611   0.276   1.228  13.866
   60DOPE     N 7612   7.693   7.618   9.711
   60DOPE   HN1 7613   7.712   7.551   9.477
   60DOPE   HN2 7614   7.700   7.715   9.603
   60DOPE   HN3 7615   7.761   7.599   9.942
   60DOPE   C12 7616   7.551   7.585   9.810
   60DOPE  H12A 7617   7.485   7.644   9.609
   60DOPE  H12B 7618   7.529   7.610  10.128
   60DOPE   C11 7619   7.533   7.438   9.717
   60DOPE  H11A 7620   7.423   7.422   9.714
   60DOPE  H11B 7621   7.577   7.377   9.966
   60DOPE     P 7622   7.593   7.247   9.231
   60DOPE   O13 7623   7.708   7.182   9.414
   60DOPE   O14 7624   7.571   7.221   8.802
   60DOPE   O11 7625   7.465   7.208   9.453
   60DOPE   O12 7626   7.593   7.404   9.336
   60DOPE    C1 7627   7.341   7.227   9.252
   60DOPE    HA 7628   7.343   7.197   8.928
   60DOPE    HB 7629   7.310   7.333   9.270
   60DOPE    C2 7630   7.247   7.134   9.471
   60DOPE    HS 7631   7.143   7.151   9.363
   60DOPE   O21 7632   7.254   7.155   9.894
   60DOPE   C21 7633   7.219   7.277  10.002
   60DOPE   O22 7634   7.163   7.359   9.789
   60DOPE   C22 7635   7.242   7.293  10.446
   60DOPE   H2R 7636   7.295   7.204  10.569
   60DOPE   H2S 7637   7.141   7.298  10.587
   60DOPE    C3 7638   7.292   6.990   9.366
   60DOPE    HX 7639   7.291   6.987   9.033
   60DOPE    HY 7640   7.211   6.927   9.483
   60DOPE   O31 7641   7.425   6.951   9.498
   60DOPE   C31 7642   7.423   6.896   9.864
   60DOPE   O32 7643   7.327   6.835   9.996
   60DOPE   C32 7644   7.551   6.917  10.101
   60DOPE   H2X 7645   7.633   6.860   9.954
   60DOPE   H2Y 7646   7.579   7.024  10.092
   60DOPE   C23 7647   7.320   7.419  10.545
   60DOPE   H3R 7648   7.272   7.511  10.425
   60DOPE   H3S 7649   7.424   7.414  10.425
   60DOPE   C24 7650   7.324   7.429  10.998
   60DOPE   H4R 7651   7.253   7.357  11.136
   60DOPE   H4S 7652   7.285   7.529  11.082
   60DOPE   C25 7653   7.463   7.399  11.160
   60DOPE   H5R 7654   7.539   7.456  10.986
   60DOPE   H5S 7655   7.484   7.291  11.118
   60DOPE   C26 7656   7.473   7.438  11.601
   60DOPE   H6R 7657   7.568   7.402  11.736
   60DOPE   H6S 7658   7.390   7.382  11.748
   60DOPE   C27 7659   7.462   7.590  11.652
   60DOPE   H7R 7660   7.392   7.635  11.433
   60DOPE   H7S 7661   7.561   7.635  11.586
   60DOPE   C28 7662   7.412   7.636  12.066
   60DOPE   H8R 7663   7.394   7.746  12.048
   60DOPE   H8S 7664   7.492   7.623  12.291
   60DOPE   C29 7665   7.284   7.564  12.177
   60DOPE   H9R 7666   7.196   7.583  11.985
   60DOPE  C210 7667   7.271   7.467  12.447
   60DOPE  H10R 7668   7.172   7.422  12.492
   60DOPE  C211 7669   7.384   7.411  12.690
   60DOPE  H11R 7670   7.481   7.436  12.549
   60DOPE  H11S 7671   7.376   7.301  12.687
   60DOPE  C212 7672   7.392   7.455  13.131
   60DOPE  H12R 7673   7.434   7.558  13.146
   60DOPE  H12S 7674   7.463   7.387  13.281
   60DOPE  C213 7675   7.258   7.448  13.356
   60DOPE  H13R 7676   7.213   7.349  13.320
   60DOPE  H13S 7677   7.188   7.523  13.227
   60DOPE  C214 7678   7.274   7.463  13.809
   60DOPE  H14R 7679   7.360   7.400  13.905
   60DOPE  H14S 7680   7.183   7.422  13.956
   60DOPE  C215 7681   7.296   7.608  13.929
   60DOPE  H15R 7682   7.376   7.650  13.734
   60DOPE  H15S 7683   7.332   7.612  14.244
   60DOPE  C216 7684   7.170   7.694  13.887
   60DOPE  H16R 7685   7.111   7.684  14.169
   60DOPE  H16S 7686   7.106   7.657  13.638
   60DOPE  C217 7687   7.201   7.841  13.809
   60DOPE  H17R 7688   7.105   7.898  13.788
   60DOPE  H17S 7689   7.252   7.850  13.512
   60DOPE  C218 7690   7.290   7.903  14.133
   60DOPE  H18R 7691   7.297   8.013  14.100
   60DOPE  H18S 7692   7.392   7.861  14.127
   60DOPE  H18T 7693   7.246   7.881  14.427
   60DOPE   C33 7694   7.540   6.866  10.542
   60DOPE   H3X 7695   7.643   6.875  10.653
   60DOPE   H3Y 7696   7.512   6.758  10.563
   60DOPE   C34 7697   7.469   6.946  10.875
   60DOPE   H4X 7698   7.485   7.055  10.824
   60DOPE   H4Y 7699   7.360   6.926  10.875
   60DOPE   C35 7700   7.530   6.905  11.283
   60DOPE   H5X 7701   7.639   6.924  11.259
   60DOPE   H5Y 7702   7.518   6.795  11.325
   60DOPE   C36 7703   7.485   6.977  11.667
   60DOPE   H6X 7704   7.396   6.925  11.790
   60DOPE   H6Y 7705   7.458   7.083  11.598
   60DOPE   C37 7706   7.601   6.971  11.967
   60DOPE   H7X 7707   7.635   6.866  11.970
   60DOPE   H7Y 7708   7.684   7.032  11.844
   60DOPE   C38 7709   7.577   7.014  12.402
   60DOPE   H8X 7710   7.655   6.966  12.591
   60DOPE   H8Y 7711   7.478   6.976  12.507
   60DOPE   C39 7712   7.586   7.164  12.426
   60DOPE   H9X 7713   7.513   7.215  12.231
   60DOPE  C310 7714   7.665   7.242  12.657
   60DOPE  H10X 7715   7.658   7.351  12.618
   60DOPE  C311 7716   7.770   7.205  12.960
   60DOPE  H11X 7717   7.809   7.102  12.915
   60DOPE  H11Y 7718   7.855   7.276  12.927
   60DOPE  C312 7719   7.717   7.211  13.389
   60DOPE  H12X 7720   7.646   7.295  13.428
   60DOPE  H12Y 7721   7.802   7.232  13.593
   60DOPE  C313 7722   7.659   7.077  13.533
   60DOPE  H13X 7723   7.550   7.074  13.476
   60DOPE  H13Y 7724   7.705   6.996  13.353
   60DOPE  C314 7725   7.691   7.047  13.974
   60DOPE  H14X 7726   7.801   7.063  14.022
   60DOPE  H14Y 7727   7.670   6.940  14.031
   60DOPE  C315 7728   7.613   7.130  14.283
   60DOPE  H15X 7729   7.648   7.098  14.586
   60DOPE  H15Y 7730   7.505   7.105  14.262
   60DOPE  C316 7731   7.631   7.282  14.253
   60DOPE  H16X 7732   7.569   7.323  14.004
   60DOPE  H16Y 7733   7.738   7.305  14.187
   60DOPE  C317 7734   7.595   7.353  14.643
   60DOPE  H17X 7735   7.491   7.325  14.727
   60DOPE  H17Y 7736   7.666   7.313  14.871
   60DOPE  C318 7737   7.610   7.505  14.646
   60DOPE  H18X 7738   7.716   7.534  14.598
   60DOPE  H18Y 7739   7.548   7.552  14.409
   60DOPE  H18Z 7740   7.578   7.546  14.943
   6123SM     N 7741   3.236   4.336  23.172
   6123SM   C15 7742   3.123   4.310  22.887
   6123SM  H15A 7743   3.026   4.314  23.028
   6123SM  H15B 7744   3.138   4.212  22.746
   6123SM  H15C 7745   3.126   4.382  22.644
   6123SM   C14 7746   3.202   4.451  23.439
   6123SM  H14A 7747   3.192   4.543  23.268
   6123SM  H14B 7748   3.277   4.464  23.673
   6123SM  H14C 7749   3.106   4.433  23.580
   6123SM   C13 7750   3.259   4.213  23.421
   6123SM  H13A 7751   3.174   4.183  23.598
   6123SM  H13B 7752   3.345   4.223  23.619
   6123SM  H13C 7753   3.281   4.130  23.223
   6123SM   C12 7754   3.361   4.369  22.932
   6123SM  H12A 7755   3.445   4.366  23.139
   6123SM  H12B 7756   3.354   4.470  22.815
   6123SM   C11 7757   3.398   4.274  22.584
   6123SM  H11A 7758   3.487   4.313  22.422
   6123SM  H11B 7759   3.315   4.269  22.359
   6123SM     P 7760   3.385   4.010  22.566
   6123SM   O13 7761   3.477   3.901  22.683
   6123SM   O14 7762   3.242   3.994  22.671
   6123SM   O11 7763   3.404   4.045  22.110
   6123SM   O12 7764   3.432   4.147  22.749
   6123SM   C1S 7765   3.305   4.038  21.810
   6123SM   H1S 7766   3.251   4.135  21.783
   6123SM   H1T 7767   3.229   3.960  21.879
   6123SM    NF 7768   3.478   4.102  21.312
   6123SM   HNF 7769   3.450   4.196  21.264
   6123SM   C2S 7770   3.373   4.006  21.402
   6123SM   H2S 7771   3.418   3.904  21.423
   6123SM   C3S 7772   3.264   4.006  21.078
   6123SM   H3S 7773   3.202   4.098  21.093
   6123SM    O3 7774   3.179   3.892  21.141
   6123SM   HO3 7775   3.208   3.858  21.396
   6123SM   C4S 7776   3.331   3.993  20.673
   6123SM   H4S 7777   3.368   3.892  20.622
   6123SM   C5S 7778   3.353   4.090  20.400
   6123SM   H5S 7779   3.316   4.191  20.466
   6123SM   C6S 7780   3.421   4.072  19.995
   6123SM   H6S 7781   3.363   4.129  19.773
   6123SM   H6T 7782   3.418   3.967  19.899
   6123SM   C7S 7783   3.570   4.110  19.941
   6123SM   H7S 7784   3.633   4.035  20.094
   6123SM   H7T 7785   3.589   4.208  20.091
   6123SM   C8S 7786   3.611   4.130  19.497
   6123SM   H8S 7787   3.719   4.155  19.479
   6123SM   H8T 7788   3.557   4.222  19.398
   6123SM   C9S 7789   3.578   4.021  19.179
   6123SM   H9S 7790   3.473   3.985  19.227
   6123SM   H9T 7791   3.645   3.934  19.218
   6123SM  C10S 7792   3.589   4.076  18.744
   6123SM  H10S 7793   3.693   4.112  18.696
   6123SM  H10T 7794   3.523   4.165  18.723
   6123SM  C11S 7795   3.551   3.980  18.393
   6123SM  H11S 7796   3.444   3.951  18.426
   6123SM  H11T 7797   3.609   3.887  18.420
   6123SM  C12S 7798   3.576   4.039  17.967
   6123SM  H12S 7799   3.673   4.091  17.964
   6123SM  H12T 7800   3.499   4.114  17.886
   6123SM  C13S 7801   3.576   3.934  17.628
   6123SM  H13S 7802   3.490   3.868  17.673
   6123SM  H13T 7803   3.668   3.871  17.658
   6123SM  C14S 7804   3.572   3.992  17.196
   6123SM  H14S 7805   3.637   3.930  17.001
   6123SM  H14T 7806   3.617   4.094  17.202
   6123SM  C15S 7807   3.431   4.002  17.001
   6123SM  H15S 7808   3.408   4.110  16.959
   6123SM  H15T 7809   3.354   3.962  17.208
   6123SM  C16S 7810   3.427   3.933  16.587
   6123SM  H16S 7811   3.479   3.836  16.635
   6123SM  H16T 7812   3.486   3.996  16.377
   6123SM  C17S 7813   3.293   3.898  16.377
   6123SM  H17S 7814   3.218   3.977  16.422
   6123SM  H17T 7815   3.252   3.805  16.512
   6123SM  C18S 7816   3.309   3.879  15.921
   6123SM  H18S 7817   3.337   3.975  15.777
   6123SM  H18T 7818   3.214   3.844  15.783
   6123SM  H18U 7819   3.389   3.806  15.849
   6123SM   C1F 7820   3.607   4.079  21.357
   6123SM    OF 7821   3.652   3.967  21.420
   6123SM   C2F 7822   3.696   4.197  21.288
   6123SM   H2F 7823   3.718   4.202  20.964
   6123SM   H2G 7824   3.793   4.176  21.441
   6123SM   C3F 7825   3.640   4.334  21.435
   6123SM   H3F 7826   3.725   4.406  21.420
   6123SM   H3G 7827   3.612   4.326  21.759
   6123SM   C4F 7828   3.524   4.399  21.201
   6123SM   H4F 7829   3.516   4.505  21.300
   6123SM   H4G 7830   3.427   4.352  21.279
   6123SM   C5F 7831   3.538   4.396  20.742
   6123SM   H5F 7832   3.545   4.291  20.643
   6123SM   H5G 7833   3.631   4.449  20.652
   6123SM   C6F 7834   3.418   4.460  20.520
   6123SM   H6F 7835   3.410   4.568  20.601
   6123SM   H6G 7836   3.323   4.411  20.616
   6123SM   C7F 7837   3.430   4.447  20.061
   6123SM   H7F 7838   3.425   4.341  19.974
   6123SM   H7G 7839   3.529   4.485  19.968
   6123SM   C8F 7840   3.321   4.521  19.821
   6123SM   H8F 7841   3.329   4.629  19.890
   6123SM   H8G 7842   3.221   4.486  19.917
   6123SM   C9F 7843   3.335   4.500  19.365
   6123SM   H9F 7844   3.442   4.503  19.278
   6123SM   H9G 7845   3.284   4.584  19.206
   6123SM  C10F 7846   3.271   4.370  19.224
   6123SM  H10F 7847   3.163   4.370  19.308
   6123SM  H10G 7848   3.320   4.285  19.383
   6123SM  C11F 7849   3.283   4.346  18.774
   6123SM  H11F 7850   3.391   4.343  18.693
   6123SM  H11G 7851   3.236   4.429  18.603
   6123SM  C12F 7852   3.217   4.213  18.660
   6123SM  H12F 7853   3.108   4.216  18.720
   6123SM  H12G 7854   3.262   4.133  18.852
   6123SM  C13F 7855   3.244   4.177  18.222
   6123SM  H13F 7856   3.229   4.067  18.183
   6123SM  H13G 7857   3.350   4.201  18.159
   6123SM  C14F 7858   3.158   4.252  17.916
   6123SM  H14F 7859   3.184   4.360  17.916
   6123SM  H14G 7860   3.051   4.242  18.000
   6123SM  C15F 7861   3.179   4.193  17.496
   6123SM  H15F 7862   3.171   4.082  17.523
   6123SM  H15G 7863   3.282   4.216  17.394
   6123SM  C16F 7864   3.077   4.239  17.184
   6123SM  H16F 7865   3.095   4.346  17.106
   6123SM  H16G 7866   2.975   4.232  17.316
   6123SM  C17F 7867   3.082   4.152  16.806
   6123SM  H17F 7868   3.073   4.045  16.905
   6123SM  H17G 7869   3.180   4.165  16.656
   6123SM  C18F 7870   2.969   4.182  16.509
   6123SM  H18F 7871   2.992   4.275  16.341
   6123SM  H18G 7872   2.877   4.203  16.689
   6123SM  C19F 7873   2.933   4.065  16.224
   6123SM  H19F 7874   2.823   4.069  16.170
   6123SM  H19G 7875   2.954   3.968  16.377
   6123SM  C20F 7876   3.000   4.067  15.807
   6123SM  H20F 7877   2.957   3.985  15.621
   6123SM  H20G 7878   3.109   4.049  15.840
   6123SM  C21F 7879   2.982   4.200  15.588
   6123SM  H21F 7880   3.055   4.271  15.729
   6123SM  H21G 7881   2.879   4.237  15.633
   6123SM  C22F 7882   3.014   4.198  15.138
   6123SM  H22F 7883   2.952   4.121  14.988
   6123SM  H22G 7884   3.119   4.167  15.111
   6123SM  C23F 7885   3.000   4.334  14.928
   6123SM  H23F 7886   3.051   4.332  14.628
   6123SM  H23G 7887   3.049   4.413  15.108
   6123SM  H23H 7888   2.894   4.361  14.883
   6223SM     N 7889   3.422   3.245  23.292
   6223SM   C15 7890   3.314   3.144  23.232
   6223SM  H15A 7891   3.218   3.184  23.325
   6223SM  H15B 7892   3.332   3.049  23.376
   6223SM  H15C 7893   3.305   3.128  22.908
   6223SM   C14 7894   3.443   3.267  23.733
   6223SM  H14A 7895   3.491   3.178  23.859
   6223SM  H14B 7896   3.350   3.284  23.892
   6223SM  H14C 7897   3.507   3.351  23.802
   6223SM   C13 7898   3.551   3.193  23.127
   6223SM  H13A 7899   3.632   3.263  23.172
   6223SM  H13B 7900   3.542   3.178  22.806
   6223SM  H13C 7901   3.577   3.098  23.262
   6223SM   C12 7902   3.385   3.374  23.070
   6223SM  H12A 7903   3.460   3.449  23.139
   6223SM  H12B 7904   3.288   3.413  23.166
   6223SM   C11 7905   3.375   3.367  22.602
   6223SM  H11A 7906   3.475   3.343  22.476
   6223SM  H11B 7907   3.350   3.469  22.488
   6223SM     P 7908   3.127   3.301  22.419
   6223SM   O13 7909   3.057   3.170  22.425
   6223SM   O14 7910   3.095   3.400  22.734
   6223SM   O11 7911   3.118   3.366  21.981
   6223SM   O12 7912   3.282   3.269  22.467
   6223SM   C1S 7913   3.191   3.305  21.663
   6223SM   H1S 7914   3.176   3.194  21.669
   6223SM   H1T 7915   3.301   3.323  21.693
   6223SM    NF 7916   3.206   3.469  21.072
   6223SM   HNF 7917   3.146   3.539  20.967
   6223SM   C2S 7918   3.142   3.348  21.234
   6223SM   H2S 7919   3.165   3.264  21.027
   6223SM   C3S 7920   2.987   3.367  21.243
   6223SM   H3S 7921   2.959   3.443  21.471
   6223SM    O3 7922   2.911   3.250  21.336
   6223SM   HO3 7923   2.967   3.194  21.498
   6223SM   C4S 7924   2.947   3.419  20.835
   6223SM   H4S 7925   2.958   3.527  20.805
   6223SM   C5S 7926   2.897   3.350  20.520
   6223SM   H5S 7927   2.874   3.243  20.559
   6223SM   C6S 7928   2.864   3.410  20.121
   6223SM   H6S 7929   2.883   3.520  20.109
   6223SM   H6T 7930   2.757   3.395  20.037
   6223SM   C7S 7931   2.958   3.339  19.815
   6223SM   H7S 7932   2.923   3.235  19.773
   6223SM   H7T 7933   3.063   3.337  19.929
   6223SM   C8S 7934   2.960   3.414  19.413
   6223SM   H8S 7935   3.021   3.504  19.473
   6223SM   H8T 7936   2.858   3.450  19.362
   6223SM   C9S 7937   3.017   3.340  19.044
   6223SM   H9S 7938   2.976   3.236  19.032
   6223SM   H9T 7939   3.127   3.333  19.080
   6223SM  C10S 7940   2.985   3.407  18.636
   6223SM  H10S 7941   3.000   3.517  18.657
   6223SM  H10T 7942   2.878   3.391  18.567
   6223SM  C11S 7943   3.066   3.356  18.273
   6223SM  H11S 7944   3.077   3.246  18.294
   6223SM  H11T 7945   3.168   3.401  18.288
   6223SM  C12S 7946   3.001   3.392  17.865
   6223SM  H12S 7947   2.951   3.491  17.898
   6223SM  H12T 7948   2.922   3.318  17.793
   6223SM  C13S 7949   3.102   3.403  17.514
   6223SM  H13S 7950   3.142   3.303  17.436
   6223SM  H13T 7951   3.187   3.462  17.640
   6223SM  C14S 7952   3.054   3.477  17.130
   6223SM  H14S 7953   3.143   3.523  16.983
   6223SM  H14T 7954   2.986   3.560  17.217
   6223SM  C15S 7955   2.990   3.389  16.806
   6223SM  H15S 7956   2.910   3.328  16.950
   6223SM  H15T 7957   3.067   3.319  16.689
   6223SM  C16S 7958   2.926   3.465  16.446
   6223SM  H16S 7959   2.839   3.520  16.566
   6223SM  H16T 7960   2.889   3.389  16.230
   6223SM  C17S 7961   3.009   3.569  16.212
   6223SM  H17S 7962   3.107   3.526  16.137
   6223SM  H17T 7963   3.028   3.658  16.404
   6223SM  C18S 7964   2.942   3.615  15.819
   6223SM  H18S 7965   2.916   3.528  15.627
   6223SM  H18T 7966   3.010   3.680  15.639
   6223SM  H18U 7967   2.849   3.672  15.879
   6223SM   C1F 7968   3.334   3.473  20.961
   6223SM    OF 7969   3.415   3.388  21.069
   6223SM   C2F 7970   3.370   3.588  20.688
   6223SM   H2F 7971   3.455   3.556  20.496
   6223SM   H2G 7972   3.404   3.673  20.877
   6223SM   C3F 7973   3.253   3.636  20.415
   6223SM   H3F 7974   3.182   3.697  20.598
   6223SM   H3G 7975   3.196   3.549  20.292
   6223SM   C4F 7976   3.299   3.720  20.052
   6223SM   H4F 7977   3.332   3.652  19.806
   6223SM   H4G 7978   3.390   3.775  20.145
   6223SM   C5F 7979   3.196   3.823  19.893
   6223SM   H5F 7980   3.246   3.900  19.707
   6223SM   H5G 7981   3.147   3.874  20.148
   6223SM   C6F 7982   3.087   3.769  19.608
   6223SM   H6F 7983   3.014   3.850  19.539
   6223SM   H6G 7984   3.030   3.693  19.782
   6223SM   C7F 7985   3.138   3.705  19.215
   6223SM   H7F 7986   3.050   3.655  19.080
   6223SM   H7G 7987   3.212   3.626  19.296
   6223SM   C8F 7988   3.197   3.790  18.870
   6223SM   H8F 7989   3.261   3.872  18.990
   6223SM   H8G 7990   3.112   3.837  18.705
   6223SM   C9F 7991   3.280   3.699  18.585
   6223SM   H9F 7992   3.237   3.596  18.609
   6223SM   H9G 7993   3.384   3.693  18.702
   6223SM  C10F 7994   3.281   3.732  18.132
   6223SM  H10F 7995   3.307   3.838  18.081
   6223SM  H10G 7996   3.178   3.717  18.012
   6223SM  C11F 7997   3.377   3.643  17.883
   6223SM  H11F 7998   3.360   3.536  17.958
   6223SM  H11G 7999   3.483   3.666  17.955
   6223SM  C12F 8000   3.354   3.659  17.430
   6223SM  H12F 8001   3.375   3.761  17.322
   6223SM  H12G 8002   3.246   3.645  17.367
   6223SM  C13F 8003   3.436   3.564  17.166
   6223SM  H13F 8004   3.406   3.589  16.857
   6223SM  H13G 8005   3.408   3.458  17.229
   6223SM  C14F 8006   3.588   3.578  17.217
   6223SM  H14F 8007   3.610   3.517  17.490
   6223SM  H14G 8008   3.616   3.682  17.283
   6223SM  C15F 8009   3.673   3.518  16.872
   6223SM  H15F 8010   3.629   3.421  16.776
   6223SM  H15G 8011   3.772   3.492  17.010
   6223SM  C16F 8012   3.708   3.604  16.503
   6223SM  H16F 8013   3.793   3.552  16.350
   6223SM  H16G 8014   3.747   3.704  16.596
   6223SM  C17F 8015   3.601   3.622  16.170
   6223SM  H17F 8016   3.653   3.636  15.879
   6223SM  H17G 8017   3.545   3.715  16.224
   6223SM  C18F 8018   3.502   3.505  16.122
   6223SM  H18F 8019   3.453   3.479  16.407
   6223SM  H18G 8020   3.560   3.414  16.038
   6223SM  C19F 8021   3.387   3.528  15.822
   6223SM  H19F 8022   3.429   3.558  15.528
   6223SM  H19G 8023   3.319   3.608  15.930
   6223SM  C20F 8024   3.303   3.399  15.780
   6223SM  H20F 8025   3.246   3.380  16.059
   6223SM  H20G 8026   3.377   3.317  15.756
   6223SM  C21F 8027   3.210   3.398  15.414
   6223SM  H21F 8028   3.271   3.417  15.144
   6223SM  H21G 8029   3.138   3.483  15.429
   6223SM  C22F 8030   3.133   3.266  15.351
   6223SM  H22F 8031   3.117   3.253  15.024
   6223SM  H22G 8032   3.032   3.273  15.492
   6223SM  C23F 8033   3.206   3.143  15.516
   6223SM  H23F 8034   3.315   3.150  15.453
   6223SM  H23G 8035   3.170   3.050  15.375
   6223SM  H23H 8036   3.193   3.136  15.846
   6323SM     N 8037   4.744   4.969  23.352
   6323SM   C15 8038   4.655   4.885  23.088
   6323SM  H15A 8039   4.618   4.795  23.220
   6323SM  H15B 8040   4.709   4.861  22.815
   6323SM  H15C 8041   4.570   4.946  22.980
   6323SM   C14 8042   4.662   5.008  23.706
   6323SM  H14A 8043   4.639   4.918  23.877
   6323SM  H14B 8044   4.569   5.053  23.604
   6323SM  H14C 8045   4.716   5.074  23.907
   6323SM   C13 8046   4.863   4.896  23.517
   6323SM  H13A 8047   4.834   4.801  23.646
   6323SM  H13B 8048   4.911   4.954  23.754
   6323SM  H13C 8049   4.939   4.880  23.289
   6323SM   C12 8050   4.785   5.090  23.103
   6323SM  H12A 8051   4.848   5.154  23.280
   6323SM  H12B 8052   4.693   5.144  23.028
   6323SM   C11 8053   4.853   5.065  22.692
   6323SM  H11A 8054   4.933   4.989  22.728
   6323SM  H11B 8055   4.903   5.159  22.590
   6323SM     P 8056   4.642   5.114  22.248
   6323SM   O13 8057   4.536   5.101  22.554
   6323SM   O14 8058   4.699   5.249  22.167
   6323SM   O11 8059   4.595   5.043  21.852
   6323SM   O12 8060   4.762   5.019  22.392
   6323SM   C1S 8061   4.673   5.054  21.501
   6323SM   H1S 8062   4.757   4.981  21.516
   6323SM   H1T 8063   4.716   5.156  21.459
   6323SM    NF 8064   4.668   5.041  20.790
   6323SM   HNF 8065   4.641   5.111  20.592
   6323SM   C2S 8066   4.585   5.023  21.138
   6323SM   H2S 8067   4.553   4.916  21.159
   6323SM   C3S 8068   4.456   5.110  21.123
   6323SM   H3S 8069   4.480   5.217  21.177
   6323SM    O3 8070   4.358   5.070  21.414
   6323SM   HO3 8071   4.413   5.037  21.630
   6323SM   C4S 8072   4.400   5.091  20.706
   6323SM   H4S 8073   4.346   4.997  20.661
   6323SM   C5S 8074   4.412   5.178  20.400
   6323SM   H5S 8075   4.456   5.278  20.454
   6323SM   C6S 8076   4.357   5.155  19.983
   6323SM   H6S 8077   4.293   5.241  19.893
   6323SM   H6T 8078   4.291   5.065  19.977
   6323SM   C7S 8079   4.467   5.137  19.662
   6323SM   H7S 8080   4.531   5.050  19.737
   6323SM   H7T 8081   4.531   5.228  19.653
   6323SM   C8S 8082   4.406   5.116  19.242
   6323SM   H8S 8083   4.351   5.209  19.158
   6323SM   H8T 8084   4.332   5.033  19.254
   6323SM   C9S 8085   4.508   5.085  18.912
   6323SM   H9S 8086   4.576   5.002  18.999
   6323SM   H9T 8087   4.571   5.176  18.876
   6323SM  C10S 8088   4.439   5.051  18.513
   6323SM  H10S 8089   4.357   5.123  18.462
   6323SM  H10T 8090   4.394   4.950  18.537
   6323SM  C11S 8091   4.531   5.058  18.147
   6323SM  H11S 8092   4.622   4.996  18.195
   6323SM  H11T 8093   4.563   5.163  18.114
   6323SM  C12S 8094   4.462   5.016  17.757
   6323SM  H12S 8095   4.367   5.073  17.718
   6323SM  H12T 8096   4.436   4.908  17.775
   6323SM  C13S 8097   4.551   5.041  17.391
   6323SM  H13S 8098   4.652   5.000  17.454
   6323SM  H13T 8099   4.562   5.151  17.343
   6323SM  C14S 8100   4.497   4.976  17.010
   6323SM  H14S 8101   4.400   5.023  16.923
   6323SM  H14T 8102   4.478   4.868  17.070
   6323SM  C15S 8103   4.597   4.989  16.668
   6323SM  H15S 8104   4.697   4.954  16.779
   6323SM  H15T 8105   4.609   5.097  16.596
   6323SM  C16S 8106   4.562   4.908  16.293
   6323SM  H16S 8107   4.560   4.800  16.365
   6323SM  H16T 8108   4.645   4.923  16.077
   6323SM  C17S 8109   4.432   4.946  16.077
   6323SM  H17S 8110   4.410   5.055  16.119
   6323SM  H17T 8111   4.349   4.889  16.212
   6323SM  C18S 8112   4.440   4.918  15.627
   6323SM  H18S 8113   4.482   5.005  15.459
   6323SM  H18T 8114   4.340   4.894  15.501
   6323SM  H18U 8115   4.508   4.832  15.570
   6323SM   C1F 8116   4.770   4.962  20.709
   6323SM    OF 8117   4.786   4.856  20.883
   6323SM   C2F 8118   4.862   5.007  20.385
   6323SM   H2F 8119   4.851   4.939  20.124
   6323SM   H2G 8120   4.964   4.998  20.502
   6323SM   C3F 8121   4.848   5.154  20.244
   6323SM   H3F 8122   4.864   5.224  20.499
   6323SM   H3G 8123   4.748   5.173  20.112
   6323SM   C4F 8124   4.955   5.179  19.920
   6323SM   H4F 8125   4.935   5.102  19.686
   6323SM   H4G 8126   5.056   5.160  20.046
   6323SM   C5F 8127   4.954   5.315  19.713
   6323SM   H5F 8128   5.032   5.380  19.854
   6323SM   H5G 8129   4.856   5.367  19.749
   6323SM   C6F 8130   4.984   5.299  19.260
   6323SM   H6F 8131   5.070   5.231  19.215
   6323SM   H6G 8132   5.014   5.398  19.143
   6323SM   C7F 8133   4.863   5.254  19.014
   6323SM   H7F 8134   4.775   5.314  19.119
   6323SM   H7G 8135   4.839   5.147  19.065
   6323SM   C8F 8136   4.878   5.281  18.561
   6323SM   H8F 8137   4.904   5.187  18.402
   6323SM   H8G 8138   4.962   5.353  18.516
   6323SM   C9F 8139   4.751   5.346  18.387
   6323SM   H9F 8140   4.747   5.451  18.498
   6323SM   H9G 8141   4.661   5.297  18.501
   6323SM  C10F 8142   4.744   5.347  17.931
   6323SM  H10F 8143   4.720   5.247  17.808
   6323SM  H10G 8144   4.846   5.368  17.814
   6323SM  C11F 8145   4.644   5.452  17.772
   6323SM  H11F 8146   4.652   5.545  17.955
   6323SM  H11G 8147   4.540   5.415  17.802
   6323SM  C12F 8148   4.680   5.486  17.340
   6323SM  H12F 8149   4.685   5.393  17.160
   6323SM  H12G 8150   4.779   5.530  17.358
   6323SM  C13F 8151   4.604   5.595  17.112
   6323SM  H13F 8152   4.605   5.691  17.280
   6323SM  H13G 8153   4.500   5.560  17.085
   6323SM  C14F 8154   4.676   5.617  16.704
   6323SM  H14F 8155   4.729   5.523  16.626
   6323SM  H14G 8156   4.756   5.694  16.737
   6323SM  C15F 8157   4.585   5.649  16.347
   6323SM  H15F 8158   4.643   5.635  16.065
   6323SM  H15G 8159   4.553   5.756  16.362
   6323SM  C16F 8160   4.460   5.559  16.335
   6323SM  H16F 8161   4.400   5.579  16.065
   6323SM  H16G 8162   4.395   5.591  16.584
   6323SM  C17F 8163   4.491   5.408  16.338
   6323SM  H17F 8164   4.406   5.347  16.440
   6323SM  H17G 8165   4.573   5.384  16.548
   6323SM  C18F 8166   4.522   5.358  15.915
   6323SM  H18F 8167   4.554   5.445  15.732
   6323SM  H18G 8168   4.430   5.316  15.777
   6323SM  C19F 8169   4.633   5.256  15.900
   6323SM  H19F 8170   4.598   5.159  16.014
   6323SM  H19G 8171   4.717   5.290  16.092
   6323SM  C20F 8172   4.685   5.236  15.474
   6323SM  H20F 8173   4.705   5.335  15.336
   6323SM  H20G 8174   4.612   5.183  15.279
   6323SM  C21F 8175   4.817   5.163  15.486
   6323SM  H21F 8176   4.884   5.208  15.717
   6323SM  H21G 8177   4.862   5.183  15.189
   6323SM  C22F 8178   4.812   5.011  15.537
   6323SM  H22F 8179   4.717   4.968  15.426
   6323SM  H22G 8180   4.823   4.982  15.858
   6323SM  C23F 8181   4.928   4.956  15.300
   6323SM  H23F 8182   4.893   4.923  15.003
   6323SM  H23G 8183   4.984   4.875  15.432
   6323SM  H23H 8184   5.005   5.034  15.273
   6423SM     N 8185   5.455   3.852  23.298
   6423SM   C15 8186   5.355   3.745  23.391
   6423SM  H15A 8187   5.282   3.743  23.142
   6423SM  H15B 8188   5.300   3.761  23.664
   6423SM  H15C 8189   5.402   3.648  23.394
   6423SM   C14 8190   5.385   3.983  23.241
   6423SM  H14A 8191   5.311   3.972  23.001
   6423SM  H14B 8192   5.458   4.057  23.154
   6423SM  H14C 8193   5.338   4.012  23.517
   6423SM   C13 8194   5.550   3.866  23.637
   6423SM  H13A 8195   5.498   3.907  23.901
   6423SM  H13B 8196   5.626   3.941  23.571
   6423SM  H13C 8197   5.595   3.773  23.733
   6423SM   C12 8198   5.529   3.810  22.920
   6423SM  H12A 8199   5.546   3.702  22.932
   6423SM  H12B 8200   5.626   3.859  22.905
   6423SM   C11 8201   5.455   3.837  22.521
   6423SM  H11A 8202   5.516   3.797  22.266
   6423SM  H11B 8203   5.447   3.947  22.470
   6423SM     P 8204   5.304   3.628  22.416
   6423SM   O13 8205   5.419   3.555  22.593
   6423SM   O14 8206   5.168   3.589  22.530
   6423SM   O11 8207   5.324   3.632  21.945
   6423SM   O12 8208   5.323   3.781  22.533
   6423SM   C1S 8209   5.269   3.744  21.732
   6423SM   H1S 8210   5.306   3.841  21.858
   6423SM   H1T 8211   5.158   3.744  21.756
   6423SM    NF 8212   5.283   3.876  21.117
   6423SM   HNF 8213   5.196   3.891  20.973
   6423SM   C2S 8214   5.310   3.744  21.282
   6423SM   H2S 8215   5.420   3.726  21.261
   6423SM   C3S 8216   5.236   3.630  21.057
   6423SM   H3S 8217   5.129   3.628  21.147
   6423SM    O3 8218   5.290   3.500  21.141
   6423SM   HO3 8219   5.314   3.498  21.423
   6423SM   C4S 8220   5.249   3.650  20.613
   6423SM   H4S 8221   5.331   3.591  20.475
   6423SM   C5S 8222   5.169   3.724  20.376
   6423SM   H5S 8223   5.085   3.781  20.505
   6423SM   C6S 8224   5.187   3.740  19.929
   6423SM   H6S 8225   5.139   3.835  19.827
   6423SM   H6T 8226   5.136   3.658  19.770
   6423SM   C7S 8227   5.329   3.732  19.764
   6423SM   H7S 8228   5.377   3.637  19.860
   6423SM   H7T 8229   5.392   3.815  19.881
   6423SM   C8S 8230   5.323   3.730  19.305
   6423SM   H8S 8231   5.270   3.637  19.215
   6423SM   H8T 8232   5.426   3.720  19.185
   6423SM   C9S 8233   5.248   3.848  19.107
   6423SM   H9S 8234   5.270   3.944  19.260
   6423SM   H9T 8235   5.139   3.829  19.146
   6423SM  C10S 8236   5.280   3.859  18.660
   6423SM  H10S 8237   5.287   3.756  18.534
   6423SM  H10T 8238   5.379   3.907  18.621
   6423SM  C11S 8239   5.176   3.935  18.408
   6423SM  H11S 8240   5.174   4.042  18.495
   6423SM  H11T 8241   5.076   3.895  18.474
   6423SM  C12S 8242   5.203   3.920  17.958
   6423SM  H12S 8243   5.199   3.813  17.871
   6423SM  H12T 8244   5.307   3.955  17.904
   6423SM  C13S 8245   5.106   4.000  17.691
   6423SM  H13S 8246   5.082   4.097  17.838
   6423SM  H13T 8247   5.011   3.942  17.667
   6423SM  C14S 8248   5.159   4.024  17.262
   6423SM  H14S 8249   5.198   3.928  17.148
   6423SM  H14T 8250   5.242   4.099  17.271
   6423SM  C15S 8251   5.049   4.060  16.962
   6423SM  H15S 8252   5.015   4.163  17.037
   6423SM  H15T 8253   4.966   3.988  17.004
   6423SM  C16S 8254   5.085   4.053  16.509
   6423SM  H16S 8255   5.195   4.062  16.464
   6423SM  H16T 8256   5.038   4.142  16.371
   6423SM  C17S 8257   5.032   3.929  16.284
   6423SM  H17S 8258   4.923   3.937  16.215
   6423SM  H17T 8259   5.042   3.840  16.482
   6423SM  C18S 8260   5.105   3.905  15.888
   6423SM  H18S 8261   5.074   3.980  15.663
   6423SM  H18T 8262   5.080   3.806  15.759
   6423SM  H18U 8263   5.215   3.913  15.930
   6423SM   C1F 8264   5.362   3.981  21.180
   6423SM    OF 8265   5.454   3.974  21.426
   6423SM   C2F 8266   5.332   4.105  20.946
   6423SM   H2F 8267   5.301   4.182  21.165
   6423SM   H2G 8268   5.246   4.087  20.742
   6423SM   C3F 8269   5.452   4.155  20.691
   6423SM   H3F 8270   5.545   4.157  20.874
   6423SM   H3G 8271   5.430   4.260  20.598
   6423SM   C4F 8272   5.479   4.074  20.307
   6423SM   H4F 8273   5.384   4.059  20.142
   6423SM   H4G 8274   5.518   3.974  20.388
   6423SM   C5F 8275   5.578   4.146  20.025
   6423SM   H5F 8276   5.654   4.197  20.214
   6423SM   H5G 8277   5.525   4.225  19.851
   6423SM   C6F 8278   5.653   4.054  19.728
   6423SM   H6F 8279   5.696   3.967  19.893
   6423SM   H6G 8280   5.737   4.111  19.593
   6423SM   C7F 8281   5.566   4.003  19.380
   6423SM   H7F 8282   5.531   4.089  19.197
   6423SM   H7G 8283   5.476   3.956  19.509
   6423SM   C8F 8284   5.637   3.900  19.110
   6423SM   H8F 8285   5.561   3.836  18.960
   6423SM   H8G 8286   5.700   3.833  19.296
   6423SM   C9F 8287   5.718   3.959  18.762
   6423SM   H9F 8288   5.779   3.878  18.624
   6423SM   H9G 8289   5.786   4.037  18.879
   6423SM  C10F 8290   5.627   4.020  18.435
   6423SM  H10F 8291   5.560   4.096  18.573
   6423SM  H10G 8292   5.562   3.940  18.306
   6423SM  C11F 8293   5.706   4.087  18.096
   6423SM  H11F 8294   5.788   4.146  18.231
   6423SM  H11G 8295   5.639   4.159  17.937
   6423SM  C12F 8296   5.762   3.987  17.793
   6423SM  H12F 8297   5.761   3.885  17.928
   6423SM  H12G 8298   5.868   4.012  17.724
   6423SM  C13F 8299   5.683   3.982  17.397
   6423SM  H13F 8300   5.735   3.913  17.187
   6423SM  H13G 8301   5.681   4.083  17.256
   6423SM  C14F 8302   5.540   3.933  17.469
   6423SM  H14F 8303   5.486   4.010  17.649
   6423SM  H14G 8304   5.543   3.839  17.646
   6423SM  C15F 8305   5.458   3.905  17.091
   6423SM  H15F 8306   5.429   4.000  16.938
   6423SM  H15G 8307   5.368   3.852  17.199
   6423SM  C16F 8308   5.522   3.810  16.788
   6423SM  H16F 8309   5.557   3.719  16.953
   6423SM  H16G 8310   5.609   3.860  16.650
   6423SM  C17F 8311   5.421   3.766  16.470
   6423SM  H17F 8312   5.374   3.856  16.335
   6423SM  H17G 8313   5.338   3.709  16.611
   6423SM  C18F 8314   5.487   3.679  16.146
   6423SM  H18F 8315   5.410   3.636  15.945
   6423SM  H18G 8316   5.540   3.595  16.296
   6423SM  C19F 8317   5.585   3.758  15.885
   6423SM  H19F 8318   5.634   3.688  15.669
   6423SM  H19G 8319   5.665   3.803  16.071
   6423SM  C20F 8320   5.514   3.868  15.648
   6423SM  H20F 8321   5.467   3.942  15.852
   6423SM  H20G 8322   5.434   3.823  15.462
   6423SM  C21F 8323   5.610   3.943  15.375
   6423SM  H21F 8324   5.643   3.873  15.135
   6423SM  H21G 8325   5.701   3.975  15.543
   6423SM  C22F 8326   5.542   4.064  15.189
   6423SM  H22F 8327   5.542   4.150  15.402
   6423SM  H22G 8328   5.436   4.038  15.126
   6423SM  C23F 8329   5.609   4.102  14.796
   6423SM  H23F 8330   5.699   4.164  14.853
   6423SM  H23G 8331   5.538   4.156  14.604
   6423SM  H23H 8332   5.642   4.011  14.634
   6523SM     N 8333   5.344   4.489  23.385
   6523SM   C15 8334   5.227   4.519  23.121
   6523SM  H15A 8335   5.131   4.495  23.247
   6523SM  H15B 8336   5.239   4.471  22.830
   6523SM  H15C 8337   5.230   4.625  23.043
   6523SM   C14 8338   5.322   4.562  23.772
   6523SM  H14A 8339   5.234   4.524  23.925
   6523SM  H14B 8340   5.309   4.668  23.718
   6523SM  H14C 8341   5.405   4.545  23.973
   6523SM   C13 8342   5.358   4.344  23.481
   6523SM  H13A 8343   5.446   4.327  23.673
   6523SM  H13B 8344   5.377   4.287  23.208
   6523SM  H13C 8345   5.271   4.306  23.637
   6523SM   C12 8346   5.470   4.543  23.181
   6523SM  H12A 8347   5.554   4.534  23.382
   6523SM  H12B 8348   5.458   4.650  23.127
   6523SM   C11 8349   5.507   4.485  22.764
   6523SM  H11A 8350   5.517   4.375  22.785
   6523SM  H11B 8351   5.609   4.524  22.680
   6523SM     P 8352   5.399   4.670  22.302
   6523SM   O13 8353   5.273   4.675  22.071
   6523SM   O14 8354   5.417   4.761  22.647
   6523SM   O11 8355   5.527   4.666  22.014
   6523SM   O12 8356   5.410   4.520  22.464
   6523SM   C1S 8357   5.580   4.783  21.819
   6523SM   H1S 8358   5.689   4.791  21.879
   6523SM   H1T 8359   5.536   4.878  21.939
   6523SM    NF 8360   5.417   4.774  21.282
   6523SM   HNF 8361   5.377   4.683  21.255
   6523SM   C2S 8362   5.557   4.780  21.354
   6523SM   H2S 8363   5.597   4.875  21.228
   6523SM   C3S 8364   5.631   4.663  21.144
   6523SM   H3S 8365   5.592   4.566  21.255
   6523SM    O3 8366   5.771   4.662  21.216
   6523SM   HO3 8367   5.785   4.727  21.426
   6523SM   C4S 8368   5.602   4.667  20.694
   6523SM   H4S 8369   5.520   4.601  20.598
   6523SM   C5S 8370   5.665   4.740  20.412
   6523SM   H5S 8371   5.748   4.805  20.505
   6523SM   C6S 8372   5.634   4.744  19.965
   6523SM   H6S 8373   5.729   4.732  19.791
   6523SM   H6T 8374   5.593   4.844  19.893
   6523SM   C7S 8375   5.532   4.649  19.767
   6523SM   H7S 8376   5.436   4.657  19.935
   6523SM   H7T 8377   5.567   4.544  19.785
   6523SM   C8S 8378   5.504   4.687  19.326
   6523SM   H8S 8379   5.486   4.796  19.296
   6523SM   H8T 8380   5.412   4.633  19.233
   6523SM   C9S 8381   5.611   4.643  19.026
   6523SM   H9S 8382   5.631   4.534  19.077
   6523SM   H9T 8383   5.705   4.698  19.086
   6523SM  C10S 8384   5.568   4.659  18.585
   6523SM  H10S 8385   5.568   4.768  18.504
   6523SM  H10T 8386   5.466   4.619  18.531
   6523SM  C11S 8387   5.665   4.582  18.315
   6523SM  H11S 8388   5.659   4.474  18.375
   6523SM  H11T 8389   5.762   4.615  18.435
   6523SM  C12S 8390   5.650   4.610  17.862
   6523SM  H12S 8391   5.684   4.713  17.802
   6523SM  H12T 8392   5.542   4.604  17.787
   6523SM  C13S 8393   5.729   4.513  17.595
   6523SM  H13S 8394   5.692   4.410  17.652
   6523SM  H13T 8395   5.836   4.516  17.688
   6523SM  C14S 8396   5.722   4.541  17.139
   6523SM  H14S 8397   5.795   4.474  16.989
   6523SM  H14T 8398   5.754   4.646  17.076
   6523SM  C15S 8399   5.583   4.517  16.950
   6523SM  H15S 8400   5.531   4.614  16.947
   6523SM  H15T 8401   5.525   4.447  17.142
   6523SM  C16S 8402   5.588   4.459  16.518
   6523SM  H16S 8403   5.495   4.402  16.449
   6523SM  H16T 8404   5.673   4.388  16.494
   6523SM  C17S 8405   5.606   4.570  16.206
   6523SM  H17S 8406   5.699   4.620  16.302
   6523SM  H17T 8407   5.525   4.645  16.233
   6523SM  C18S 8408   5.621   4.525  15.765
   6523SM  H18S 8409   5.723   4.486  15.714
   6523SM  H18T 8410   5.608   4.615  15.570
   6523SM  H18U 8411   5.549   4.448  15.672
   6523SM   C1F 8412   5.335   4.873  21.360
   6523SM    OF 8413   5.375   4.984  21.465
   6523SM   C2F 8414   5.191   4.838  21.327
   6523SM   H2F 8415   5.134   4.896  21.555
   6523SM   H2G 8416   5.179   4.729  21.396
   6523SM   C3F 8417   5.139   4.868  20.904
   6523SM   H3F 8418   5.142   4.978  20.847
   6523SM   H3G 8419   5.032   4.836  20.916
   6523SM   C4F 8420   5.203   4.794  20.544
   6523SM   H4F 8421   5.215   4.686  20.613
   6523SM   H4G 8422   5.304   4.836  20.481
   6523SM   C5F 8423   5.111   4.810  20.175
   6523SM   H5F 8424   5.108   4.917  20.091
   6523SM   H5G 8425   5.009   4.781  20.280
   6523SM   C6F 8426   5.141   4.725  19.806
   6523SM   H6F 8427   5.047   4.679  19.695
   6523SM   H6G 8428   5.209   4.642  19.896
   6523SM   C7F 8429   5.203   4.804  19.458
   6523SM   H7F 8430   5.240   4.731  19.233
   6523SM   H7G 8431   5.290   4.859  19.581
   6523SM   C8F 8432   5.111   4.902  19.230
   6523SM   H8F 8433   5.171   4.948  18.981
   6523SM   H8G 8434   5.079   4.984  19.431
   6523SM   C9F 8435   4.994   4.839  19.005
   6523SM   H9F 8436   4.942   4.920  18.834
   6523SM   H9G 8437   4.920   4.796  19.218
   6523SM  C10F 8438   5.040   4.731  18.705
   6523SM  H10F 8439   5.077   4.642  18.873
   6523SM  H10G 8440   5.125   4.771  18.528
   6523SM  C11F 8441   4.929   4.687  18.420
   6523SM  H11F 8442   4.899   4.773  18.228
   6523SM  H11G 8443   4.840   4.659  18.600
   6523SM  C12F 8444   4.968   4.567  18.156
   6523SM  H12F 8445   4.883   4.542  17.955
   6523SM  H12G 8446   4.987   4.479  18.354
   6523SM  C13F 8447   5.092   4.590  17.895
   6523SM  H13F 8448   5.110   4.497  17.715
   6523SM  H13G 8449   5.182   4.605  18.084
   6523SM  C14F 8450   5.076   4.709  17.610
   6523SM  H14F 8451   5.052   4.801  17.787
   6523SM  H14G 8452   4.992   4.690  17.403
   6523SM  C15F 8453   5.203   4.739  17.373
   6523SM  H15F 8454   5.287   4.759  17.586
   6523SM  H15G 8455   5.187   4.831  17.190
   6523SM  C16F 8456   5.245   4.627  17.091
   6523SM  H16F 8457   5.266   4.533  17.256
   6523SM  H16G 8458   5.340   4.660  16.944
   6523SM  C17F 8459   5.145   4.602  16.752
   6523SM  H17F 8460   5.131   4.699  16.593
   6523SM  H17G 8461   5.046   4.568  16.866
   6523SM  C18F 8462   5.202   4.499  16.461
   6523SM  H18F 8463   5.176   4.396  16.551
   6523SM  H18G 8464   5.313   4.508  16.482
   6523SM  C19F 8465   5.166   4.527  16.026
   6523SM  H19F 8466   5.171   4.637  15.975
   6523SM  H19G 8467   5.063   4.492  15.969
   6523SM  C20F 8468   5.267   4.463  15.744
   6523SM  H20F 8469   5.365   4.498  15.855
   6523SM  H20G 8470   5.255   4.501  15.435
   6523SM  C21F 8471   5.261   4.309  15.744
   6523SM  H21F 8472   5.273   4.269  16.050
   6523SM  H21G 8473   5.347   4.272  15.567
   6523SM  C22F 8474   5.132   4.255  15.555
   6523SM  H22F 8475   5.065   4.338  15.468
   6523SM  H22G 8476   5.077   4.195  15.780
   6523SM  C23F 8477   5.158   4.168  15.186
   6523SM  H23F 8478   5.213   4.226  14.952
   6523SM  H23G 8479   5.063   4.131  15.057
   6523SM  H23H 8480   5.221   4.081  15.270
   6623SM     N 8481   4.131   1.979  23.304
   6623SM   C15 8482   4.216   2.070  23.058
   6623SM  H15A 8483   4.295   2.016  22.899
   6623SM  H15B 8484   4.267   2.138  23.253
   6623SM  H15C 8485   4.153   2.121  22.842
   6623SM   C14 8486   4.215   1.918  23.628
   6623SM  H14A 8487   4.299   1.865  23.499
   6623SM  H14B 8488   4.154   1.846  23.793
   6623SM  H14C 8489   4.250   1.992  23.841
   6623SM   C13 8490   4.022   2.058  23.487
   6623SM  H13A 8491   3.951   2.089  23.256
   6623SM  H13B 8492   4.061   2.145  23.643
   6623SM  H13C 8493   3.968   1.999  23.706
   6623SM   C12 8494   4.076   1.869  23.037
   6623SM  H12A 8495   3.996   1.816  23.193
   6623SM  H12B 8496   4.153   1.794  22.989
   6623SM   C11 8497   4.020   1.909  22.626
   6623SM  H11A 8498   4.015   1.817  22.443
   6623SM  H11B 8499   4.094   1.975  22.470
   6623SM     P 8500   3.842   2.091  22.404
   6623SM   O13 8501   3.721   2.051  22.173
   6623SM   O14 8502   3.829   2.205  22.686
   6623SM   O11 8503   3.965   2.119  22.110
   6623SM   O12 8504   3.890   1.966  22.665
   6623SM   C1S 8505   3.988   2.041  21.756
   6623SM   H1S 8506   3.901   1.979  21.672
   6623SM   H1T 8507   4.073   1.972  21.810
   6623SM    NF 8508   3.908   2.136  21.129
   6623SM   HNF 8509   3.910   2.086  20.871
   6623SM   C2S 8510   4.021   2.133  21.393
   6623SM   H2S 8511   4.040   2.236  21.507
   6623SM   C3S 8512   4.148   2.086  21.168
   6623SM   H3S 8513   4.138   1.979  21.084
   6623SM    O3 8514   4.264   2.094  21.411
   6623SM   HO3 8515   4.231   2.097  21.684
   6623SM   C4S 8516   4.158   2.168  20.784
   6623SM   H4S 8517   4.152   2.276  20.838
   6623SM   C5S 8518   4.161   2.121  20.406
   6623SM   H5S 8519   4.164   2.013  20.343
   6623SM   C6S 8520   4.169   2.209  20.037
   6623SM   H6S 8521   4.268   2.258  20.019
   6623SM   H6T 8522   4.090   2.287  20.052
   6623SM   C7S 8523   4.152   2.128  19.647
   6623SM   H7S 8524   4.053   2.080  19.647
   6623SM   H7T 8525   4.221   2.042  19.632
   6623SM   C8S 8526   4.168   2.212  19.260
   6623SM   H8S 8527   4.269   2.256  19.239
   6623SM   H8T 8528   4.091   2.292  19.275
   6623SM   C9S 8529   4.135   2.132  18.882
   6623SM   H9S 8530   4.062   2.056  18.972
   6623SM   H9T 8531   4.222   2.076  18.765
   6623SM  C10S 8532   4.079   2.216  18.534
   6623SM  H10S 8533   4.163   2.269  18.384
   6623SM  H10T 8534   4.011   2.295  18.651
   6623SM  C11S 8535   4.002   2.130  18.228
   6623SM  H11S 8536   3.901   2.106  18.348
   6623SM  H11T 8537   4.056   2.035  18.180
   6623SM  C12S 8538   3.986   2.202  17.829
   6623SM  H12S 8539   4.089   2.222  17.712
   6623SM  H12T 8540   3.935   2.299  17.874
   6623SM  C13S 8541   3.911   2.122  17.505
   6623SM  H13S 8542   3.806   2.102  17.592
   6623SM  H13T 8543   3.963   2.026  17.457
   6623SM  C14S 8544   3.915   2.202  17.115
   6623SM  H14S 8545   4.017   2.248  17.112
   6623SM  H14T 8546   3.842   2.286  17.124
   6623SM  C15S 8547   3.905   2.124  16.722
   6623SM  H15S 8548   3.799   2.122  16.614
   6623SM  H15T 8549   3.937   2.018  16.767
   6623SM  C16S 8550   3.996   2.188  16.407
   6623SM  H16S 8551   3.987   2.138  16.110
   6623SM  H16T 8552   4.102   2.175  16.509
   6623SM  C17S 8553   3.970   2.337  16.362
   6623SM  H17S 8554   3.935   2.385  16.644
   6623SM  H17T 8555   3.889   2.352  16.140
   6623SM  C18S 8556   4.093   2.414  16.230
   6623SM  H18S 8557   4.065   2.521  16.200
   6623SM  H18T 8558   4.126   2.377  15.933
   6623SM  H18U 8559   4.177   2.406  16.449
   6623SM   C1F 8560   3.795   2.199  21.225
   6623SM    OF 8561   3.790   2.288  21.480
   6623SM   C2F 8562   3.678   2.156  20.988
   6623SM   H2F 8563   3.597   2.124  21.198
   6623SM   H2G 8564   3.703   2.069  20.796
   6623SM   C3F 8565   3.629   2.273  20.730
   6623SM   H3F 8566   3.576   2.340  20.943
   6623SM   H3G 8567   3.556   2.231  20.514
   6623SM   C4F 8568   3.732   2.358  20.502
   6623SM   H4F 8569   3.800   2.409  20.718
   6623SM   H4G 8570   3.677   2.439  20.340
   6623SM   C5F 8571   3.814   2.279  20.196
   6623SM   H5F 8572   3.873   2.202  20.358
   6623SM   H5G 8573   3.888   2.347  20.055
   6623SM   C6F 8574   3.731   2.207  19.869
   6623SM   H6F 8575   3.652   2.271  19.743
   6623SM   H6G 8576   3.680   2.122  20.022
   6623SM   C7F 8577   3.824   2.151  19.545
   6623SM   H7F 8578   3.859   2.053  19.659
   6623SM   H7G 8579   3.910   2.222  19.536
   6623SM   C8F 8580   3.785   2.130  19.101
   6623SM   H8F 8581   3.863   2.185  18.930
   6623SM   H8G 8582   3.692   2.178  19.002
   6623SM   C9F 8583   3.800   1.981  18.972
   6623SM   H9F 8584   3.788   1.915  19.236
   6623SM   H9G 8585   3.902   1.962  18.858
   6623SM  C10F 8586   3.704   1.938  18.642
   6623SM  H10F 8587   3.688   2.025  18.441
   6623SM  H10G 8588   3.608   1.910  18.780
   6623SM  C11F 8589   3.746   1.818  18.393
   6623SM  H11F 8590   3.657   1.752  18.363
   6623SM  H11G 8591   3.827   1.758  18.534
   6623SM  C12F 8592   3.781   1.859  17.967
   6623SM  H12F 8593   3.886   1.895  17.949
   6623SM  H12G 8594   3.714   1.942  17.871
   6623SM  C13F 8595   3.756   1.743  17.682
   6623SM  H13F 8596   3.756   1.783  17.373
   6623SM  H13G 8597   3.655   1.701  17.733
   6623SM  C14F 8598   3.859   1.631  17.730
   6623SM  H14F 8599   3.818   1.548  17.913
   6623SM  H14G 8600   3.948   1.667  17.898
   6623SM  C15F 8601   3.899   1.582  17.316
   6623SM  H15F 8602   3.806   1.554  17.154
   6623SM  H15G 8603   3.963   1.491  17.346
   6623SM  C16F 8604   3.974   1.686  17.061
   6623SM  H16F 8605   3.904   1.762  16.938
   6623SM  H16G 8606   4.016   1.633  16.800
   6623SM  C17F 8607   4.082   1.757  17.310
   6623SM  H17F 8608   4.136   1.681  17.493
   6623SM  H17G 8609   4.032   1.827  17.523
   6623SM  C18F 8610   4.183   1.835  17.064
   6623SM  H18F 8611   4.250   1.893  17.268
   6623SM  H18G 8612   4.126   1.910  16.887
   6623SM  C19F 8613   4.266   1.742  16.797
   6623SM  H19F 8614   4.200   1.675  16.620
   6623SM  H19G 8615   4.328   1.675  16.995
   6623SM  C20F 8616   4.355   1.814  16.494
   6623SM  H20F 8617   4.394   1.739  16.275
   6623SM  H20G 8618   4.443   1.856  16.653
   6623SM  C21F 8619   4.284   1.928  16.269
   6623SM  H21F 8620   4.349   1.955  16.014
   6623SM  H21G 8621   4.277   2.016  16.473
   6623SM  C22F 8622   4.147   1.903  16.074
   6623SM  H22F 8623   4.125   1.994  15.891
   6623SM  H22G 8624   4.066   1.896  16.302
   6623SM  C23F 8625   4.141   1.781  15.804
   6623SM  H23F 8626   4.066   1.795  15.561
   6623SM  H23G 8627   4.116   1.691  15.981
   6623SM  H23H 8628   4.240   1.763  15.669
   6723SM     N 8629   3.342   5.985  23.274
   6723SM   C15 8630   3.358   6.132  23.250
   6723SM  H15A 8631   3.456   6.159  23.361
   6723SM  H15B 8632   3.284   6.180  23.442
   6723SM  H15C 8633   3.346   6.165  22.941
   6723SM   C14 8634   3.451   5.923  23.025
   6723SM  H14A 8635   3.434   5.947  22.707
   6723SM  H14B 8636   3.443   5.815  23.043
   6723SM  H14C 8637   3.549   5.957  23.109
   6723SM   C13 8638   3.351   5.945  23.706
   6723SM  H13A 8639   3.443   5.977  23.850
   6723SM  H13B 8640   3.345   5.837  23.727
   6723SM  H13C 8641   3.268   5.986  23.874
   6723SM   C12 8642   3.208   5.939  23.109
   6723SM  H12A 8643   3.127   5.977  23.292
   6723SM  H12B 8644   3.203   5.830  23.130
   6723SM   C11 8645   3.174   5.969  22.665
   6723SM  H11A 8646   3.184   6.077  22.608
   6723SM  H11B 8647   3.066   5.945  22.614
   6723SM     P 8648   3.219   5.738  22.347
   6723SM   O13 8649   3.340   5.667  22.203
   6723SM   O14 8650   3.162   5.690  22.731
   6723SM   O11 8651   3.112   5.740  21.996
   6723SM   O12 8652   3.257   5.894  22.398
   6723SM   C1S 8653   3.082   5.855  21.759
   6723SM   H1S 8654   3.121   5.949  21.888
   6723SM   H1T 8655   2.972   5.867  21.750
   6723SM    NF 8656   3.144   5.986  21.165
   6723SM   HNF 8657   3.087   6.016  20.940
   6723SM   C2S 8658   3.132   5.848  21.315
   6723SM   H2S 8659   3.232   5.799  21.300
   6723SM   C3S 8660   3.034   5.761  21.072
   6723SM   H3S 8661   2.928   5.789  21.138
   6723SM    O3 8662   3.053   5.624  21.174
   6723SM   HO3 8663   3.103   5.629  21.420
   6723SM   C4S 8664   3.057   5.769  20.631
   6723SM   H4S 8665   3.146   5.714  20.535
   6723SM   C5S 8666   2.980   5.831  20.355
   6723SM   H5S 8667   2.888   5.882  20.448
   6723SM   C6S 8668   3.009   5.835  19.911
   6723SM   H6S 8669   3.038   5.939  19.824
   6723SM   H6T 8670   2.918   5.811  19.734
   6723SM   C7S 8671   3.118   5.736  19.770
   6723SM   H7S 8672   3.082   5.632  19.806
   6723SM   H7T 8673   3.209   5.750  19.956
   6723SM   C8S 8674   3.162   5.761  19.338
   6723SM   H8S 8675   3.257   5.706  19.275
   6723SM   H8T 8676   3.185   5.869  19.320
   6723SM   C9S 8677   3.060   5.728  19.008
   6723SM   H9S 8678   2.968   5.786  19.071
   6723SM   H9T 8679   3.033   5.620  19.017
   6723SM  C10S 8680   3.112   5.768  18.591
   6723SM  H10S 8681   3.198   5.838  18.624
   6723SM  H10T 8682   3.029   5.824  18.444
   6723SM  C11S 8683   3.153   5.654  18.309
   6723SM  H11S 8684   3.080   5.571  18.342
   6723SM  H11T 8685   3.253   5.614  18.393
   6723SM  C12S 8686   3.155   5.698  17.865
   6723SM  H12S 8687   3.248   5.756  17.805
   6723SM  H12T 8688   3.070   5.767  17.811
   6723SM  C13S 8689   3.142   5.580  17.571
   6723SM  H13S 8690   3.044   5.582  17.421
   6723SM  H13T 8691   3.143   5.485  17.742
   6723SM  C14S 8692   3.249   5.573  17.244
   6723SM  H14S 8693   3.286   5.468  17.229
   6723SM  H14T 8694   3.336   5.637  17.325
   6723SM  C15S 8695   3.201   5.606  16.821
   6723SM  H15S 8696   3.171   5.713  16.797
   6723SM  H15T 8697   3.111   5.544  16.749
   6723SM  C16S 8698   3.312   5.572  16.524
   6723SM  H16S 8699   3.345   5.467  16.569
   6723SM  H16T 8700   3.399   5.638  16.584
   6723SM  C17S 8701   3.268   5.587  16.089
   6723SM  H17S 8702   3.232   5.691  16.047
   6723SM  H17T 8703   3.186   5.513  16.032
   6723SM  C18S 8704   3.375   5.561  15.780
   6723SM  H18S 8705   3.456   5.635  15.819
   6723SM  H18T 8706   3.336   5.570  15.468
   6723SM  H18U 8707   3.416   5.458  15.822
   6723SM   C1F 8708   3.249   6.056  21.303
   6723SM    OF 8709   3.343   5.999  21.465
   6723SM   C2F 8710   3.250   6.205  21.258
   6723SM   H2F 8711   3.322   6.247  21.480
   6723SM   H2G 8712   3.150   6.248  21.318
   6723SM   C3F 8713   3.303   6.241  20.844
   6723SM   H3F 8714   3.399   6.187  20.790
   6723SM   H3G 8715   3.330   6.349  20.826
   6723SM   C4F 8716   3.206   6.203  20.514
   6723SM   H4F 8717   3.104   6.245  20.559
   6723SM   H4G 8718   3.195   6.092  20.505
   6723SM   C5F 8719   3.265   6.243  20.118
   6723SM   H5F 8720   3.376   6.232  20.136
   6723SM   H5G 8721   3.243   6.349  20.043
   6723SM   C6F 8722   3.220   6.150  19.785
   6723SM   H6F 8723   3.110   6.163  19.740
   6723SM   H6G 8724   3.238   6.043  19.866
   6723SM   C7F 8725   3.299   6.185  19.416
   6723SM   H7F 8726   3.407   6.164  19.464
   6723SM   H7G 8727   3.287   6.295  19.377
   6723SM   C8F 8728   3.252   6.114  19.041
   6723SM   H8F 8729   3.285   6.008  19.047
   6723SM   H8G 8730   3.305   6.159  18.780
   6723SM   C9F 8731   3.100   6.123  18.969
   6723SM   H9F 8732   3.061   6.221  19.077
   6723SM   H9G 8733   3.047   6.043  19.140
   6723SM  C10F 8734   3.078   6.112  18.516
   6723SM  H10F 8735   3.131   6.021  18.414
   6723SM  H10G 8736   3.129   6.198  18.375
   6723SM  C11F 8737   2.936   6.106  18.351
   6723SM  H11F 8738   2.886   6.203  18.402
   6723SM  H11G 8739   2.877   6.028  18.510
   6723SM  C12F 8740   2.942   6.073  17.898
   6723SM  H12F 8741   2.841   6.050  17.784
   6723SM  H12G 8742   3.003   5.980  17.859
   6723SM  C13F 8743   3.005   6.185  17.643
   6723SM  H13F 8744   3.111   6.195  17.724
   6723SM  H13G 8745   2.952   6.279  17.727
   6723SM  C14F 8746   2.990   6.167  17.181
   6723SM  H14F 8747   2.994   6.267  17.037
   6723SM  H14G 8748   2.887   6.128  17.136
   6723SM  C15F 8749   3.087   6.071  16.968
   6723SM  H15F 8750   3.025   5.995  16.812
   6723SM  H15G 8751   3.151   6.018  17.190
   6723SM  C16F 8752   3.177   6.128  16.629
   6723SM  H16F 8753   3.260   6.186  16.755
   6723SM  H16G 8754   3.120   6.198  16.434
   6723SM  C17F 8755   3.240   6.018  16.365
   6723SM  H17F 8756   3.163   5.945  16.260
   6723SM  H17G 8757   3.310   5.961  16.563
   6723SM  C18F 8758   3.321   6.074  16.008
   6723SM  H18F 8759   3.377   5.989  15.870
   6723SM  H18G 8760   3.396   6.146  16.128
   6723SM  C19F 8761   3.241   6.140  15.663
   6723SM  H19F 8762   3.305   6.217  15.513
   6723SM  H19G 8763   3.156   6.198  15.783
   6723SM  C20F 8764   3.206   6.030  15.357
   6723SM  H20F 8765   3.190   5.938  15.540
   6723SM  H20G 8766   3.297   6.012  15.174
   6723SM  C21F 8767   3.082   6.030  15.078
   6723SM  H21F 8768   3.000   5.983  15.255
   6723SM  H21G 8769   3.106   5.961  14.826
   6723SM  C22F 8770   3.016   6.156  14.901
   6723SM  H22F 8771   3.036   6.157  14.571
   6723SM  H22G 8772   3.056   6.250  15.030
   6723SM  C23F 8773   2.863   6.145  14.952
   6723SM  H23F 8774   2.807   6.222  14.787
   6723SM  H23G 8775   2.833   6.155  15.270
   6723SM  H23H 8776   2.828   6.045  14.853
   6823SM     N 8777   3.398   1.427  23.091
   6823SM   C15 8778   3.329   1.455  23.484
   6823SM  H15A 8779   3.291   1.364  23.622
   6823SM  H15B 8780   3.245   1.523  23.448
   6823SM  H15C 8781   3.396   1.500  23.703
   6823SM   C14 8782   3.502   1.322  23.154
   6823SM  H14A 8783   3.558   1.304  22.878
   6823SM  H14B 8784   3.456   1.228  23.244
   6823SM  H14C 8785   3.570   1.350  23.391
   6823SM   C13 8786   3.295   1.374  22.800
   6823SM  H13A 8787   3.231   1.457  22.707
   6823SM  H13B 8788   3.236   1.295  22.929
   6823SM  H13C 8789   3.339   1.335  22.524
   6823SM   C12 8790   3.465   1.549  22.908
   6823SM  H12A 8791   3.503   1.525  22.608
   6823SM  H12B 8792   3.553   1.577  23.076
   6823SM   C11 8793   3.378   1.675  22.857
   6823SM  H11A 8794   3.444   1.759  22.764
   6823SM  H11B 8795   3.333   1.699  23.154
   6823SM     P 8796   3.168   1.764  22.518
   6823SM   O13 8797   3.088   1.771  22.887
   6823SM   O14 8798   3.227   1.890  22.380
   6823SM   O11 8799   3.074   1.709  22.179
   6823SM   O12 8800   3.279   1.650  22.557
   6823SM   C1S 8801   3.110   1.605  21.909
   6823SM   H1S 8802   3.067   1.509  22.020
   6823SM   H1T 8803   3.220   1.591  21.879
   6823SM    NF 8804   3.064   1.525  21.222
   6823SM   HNF 8805   3.111   1.545  20.964
   6823SM   C2S 8806   3.051   1.637  21.492
   6823SM   H2S 8807   2.942   1.659  21.528
   6823SM   C3S 8808   3.118   1.764  21.312
   6823SM   H3S 8809   3.228   1.750  21.312
   6823SM    O3 8810   3.093   1.884  21.525
   6823SM   HO3 8811   3.076   1.857  21.798
   6823SM   C4S 8812   3.071   1.773  20.880
   6823SM   H4S 8813   3.145   1.733  20.670
   6823SM   C5S 8814   2.956   1.823  20.739
   6823SM   H5S 8815   2.888   1.873  20.955
   6823SM   C6S 8816   2.913   1.826  20.304
   6823SM   H6S 8817   2.900   1.932  20.208
   6823SM   H6T 8818   2.812   1.779  20.295
   6823SM   C7S 8819   2.997   1.754  19.977
   6823SM   H7S 8820   2.996   1.644  20.034
   6823SM   H7T 8821   3.103   1.787  19.992
   6823SM   C8S 8822   2.943   1.781  19.551
   6823SM   H8S 8823   2.948   1.891  19.497
   6823SM   H8T 8824   2.835   1.751  19.545
   6823SM   C9S 8825   3.014   1.711  19.197
   6823SM   H9S 8826   3.002   1.602  19.236
   6823SM   H9T 8827   3.123   1.732  19.209
   6823SM  C10S 8828   2.960   1.756  18.777
   6823SM  H10S 8829   3.009   1.850  18.684
   6823SM  H10T 8830   2.852   1.773  18.825
   6823SM  C11S 8831   2.960   1.650  18.441
   6823SM  H11S 8832   2.870   1.591  18.501
   6823SM  H11T 8833   3.046   1.581  18.474
   6823SM  C12S 8834   2.940   1.687  17.994
   6823SM  H12S 8835   3.002   1.774  17.910
   6823SM  H12T 8836   2.834   1.714  17.949
   6823SM  C13S 8837   2.969   1.563  17.730
   6823SM  H13S 8838   2.922   1.474  17.868
   6823SM  H13T 8839   3.078   1.547  17.727
   6823SM  C14S 8840   2.925   1.572  17.289
   6823SM  H14S 8841   2.963   1.669  17.169
   6823SM  H14T 8842   2.815   1.574  17.265
   6823SM  C15S 8843   2.982   1.458  17.019
   6823SM  H15S 8844   2.920   1.367  17.058
   6823SM  H15T 8845   3.086   1.433  17.112
   6823SM  C16S 8846   2.983   1.503  16.578
   6823SM  H16S 8847   3.059   1.583  16.542
   6823SM  H16T 8848   2.883   1.546  16.515
   6823SM  C17S 8849   3.012   1.400  16.245
   6823SM  H17S 8850   2.942   1.314  16.272
   6823SM  H17T 8851   3.116   1.362  16.281
   6823SM  C18S 8852   2.997   1.463  15.828
   6823SM  H18S 8853   3.031   1.395  15.585
   6823SM  H18T 8854   3.056   1.557  15.807
   6823SM  H18U 8855   2.891   1.490  15.768
   6823SM   C1F 8856   3.001   1.410  21.264
   6823SM    OF 8857   2.930   1.388  21.555
   6823SM   C2F 8858   3.012   1.317  20.916
   6823SM   H2F 8859   3.013   1.376  20.631
   6823SM   H2G 8860   2.920   1.254  20.913
   6823SM   C3F 8861   3.134   1.222  20.928
   6823SM   H3F 8862   3.142   1.176  20.625
   6823SM   H3G 8863   3.109   1.139  21.141
   6823SM   C4F 8864   3.271   1.280  21.045
   6823SM   H4F 8865   3.343   1.195  21.018
   6823SM   H4G 8866   3.270   1.311  21.366
   6823SM   C5F 8867   3.323   1.394  20.781
   6823SM   H5F 8868   3.280   1.491  20.874
   6823SM   H5G 8869   3.291   1.375  20.463
   6823SM   C6F 8870   3.476   1.409  20.796
   6823SM   H6F 8871   3.522   1.312  20.718
   6823SM   H6G 8872   3.506   1.434  21.111
   6823SM   C7F 8873   3.529   1.517  20.511
   6823SM   H7F 8874   3.635   1.534  20.589
   6823SM   H7G 8875   3.476   1.613  20.559
   6823SM   C8F 8876   3.519   1.477  20.064
   6823SM   H8F 8877   3.413   1.492  19.971
   6823SM   H8G 8878   3.543   1.369  20.028
   6823SM   C9F 8879   3.611   1.557  19.785
   6823SM   H9F 8880   3.716   1.525  19.833
   6823SM   H9G 8881   3.605   1.665  19.860
   6823SM  C10F 8882   3.587   1.535  19.338
   6823SM  H10F 8883   3.609   1.429  19.260
   6823SM  H10G 8884   3.658   1.600  19.167
   6823SM  C11F 8885   3.446   1.561  19.191
   6823SM  H11F 8886   3.410   1.659  19.302
   6823SM  H11G 8887   3.376   1.483  19.302
   6823SM  C12F 8888   3.444   1.562  18.732
   6823SM  H12F 8889   3.474   1.462  18.609
   6823SM  H12G 8890   3.518   1.636  18.624
   6823SM  C13F 8891   3.306   1.601  18.591
   6823SM  H13F 8892   3.281   1.700  18.723
   6823SM  H13G 8893   3.232   1.530  18.723
   6823SM  C14F 8894   3.284   1.611  18.138
   6823SM  H14F 8895   3.191   1.670  18.120
   6823SM  H14G 8896   3.266   1.511  18.006
   6823SM  C15F 8897   3.382   1.690  17.883
   6823SM  H15F 8898   3.462   1.624  17.766
   6823SM  H15G 8899   3.430   1.771  18.066
   6823SM  C16F 8900   3.308   1.759  17.535
   6823SM  H16F 8901   3.367   1.849  17.451
   6823SM  H16G 8902   3.208   1.794  17.628
   6823SM  C17F 8903   3.296   1.676  17.151
   6823SM  H17F 8904   3.209   1.608  17.169
   6823SM  H17G 8905   3.387   1.614  17.112
   6823SM  C18F 8906   3.281   1.767  16.785
   6823SM  H18F 8907   3.335   1.863  16.827
   6823SM  H18G 8908   3.173   1.792  16.752
   6823SM  C19F 8909   3.330   1.702  16.398
   6823SM  H19F 8910   3.295   1.596  16.398
   6823SM  H19G 8911   3.441   1.701  16.395
   6823SM  C20F 8912   3.277   1.770  16.020
   6823SM  H20F 8913   3.166   1.774  16.026
   6823SM  H20G 8914   3.306   1.703  15.771
   6823SM  C21F 8915   3.331   1.912  15.951
   6823SM  H21F 8916   3.441   1.914  15.993
   6823SM  H21G 8917   3.286   1.982  16.173
   6823SM  C22F 8918   3.299   1.961  15.525
   6823SM  H22F 8919   3.336   2.066  15.492
   6823SM  H22G 8920   3.189   1.962  15.486
   6823SM  C23F 8921   3.363   1.876  15.195
   6823SM  H23F 8922   3.327   1.906  14.898
   6823SM  H23G 8923   3.336   1.769  15.222
   6823SM  H23H 8924   3.473   1.886  15.201
   6923SM     N 8925   5.430   2.091  23.430
   6923SM   C15 8926   5.284   2.057  23.433
   6923SM  H15A 8927   5.232   2.102  23.682
   6923SM  H15B 8928   5.272   1.950  23.451
   6923SM  H15C 8929   5.240   2.088  23.148
   6923SM   C14 8930   5.451   2.239  23.463
   6923SM  H14A 8931   5.403   2.291  23.214
   6923SM  H14B 8932   5.557   2.265  23.481
   6923SM  H14C 8933   5.409   2.279  23.739
   6923SM   C13 8934   5.492   2.026  23.787
   6923SM  H13A 8935   5.441   2.061  24.057
   6923SM  H13B 8936   5.595   2.059  23.829
   6923SM  H13C 8937   5.492   1.918  23.778
   6923SM   C12 8938   5.490   2.034  23.046
   6923SM  H12A 8939   5.455   1.931  23.013
   6923SM  H12B 8940   5.598   2.031  23.070
   6923SM   C11 8941   5.452   2.104  22.650
   6923SM  H11A 8942   5.509   2.050  22.410
   6923SM  H11B 8943   5.491   2.208  22.659
   6923SM     P 8944   5.243   1.993  22.305
   6923SM   O13 8945   5.255   1.866  22.530
   6923SM   O14 8946   5.107   2.034  22.191
   6923SM   O11 8947   5.334   1.991  21.912
   6923SM   O12 8948   5.312   2.107  22.575
   6923SM   C1S 8949   5.377   2.115  21.735
   6923SM   H1S 8950   5.486   2.130  21.798
   6923SM   H1T 8951   5.322   2.204  21.852
   6923SM    NF 8952   5.217   2.112  21.186
   6923SM   HNF 8953   5.169   2.026  21.201
   6923SM   C2S 8954   5.360   2.115  21.273
   6923SM   H2S 8955   5.402   2.210  21.153
   6923SM   C3S 8956   5.437   1.997  21.078
   6923SM   H3S 8957   5.405   1.900  21.201
   6923SM    O3 8958   5.580   2.002  21.126
   6923SM   HO3 8959   5.599   2.079  21.288
   6923SM   C4S 8960   5.411   2.006  20.634
   6923SM   H4S 8961   5.462   2.089  20.484
   6923SM   C5S 8962   5.340   1.919  20.412
   6923SM   H5S 8963   5.294   1.831  20.553
   6923SM   C6S 8964   5.317   1.937  19.968
   6923SM   H6S 8965   5.321   2.046  19.890
   6923SM   H6T 8966   5.214   1.901  19.902
   6923SM   C7S 8967   5.410   1.867  19.671
   6923SM   H7S 8968   5.412   1.759  19.746
   6923SM   H7T 8969   5.512   1.909  19.716
   6923SM   C8S 8970   5.375   1.882  19.221
   6923SM   H8S 8971   5.400   1.984  19.116
   6923SM   H8T 8972   5.267   1.865  19.161
   6923SM   C9S 8973   5.461   1.779  18.999
   6923SM   H9S 8974   5.441   1.677  19.113
   6923SM   H9T 8975   5.563   1.805  19.077
   6923SM  C10S 8976   5.464   1.781  18.543
   6923SM  H10S 8977   5.572   1.778  18.447
   6923SM  H10T 8978   5.421   1.877  18.432
   6923SM  C11S 8979   5.396   1.659  18.360
   6923SM  H11S 8980   5.323   1.618  18.573
   6923SM  H11T 8981   5.474   1.581  18.309
   6923SM  C12S 8982   5.326   1.694  17.970
   6923SM  H12S 8983   5.251   1.774  18.033
   6923SM  H12T 8984   5.272   1.606  17.844
   6923SM  C13S 8985   5.427   1.749  17.673
   6923SM  H13S 8986   5.505   1.673  17.619
   6923SM  H13T 8987   5.477   1.839  17.802
   6923SM  C14S 8988   5.367   1.792  17.277
   6923SM  H14S 8989   5.294   1.876  17.325
   6923SM  H14T 8990   5.311   1.708  17.136
   6923SM  C15S 8991   5.481   1.838  17.004
   6923SM  H15S 8992   5.556   1.757  16.974
   6923SM  H15T 8993   5.531   1.925  17.145
   6923SM  C16S 8994   5.427   1.875  16.596
   6923SM  H16S 8995   5.363   1.965  16.641
   6923SM  H16T 8996   5.362   1.792  16.488
   6923SM  C17S 8997   5.532   1.904  16.278
   6923SM  H17S 8998   5.590   1.813  16.203
   6923SM  H17T 8999   5.602   1.983  16.386
   6923SM  C18S 9000   5.462   1.952  15.903
   6923SM  H18S 9001   5.419   1.869  15.723
   6923SM  H18T 9002   5.529   2.011  15.705
   6923SM  H18U 9003   5.380   2.017  16.002
   6923SM   C1F 9004   5.149   2.227  21.198
   6923SM    OF 9005   5.201   2.330  21.324
   6923SM   C2F 9006   5.011   2.225  21.033
   6923SM   H2F 9007   4.936   2.261  21.255
   6923SM   H2G 9008   4.980   2.124  20.928
   6923SM   C3F 9009   5.006   2.319  20.670
   6923SM   H3F 9010   5.022   2.426  20.745
   6923SM   H3G 9011   4.898   2.311  20.607
   6923SM   C4F 9012   5.092   2.274  20.316
   6923SM   H4F 9013   5.199   2.265  20.409
   6923SM   H4G 9014   5.089   2.351  20.073
   6923SM   C5F 9015   5.046   2.140  20.142
   6923SM   H5F 9016   4.936   2.131  20.169
   6923SM   H5G 9017   5.091   2.057  20.319
   6923SM   C6F 9018   5.083   2.130  19.698
   6923SM   H6F 9019   5.095   2.026  19.590
   6923SM   H6G 9020   5.181   2.183  19.656
   6923SM   C7F 9021   4.980   2.198  19.431
   6923SM   H7F 9022   4.927   2.273  19.614
   6923SM   H7G 9023   4.904   2.124  19.332
   6923SM   C8F 9024   5.045   2.274  19.089
   6923SM   H8F 9025   5.109   2.354  19.215
   6923SM   H8G 9026   4.966   2.324  18.912
   6923SM   C9F 9027   5.128   2.182  18.825
   6923SM   H9F 9028   5.196   2.121  19.017
   6923SM   H9G 9029   5.192   2.241  18.618
   6923SM  C10F 9030   5.038   2.088  18.588
   6923SM  H10F 9031   4.968   2.035  18.792
   6923SM  H10G 9032   5.100   2.011  18.432
   6923SM  C11F 9033   4.956   2.161  18.273
   6923SM  H11F 9034   4.887   2.237  18.399
   6923SM  H11G 9035   4.891   2.081  18.150
   6923SM  C12F 9036   5.045   2.227  17.958
   6923SM  H12F 9037   5.136   2.164  17.913
   6923SM  H12G 9038   5.081   2.326  18.069
   6923SM  C13F 9039   4.975   2.245  17.556
   6923SM  H13F 9040   5.047   2.283  17.328
   6923SM  H13G 9041   4.895   2.322  17.589
   6923SM  C14F 9042   4.910   2.115  17.406
   6923SM  H14F 9043   4.859   2.136  17.121
   6923SM  H14G 9044   4.828   2.083  17.607
   6923SM  C15F 9045   5.001   1.994  17.364
   6923SM  H15F 9046   4.940   1.907  17.463
   6923SM  H15G 9047   5.091   1.999  17.556
   6923SM  C16F 9048   5.037   1.970  16.929
   6923SM  H16F 9049   4.942   1.962  16.761
   6923SM  H16G 9050   5.092   1.874  16.884
   6923SM  C17F 9051   5.115   2.085  16.737
   6923SM  H17F 9052   5.213   2.096  16.884
   6923SM  H17G 9053   5.058   2.179  16.767
   6923SM  C18F 9054   5.124   2.048  16.299
   6923SM  H18F 9055   5.022   2.018  16.203
   6923SM  H18G 9056   5.188   1.957  16.272
   6923SM  C19F 9057   5.169   2.152  15.996
   6923SM  H19F 9058   5.270   2.188  16.089
   6923SM  H19G 9059   5.102   2.240  15.987
   6923SM  C20F 9060   5.172   2.076  15.597
   6923SM  H20F 9061   5.219   1.977  15.645
   6923SM  H20G 9062   5.233   2.124  15.363
   6923SM  C21F 9063   5.036   2.048  15.414
   6923SM  H21F 9064   4.980   2.145  15.411
   6923SM  H21G 9065   4.979   1.976  15.597
   6923SM  C22F 9066   5.055   2.003  14.979
   6923SM  H22F 9067   5.096   2.096  14.850
   6923SM  H22G 9068   4.961   1.990  14.820
   6923SM  C23F 9069   5.153   1.888  14.874
   6923SM  H23F 9070   5.227   1.924  14.652
   6923SM  H23G 9071   5.101   1.801  14.736
   6923SM  H23H 9072   5.207   1.852  15.144
   7023SM     N 9073   4.765   1.611  23.415
   7023SM   C15 9074   4.825   1.484  23.259
   7023SM  H15A 9075   4.794   1.467  22.947
   7023SM  H15B 9076   4.793   1.396  23.430
   7023SM  H15C 9077   4.933   1.489  23.271
   7023SM   C14 9078   4.620   1.584  23.487
   7023SM  H14A 9079   4.576   1.542  23.214
   7023SM  H14B 9080   4.565   1.673  23.553
   7023SM  H14C 9081   4.606   1.512  23.724
   7023SM   C13 9082   4.836   1.641  23.793
   7023SM  H13A 9083   4.939   1.668  23.733
   7023SM  H13B 9084   4.841   1.553  23.985
   7023SM  H13C 9085   4.787   1.720  23.961
   7023SM   C12 9086   4.787   1.722  23.112
   7023SM  H12A 9087   4.889   1.712  23.001
   7023SM  H12B 9088   4.777   1.820  23.250
   7023SM   C11 9089   4.698   1.721  22.734
   7023SM  H11A 9090   4.730   1.804  22.530
   7023SM  H11B 9091   4.593   1.742  22.821
   7023SM     P 9092   4.594   1.529  22.311
   7023SM   O13 9093   4.626   1.386  22.248
   7023SM   O14 9094   4.471   1.563  22.530
   7023SM   O11 9095   4.596   1.606  21.894
   7023SM   O12 9096   4.717   1.596  22.533
   7023SM   C1S 9097   4.722   1.653  21.744
   7023SM   H1S 9098   4.808   1.587  21.831
   7023SM   H1T 9099   4.742   1.755  21.864
   7023SM    NF 9100   4.837   1.588  21.114
   7023SM   HNF 9101   4.920   1.642  21.072
   7023SM   C2S 9102   4.723   1.662  21.279
   7023SM   H2S 9103   4.628   1.617  21.162
   7023SM   C3S 9104   4.726   1.811  21.150
   7023SM   H3S 9105   4.816   1.861  21.276
   7023SM    O3 9106   4.614   1.890  21.276
   7023SM   HO3 9107   4.579   1.847  21.513
   7023SM   C4S 9108   4.729   1.813  20.703
   7023SM   H4S 9109   4.631   1.792  20.565
   7023SM   C5S 9110   4.834   1.842  20.469
   7023SM   H5S 9111   4.931   1.868  20.604
   7023SM   C6S 9112   4.827   1.840  20.019
   7023SM   H6S 9113   4.843   1.942  19.896
   7023SM   H6T 9114   4.727   1.807  19.908
   7023SM   C7S 9115   4.932   1.745  19.845
   7023SM   H7S 9116   4.919   1.642  19.956
   7023SM   H7T 9117   5.033   1.779  19.935
   7023SM   C8S 9118   4.922   1.746  19.386
   7023SM   H8S 9119   4.925   1.854  19.296
   7023SM   H8T 9120   4.825   1.705  19.284
   7023SM   C9S 9121   5.037   1.677  19.170
   7023SM   H9S 9122   5.023   1.566  19.158
   7023SM   H9T 9123   5.132   1.698  19.329
   7023SM  C10S 9124   5.049   1.735  18.747
   7023SM  H10S 9125   5.142   1.699  18.606
   7023SM  H10T 9126   5.058   1.845  18.777
   7023SM  C11S 9127   4.934   1.702  18.462
   7023SM  H11S 9128   4.842   1.760  18.531
   7023SM  H11T 9129   4.910   1.594  18.492
   7023SM  C12S 9130   4.982   1.727  18.030
   7023SM  H12S 9131   5.074   1.668  17.991
   7023SM  H12T 9132   5.006   1.835  17.994
   7023SM  C13S 9133   4.881   1.674  17.730
   7023SM  H13S 9134   4.786   1.732  17.760
   7023SM  H13T 9135   4.865   1.571  17.844
   7023SM  C14S 9136   4.918   1.656  17.283
   7023SM  H14S 9137   4.949   1.550  17.229
   7023SM  H14T 9138   5.006   1.718  17.202
   7023SM  C15S 9139   4.795   1.689  17.025
   7023SM  H15S 9140   4.753   1.785  17.142
   7023SM  H15T 9141   4.716   1.613  17.064
   7023SM  C16S 9142   4.809   1.712  16.575
   7023SM  H16S 9143   4.831   1.820  16.536
   7023SM  H16T 9144   4.711   1.695  16.425
   7023SM  C17S 9145   4.916   1.644  16.323
   7023SM  H17S 9146   4.887   1.540  16.245
   7023SM  H17T 9147   5.015   1.642  16.476
   7023SM  C18S 9148   4.922   1.729  15.948
   7023SM  H18S 9149   4.973   1.679  15.696
   7023SM  H18T 9150   4.979   1.822  16.020
   7023SM  H18U 9151   4.820   1.758  15.846
   7023SM   C1F 9152   4.828   1.457  21.048
   7023SM    OF 9153   4.746   1.387  21.219
   7023SM   C2F 9154   4.917   1.398  20.733
   7023SM   H2F 9155   4.983   1.322  20.874
   7023SM   H2G 9156   4.979   1.478  20.595
   7023SM   C3F 9157   4.828   1.331  20.409
   7023SM   H3F 9158   4.776   1.243  20.541
   7023SM   H3G 9159   4.895   1.292  20.169
   7023SM   C4F 9160   4.721   1.426  20.235
   7023SM   H4F 9161   4.769   1.517  20.112
   7023SM   H4G 9162   4.653   1.460  20.478
   7023SM   C5F 9163   4.632   1.365  19.911
   7023SM   H5F 9164   4.548   1.434  19.845
   7023SM   H5G 9165   4.589   1.270  20.031
   7023SM   C6F 9166   4.706   1.337  19.521
   7023SM   H6F 9167   4.799   1.283  19.605
   7023SM   H6G 9168   4.737   1.430  19.365
   7023SM   C7F 9169   4.624   1.246  19.248
   7023SM   H7F 9170   4.579   1.171  19.452
   7023SM   H7G 9171   4.691   1.194  19.029
   7023SM   C8F 9172   4.506   1.310  19.026
   7023SM   H8F 9173   4.439   1.360  19.248
   7023SM   H8G 9174   4.447   1.230  18.876
   7023SM   C9F 9175   4.549   1.411  18.711
   7023SM   H9F 9176   4.632   1.474  18.828
   7023SM   H9G 9177   4.465   1.478  18.639
   7023SM  C10F 9178   4.595   1.342  18.324
   7023SM  H10F 9179   4.512   1.287  18.189
   7023SM  H10G 9180   4.676   1.269  18.387
   7023SM  C11F 9181   4.646   1.448  18.036
   7023SM  H11F 9182   4.724   1.504  18.207
   7023SM  H11G 9183   4.565   1.521  17.961
   7023SM  C12F 9184   4.707   1.389  17.655
   7023SM  H12F 9185   4.796   1.328  17.733
   7023SM  H12G 9186   4.743   1.473  17.472
   7023SM  C13F 9187   4.614   1.311  17.382
   7023SM  H13F 9188   4.517   1.367  17.358
   7023SM  H13G 9189   4.593   1.211  17.508
   7023SM  C14F 9190   4.672   1.301  16.956
   7023SM  H14F 9191   4.677   1.404  16.827
   7023SM  H14G 9192   4.600   1.241  16.776
   7023SM  C15F 9193   4.814   1.239  16.920
   7023SM  H15F 9194   4.808   1.131  16.998
   7023SM  H15G 9195   4.884   1.287  17.133
   7023SM  C16F 9196   4.875   1.253  16.497
   7023SM  H16F 9197   4.965   1.189  16.467
   7023SM  H16G 9198   4.909   1.358  16.467
   7023SM  C17F 9199   4.776   1.221  16.161
   7023SM  H17F 9200   4.678   1.269  16.221
   7023SM  H17G 9201   4.760   1.111  16.155
   7023SM  C18F 9202   4.811   1.272  15.747
   7023SM  H18F 9203   4.906   1.228  15.633
   7023SM  H18G 9204   4.823   1.383  15.759
   7023SM  C19F 9205   4.696   1.241  15.462
   7023SM  H19F 9206   4.599   1.277  15.588
   7023SM  H19G 9207   4.687   1.133  15.432
   7023SM  C20F 9208   4.714   1.297  15.045
   7023SM  H20F 9209   4.809   1.259  14.913
   7023SM  H20G 9210   4.726   1.406  15.066
   7023SM  C21F 9211   4.594   1.261  14.781
   7023SM  H21F 9212   4.499   1.278  14.946
   7023SM  H21G 9213   4.599   1.153  14.700
   7023SM  C22F 9214   4.596   1.346  14.403
   7023SM  H22F 9215   4.529   1.301  14.172
   7023SM  H22G 9216   4.700   1.344  14.295
   7023SM  C23F 9217   4.562   1.494  14.454
   7023SM  H23F 9218   4.586   1.553  14.184
   7023SM  H23G 9219   4.616   1.539  14.712
   7023SM  H23H 9220   4.454   1.500  14.520
   7123SM     N 9221   4.602   6.566  23.136
   7123SM   C15 9222   4.742   6.584  23.289
   7123SM  H15A 9223   4.777   6.685  23.214
   7123SM  H15B 9224   4.810   6.517  23.139
   7123SM  H15C 9225   4.750   6.569  23.610
   7123SM   C14 9226   4.549   6.433  23.265
   7123SM  H14A 9227   4.605   6.352  23.127
   7123SM  H14B 9228   4.444   6.419  23.199
   7123SM  H14C 9229   4.566   6.416  23.583
   7123SM   C13 9230   4.517   6.676  23.301
   7123SM  H13A 9231   4.550   6.770  23.166
   7123SM  H13B 9232   4.524   6.686  23.625
   7123SM  H13C 9233   4.414   6.662  23.217
   7123SM   C12 9234   4.604   6.578  22.680
   7123SM  H12A 9235   4.508   6.549  22.560
   7123SM  H12B 9236   4.680   6.512  22.560
   7123SM   C11 9237   4.639   6.716  22.497
   7123SM  H11A 9238   4.574   6.796  22.623
   7123SM  H11B 9239   4.618   6.711  22.167
   7123SM     P 9240   4.836   6.886  22.470
   7123SM   O13 9241   4.737   6.985  22.614
   7123SM   O14 9242   4.973   6.897  22.638
   7123SM   O11 9243   4.848   6.893  21.990
   7123SM   O12 9244   4.777   6.742  22.563
   7123SM   C1S 9245   4.896   6.777  21.786
   7123SM   H1S 9246   4.859   6.683  21.927
   7123SM   H1T 9247   5.007   6.774  21.792
   7123SM    NF 9248   4.838   6.638  21.177
   7123SM   HNF 9249   4.878   6.628  20.907
   7123SM   C2S 9250   4.845   6.774  21.345
   7123SM   H2S 9251   4.742   6.816  21.342
   7123SM   C3S 9252   4.935   6.863  21.072
   7123SM   H3S 9253   5.039   6.824  21.084
   7123SM    O3 9254   4.942   7.002  21.177
   7123SM   HO3 9255   4.914   7.006  21.456
   7123SM   C4S 9256   4.880   6.846  20.652
   7123SM   H4S 9257   4.780   6.889  20.613
   7123SM   C5S 9258   4.938   6.785  20.337
   7123SM   H5S 9259   5.041   6.746  20.358
   7123SM   C6S 9260   4.870   6.773  19.935
   7123SM   H6S 9261   4.760   6.789  19.962
   7123SM   H6T 9262   4.883   6.670  19.815
   7123SM   C7S 9263   4.921   6.872  19.623
   7123SM   H7S 9264   5.029   6.852  19.572
   7123SM   H7T 9265   4.908   6.976  19.734
   7123SM   C8S 9266   4.847   6.858  19.221
   7123SM   H8S 9267   4.738   6.870  19.272
   7123SM   H8T 9268   4.864   6.756  19.098
   7123SM   C9S 9269   4.894   6.962  18.918
   7123SM   H9S 9270   5.003   6.950  18.858
   7123SM   H9T 9271   4.878   7.064  19.044
   7123SM  C10S 9272   4.820   6.950  18.519
   7123SM  H10S 9273   4.719   6.906  18.573
   7123SM  H10T 9274   4.879   6.878  18.336
   7123SM  C11S 9275   4.802   7.084  18.309
   7123SM  H11S 9276   4.893   7.145  18.375
   7123SM  H11T 9277   4.717   7.138  18.450
   7123SM  C12S 9278   4.783   7.084  17.850
   7123SM  H12S 9279   4.825   7.180  17.745
   7123SM  H12T 9280   4.675   7.084  17.769
   7123SM  C13S 9281   4.855   6.974  17.619
   7123SM  H13S 9282   4.795   6.883  17.583
   7123SM  H13T 9283   4.948   6.944  17.775
   7123SM  C14S 9284   4.891   7.024  17.199
   7123SM  H14S 9285   4.920   7.131  17.208
   7123SM  H14T 9286   4.803   7.014  17.001
   7123SM  C15S 9287   5.010   6.949  17.025
   7123SM  H15S 9288   4.999   6.840  17.064
   7123SM  H15T 9289   5.099   6.972  17.199
   7123SM  C16S 9290   5.022   6.984  16.581
   7123SM  H16S 9291   5.129   6.989  16.494
   7123SM  H16T 9292   4.972   7.080  16.515
   7123SM  C17S 9293   4.955   6.871  16.359
   7123SM  H17S 9294   4.861   6.848  16.527
   7123SM  H17T 9295   5.030   6.792  16.401
   7123SM  C18S 9296   4.919   6.879  15.921
   7123SM  H18S 9297   4.924   6.982  15.804
   7123SM  H18T 9298   4.818   6.837  15.867
   7123SM  H18U 9299   4.989   6.811  15.759
   7123SM   C1F 9300   4.761   6.538  21.306
   7123SM    OF 9301   4.691   6.545  21.603
   7123SM   C2F 9302   4.763   6.419  21.042
   7123SM   H2F 9303   4.791   6.329  21.219
   7123SM   H2G 9304   4.839   6.435  20.802
   7123SM   C3F 9305   4.624   6.401  20.853
   7123SM   H3F 9306   4.589   6.493  20.700
   7123SM   H3G 9307   4.550   6.377  21.093
   7123SM   C4F 9308   4.626   6.286  20.553
   7123SM   H4F 9309   4.523   6.265  20.442
   7123SM   H4G 9310   4.658   6.196  20.724
   7123SM   C5F 9311   4.722   6.302  20.193
   7123SM   H5F 9312   4.705   6.216  19.986
   7123SM   H5G 9313   4.827   6.293  20.301
   7123SM   C6F 9314   4.707   6.435  19.968
   7123SM   H6F 9315   4.787   6.441  19.737
   7123SM   H6G 9316   4.722   6.519  20.181
   7123SM   C7F 9317   4.572   6.457  19.755
   7123SM   H7F 9318   4.488   6.439  19.968
   7123SM   H7G 9319   4.563   6.383  19.509
   7123SM   C8F 9320   4.565   6.600  19.587
   7123SM   H8F 9321   4.658   6.620  19.416
   7123SM   H8G 9322   4.564   6.671  19.845
   7123SM   C9F 9323   4.443   6.628  19.317
   7123SM   H9F 9324   4.429   6.737  19.281
   7123SM   H9G 9325   4.353   6.587  19.473
   7123SM  C10F 9326   4.454   6.562  18.903
   7123SM  H10F 9327   4.358   6.574  18.738
   7123SM  H10G 9328   4.468   6.453  18.960
   7123SM  C11F 9329   4.568   6.608  18.621
   7123SM  H11F 9330   4.599   6.518  18.453
   7123SM  H11G 9331   4.656   6.642  18.795
   7123SM  C12F 9332   4.532   6.714  18.306
   7123SM  H12F 9333   4.518   6.813  18.459
   7123SM  H12G 9334   4.436   6.691  18.153
   7123SM  C13F 9335   4.642   6.734  17.988
   7123SM  H13F 9336   4.737   6.750  18.150
   7123SM  H13G 9337   4.618   6.824  17.808
   7123SM  C14F 9338   4.676   6.618  17.709
   7123SM  H14F 9339   4.705   6.532  17.898
   7123SM  H14G 9340   4.767   6.645  17.529
   7123SM  C15F 9341   4.563   6.578  17.424
   7123SM  H15F 9342   4.472   6.558  17.598
   7123SM  H15G 9343   4.587   6.481  17.292
   7123SM  C16F 9344   4.532   6.676  17.082
   7123SM  H16F 9345   4.486   6.765  17.226
   7123SM  H16G 9346   4.457   6.631  16.878
   7123SM  C17F 9347   4.651   6.727  16.827
   7123SM  H17F 9348   4.723   6.780  17.025
   7123SM  H17G 9349   4.611   6.804  16.617
   7123SM  C18F 9350   4.728   6.624  16.569
   7123SM  H18F 9351   4.748   6.675  16.278
   7123SM  H18G 9352   4.667   6.536  16.482
   7123SM  C19F 9353   4.868   6.591  16.743
   7123SM  H19F 9354   4.870   6.520  16.995
   7123SM  H19G 9355   4.901   6.684  16.887
   7123SM  C20F 9356   4.975   6.564  16.428
   7123SM  H20F 9357   5.073   6.605  16.530
   7123SM  H20G 9358   4.944   6.617  16.149
   7123SM  C21F 9359   5.005   6.422  16.317
   7123SM  H21F 9360   4.910   6.368  16.287
   7123SM  H21G 9361   5.071   6.371  16.539
   7123SM  C22F 9362   5.060   6.419  15.900
   7123SM  H22F 9363   5.163   6.462  15.876
   7123SM  H22G 9364   4.992   6.479  15.702
   7123SM  C23F 9365   5.054   6.277  15.762
   7123SM  H23F 9366   5.149   6.225  15.825
   7123SM  H23G 9367   5.030   6.275  15.438
   7123SM  H23H 9368   4.972   6.223  15.912
   7223SM     N 9369   6.733   2.680  23.076
   7223SM   C15 9370   6.759   2.783  23.394
   7223SM  H15A 9371   6.671   2.794  23.583
   7223SM  H15B 9372   6.773   2.879  23.247
   7223SM  H15C 9373   6.846   2.757  23.565
   7223SM   C14 9374   6.849   2.671  22.803
   7223SM  H14A 9375   6.941   2.653  22.965
   7223SM  H14B 9376   6.858   2.764  22.635
   7223SM  H14C 9377   6.834   2.593  22.581
   7223SM   C13 9378   6.711   2.548  23.262
   7223SM  H13A 9379   6.704   2.474  23.022
   7223SM  H13B 9380   6.619   2.545  23.430
   7223SM  H13C 9381   6.795   2.520  23.448
   7223SM   C12 9382   6.616   2.723  22.809
   7223SM  H12A 9383   6.523   2.682  22.923
   7223SM  H12B 9384   6.631   2.681  22.512
   7223SM   C11 9385   6.595   2.874  22.752
   7223SM  H11A 9386   6.548   2.915  23.031
   7223SM  H11B 9387   6.523   2.888  22.497
   7223SM     P 9388   6.717   3.094  22.599
   7223SM   O13 9389   6.604   3.135  22.344
   7223SM   O14 9390   6.736   3.160  22.995
   7223SM   O11 9391   6.848   3.119  22.344
   7223SM   O12 9392   6.718   2.939  22.665
   7223SM   C1S 9393   6.902   3.025  22.065
   7223SM   H1S 9394   6.906   2.923  22.197
   7223SM   H1T 9395   7.007   3.054  21.996
   7223SM    NF 9396   6.884   2.898  21.432
   7223SM   HNF 9397   6.937   2.922  21.189
   7223SM   C2S 9398   6.826   3.011  21.654
   7223SM   H2S 9399   6.719   2.992  21.720
   7223SM   C3S 9400   6.830   3.141  21.393
   7223SM   H3S 9401   6.936   3.168  21.333
   7223SM    O3 9402   6.769   3.259  21.546
   7223SM   HO3 9403   6.750   3.239  21.822
   7223SM   C4S 9404   6.771   3.098  20.994
   7223SM   H4S 9405   6.850   3.066  20.787
   7223SM   C5S 9406   6.643   3.086  20.871
   7223SM   H5S 9407   6.561   3.116  21.078
   7223SM   C6S 9408   6.602   3.039  20.457
   7223SM   H6S 9409   6.502   3.080  20.379
   7223SM   H6T 9410   6.593   2.928  20.451
   7223SM   C7S 9411   6.700   3.085  20.130
   7223SM   H7S 9412   6.808   3.069  20.202
   7223SM   H7T 9413   6.683   3.193  20.109
   7223SM   C8S 9414   6.680   3.030  19.707
   7223SM   H8S 9415   6.574   3.041  19.608
   7223SM   H8T 9416   6.708   2.923  19.692
   7223SM   C9S 9417   6.773   3.104  19.419
   7223SM   H9S 9418   6.878   3.080  19.497
   7223SM   H9T 9419   6.763   3.214  19.461
   7223SM  C10S 9420   6.752   3.062  18.981
   7223SM  H10S 9421   6.646   3.034  18.924
   7223SM  H10T 9422   6.814   2.972  18.933
   7223SM  C11S 9423   6.794   3.177  18.702
   7223SM  H11S 9424   6.899   3.203  18.783
   7223SM  H11T 9425   6.729   3.263  18.774
   7223SM  C12S 9426   6.788   3.151  18.249
   7223SM  H12S 9427   6.684   3.130  18.150
   7223SM  H12T 9428   6.847   3.060  18.180
   7223SM  C13S 9429   6.846   3.270  18.012
   7223SM  H13S 9430   6.932   3.312  18.183
   7223SM  H13T 9431   6.770   3.351  17.988
   7223SM  C14S 9432   6.894   3.223  17.598
   7223SM  H14S 9433   6.806   3.182  17.439
   7223SM  H14T 9434   6.965   3.139  17.649
   7223SM  C15S 9435   6.965   3.322  17.313
   7223SM  H15S 9436   7.056   3.365  17.454
   7223SM  H15T 9437   6.897   3.407  17.241
   7223SM  C16S 9438   6.999   3.242  16.932
   7223SM  H16S 9439   6.915   3.172  16.881
   7223SM  H16T 9440   7.090   3.180  16.986
   7223SM  C17S 9441   7.016   3.320  16.539
   7223SM  H17S 9442   7.123   3.346  16.518
   7223SM  H17T 9443   6.962   3.416  16.542
   7223SM  C18S 9444   6.968   3.238  16.176
   7223SM  H18S 9445   7.043   3.161  16.089
   7223SM  H18T 9446   6.948   3.302  15.909
   7223SM  H18U 9447   6.873   3.185  16.245
   7223SM   C1F 9448   6.828   2.778  21.459
   7223SM    OF 9449   6.732   2.757  21.675
   7223SM   C2F 9450   6.878   2.669  21.183
   7223SM   H2F 9451   6.822   2.576  21.258
   7223SM   H2G 9452   6.985   2.649  21.237
   7223SM   C3F 9453   6.851   2.705  20.739
   7223SM   H3F 9454   6.905   2.798  20.652
   7223SM   H3G 9455   6.742   2.725  20.697
   7223SM   C4F 9456   6.891   2.591  20.454
   7223SM   H4F 9457   6.827   2.503  20.529
   7223SM   H4G 9458   6.995   2.558  20.508
   7223SM   C5F 9459   6.872   2.623  20.007
   7223SM   H5F 9460   6.765   2.651  19.956
   7223SM   H5G 9461   6.891   2.529  19.833
   7223SM   C6F 9462   6.962   2.732  19.827
   7223SM   H6F 9463   7.069   2.710  19.893
   7223SM   H6G 9464   6.938   2.831  19.962
   7223SM   C7F 9465   6.944   2.742  19.368
   7223SM   H7F 9466   6.842   2.780  19.302
   7223SM   H7G 9467   6.951   2.640  19.239
   7223SM   C8F 9468   7.047   2.831  19.152
   7223SM   H8F 9469   7.150   2.805  19.245
   7223SM   H8G 9470   7.029   2.937  19.239
   7223SM   C9F 9471   7.035   2.818  18.693
   7223SM   H9F 9472   6.927   2.816  18.615
   7223SM   H9G 9473   7.078   2.720  18.597
   7223SM  C10F 9474   7.101   2.933  18.459
   7223SM  H10F 9475   7.105   3.023  18.657
   7223SM  H10G 9476   7.037   2.960  18.198
   7223SM  C11F 9477   7.241   2.900  18.303
   7223SM  H11F 9478   7.297   2.850  18.552
   7223SM  H11G 9479   7.294   2.995  18.228
   7223SM  C12F 9480   7.244   2.808  17.934
   7223SM  H12F 9481   7.190   2.714  18.000
   7223SM  H12G 9482   7.351   2.781  17.874
   7223SM  C13F 9483   7.186   2.872  17.553
   7223SM  H13F 9484   7.232   2.972  17.505
   7223SM  H13G 9485   7.076   2.886  17.592
   7223SM  C14F 9486   7.213   2.785  17.184
   7223SM  H14F 9487   7.173   2.682  17.235
   7223SM  H14G 9488   7.323   2.776  17.142
   7223SM  C15F 9489   7.151   2.841  16.797
   7223SM  H15F 9490   7.192   2.784  16.539
   7223SM  H15G 9491   7.181   2.947  16.758
   7223SM  C16F 9492   6.998   2.832  16.788
   7223SM  H16F 9493   6.958   2.896  17.034
   7223SM  H16G 9494   6.966   2.728  16.854
   7223SM  C17F 9495   6.937   2.881  16.392
   7223SM  H17F 9496   6.982   2.981  16.329
   7223SM  H17G 9497   6.828   2.896  16.428
   7223SM  C18F 9498   6.963   2.791  16.026
   7223SM  H18F 9499   7.073   2.788  15.975
   7223SM  H18G 9500   6.919   2.837  15.753
   7223SM  C19F 9501   6.910   2.648  16.077
   7223SM  H19F 9502   6.955   2.605  16.353
   7223SM  H19G 9503   6.942   2.585  15.822
   7223SM  C20F 9504   6.758   2.635  16.110
   7223SM  H20F 9505   6.712   2.718  16.281
   7223SM  H20G 9506   6.740   2.542  16.287
   7223SM  C21F 9507   6.691   2.615  15.702
   7223SM  H21F 9508   6.603   2.549  15.741
   7223SM  H21G 9509   6.762   2.561  15.501
   7223SM  C22F 9510   6.643   2.741  15.489
   7223SM  H22F 9511   6.723   2.819  15.489
   7223SM  H22G 9512   6.556   2.783  15.651
   7223SM  C23F 9513   6.605   2.709  15.054
   7223SM  H23F 9514   6.536   2.622  15.048
   7223SM  H23G 9515   6.696   2.682  14.880
   7223SM  H23H 9516   6.556   2.795  14.907
   7323SM     N 9517   5.344   1.086  23.373
   7323SM   C15 9518   5.425   1.210  23.325
   7323SM  H15A 9519   5.487   1.229  23.586
   7323SM  H15B 9520   5.365   1.298  23.271
   7323SM  H15C 9521   5.487   1.199  23.058
   7323SM   C14 9522   5.442   0.978  23.469
   7323SM  H14A 9523   5.498   1.003  23.739
   7323SM  H14B 9524   5.513   0.969  23.226
   7323SM  H14C 9525   5.394   0.881  23.511
   7323SM   C13 9526   5.244   1.099  23.706
   7323SM  H13A 9527   5.290   1.074  23.991
   7323SM  H13B 9528   5.160   1.031  23.658
   7323SM  H13C 9529   5.204   1.200  23.718
   7323SM   C12 9530   5.271   1.053  22.983
   7323SM  H12A 9531   5.204   1.136  22.908
   7323SM  H12B 9532   5.204   0.968  23.040
   7323SM   C11 9533   5.360   1.025  22.611
   7323SM  H11A 9534   5.298   0.979  22.371
   7323SM  H11B 9535   5.437   0.949  22.689
   7323SM     P 9536   5.342   1.263  22.299
   7323SM   O13 9537   5.206   1.216  22.188
   7323SM   O14 9538   5.350   1.375  22.584
   7323SM   O11 9539   5.423   1.296  21.906
   7323SM   O12 9540   5.427   1.141  22.461
   7323SM   C1S 9541   5.450   1.191  21.627
   7323SM   H1S 9542   5.414   1.091  21.726
   7323SM   H1T 9543   5.560   1.181  21.582
   7323SM    NF 9544   5.405   1.109  20.937
   7323SM   HNF 9545   5.465   1.127  20.703
   7323SM   C2S 9546   5.386   1.220  21.213
   7323SM   H2S 9547   5.276   1.235  21.252
   7323SM   C3S 9548   5.447   1.352  21.051
   7323SM   H3S 9549   5.558   1.345  21.069
   7323SM    O3 9550   5.411   1.466  21.279
   7323SM   HO3 9551   5.418   1.435  21.555
   7323SM   C4S 9552   5.409   1.371  20.622
   7323SM   H4S 9553   5.493   1.357  20.412
   7323SM   C5S 9554   5.288   1.405  20.478
   7323SM   H5S 9555   5.206   1.423  20.694
   7323SM   C6S 9556   5.254   1.424  20.046
   7323SM   H6S 9557   5.235   1.532  19.992
   7323SM   H6T 9558   5.159   1.370  19.977
   7323SM   C7S 9559   5.360   1.378  19.737
   7323SM   H7S 9560   5.371   1.268  19.746
   7323SM   H7T 9561   5.458   1.425  19.803
   7323SM   C8S 9562   5.317   1.425  19.320
   7323SM   H8S 9563   5.297   1.534  19.332
   7323SM   H8T 9564   5.222   1.377  19.239
   7323SM   C9S 9565   5.417   1.398  18.981
   7323SM   H9S 9566   5.504   1.466  19.014
   7323SM   H9T 9567   5.364   1.423  18.696
   7323SM  C10S 9568   5.465   1.255  18.936
   7323SM  H10S 9569   5.379   1.186  18.900
   7323SM  H10T 9570   5.521   1.222  19.206
   7323SM  C11S 9571   5.554   1.242  18.567
   7323SM  H11S 9572   5.591   1.137  18.552
   7323SM  H11T 9573   5.643   1.309  18.597
   7323SM  C12S 9574   5.485   1.280  18.174
   7323SM  H12S 9575   5.505   1.387  18.099
   7323SM  H12T 9576   5.375   1.266  18.192
   7323SM  C13S 9577   5.538   1.201  17.823
   7323SM  H13S 9578   5.496   1.246  17.547
   7323SM  H13T 9579   5.508   1.094  17.832
   7323SM  C14S 9580   5.690   1.209  17.811
   7323SM  H14S 9581   5.738   1.174  18.093
   7323SM  H14T 9582   5.721   1.314  17.766
   7323SM  C15S 9583   5.743   1.123  17.475
   7323SM  H15S 9584   5.722   1.016  17.526
   7323SM  H15T 9585   5.850   1.142  17.520
   7323SM  C16S 9586   5.697   1.171  17.064
   7323SM  H16S 9587   5.746   1.268  17.010
   7323SM  H16T 9588   5.588   1.186  17.058
   7323SM  C17S 9589   5.728   1.084  16.704
   7323SM  H17S 9590   5.734   0.976  16.779
   7323SM  H17T 9591   5.823   1.118  16.578
   7323SM  C18S 9592   5.637   1.112  16.356
   7323SM  H18S 9593   5.670   1.205  16.209
   7323SM  H18T 9594   5.531   1.123  16.443
   7323SM  H18U 9595   5.649   1.029  16.137
   7323SM   C1F 9596   5.355   0.988  20.985
   7323SM    OF 9597   5.281   0.958  21.267
   7323SM   C2F 9598   5.405   0.888  20.688
   7323SM   H2F 9599   5.467   0.815  20.850
   7323SM   H2G 9600   5.471   0.940  20.469
   7323SM   C3F 9601   5.292   0.820  20.451
   7323SM   H3F 9602   5.223   0.765  20.655
   7323SM   H3G 9603   5.337   0.746  20.238
   7323SM   C4F 9604   5.209   0.919  20.202
   7323SM   H4F 9605   5.277   0.987  20.037
   7323SM   H4G 9606   5.147   0.982  20.406
   7323SM   C5F 9607   5.117   0.846  19.908
   7323SM   H5F 9608   5.016   0.892  19.926
   7323SM   H5G 9609   5.104   0.740  20.004
   7323SM   C6F 9610   5.167   0.851  19.476
   7323SM   H6F 9611   5.103   0.785  19.284
   7323SM   H6G 9612   5.271   0.810  19.464
   7323SM   C7F 9613   5.165   0.992  19.290
   7323SM   H7F 9614   5.209   0.985  18.984
   7323SM   H7G 9615   5.230   1.060  19.467
   7323SM   C8F 9616   5.024   1.053  19.263
   7323SM   H8F 9617   4.974   1.049  19.563
   7323SM   H8G 9618   4.963   0.995  19.050
   7323SM   C9F 9619   5.025   1.201  19.146
   7323SM   H9F 9620   5.080   1.255  19.386
   7323SM   H9G 9621   4.922   1.242  19.143
   7323SM  C10F 9622   5.085   1.230  18.732
   7323SM  H10F 9623   5.179   1.173  18.690
   7323SM  H10G 9624   5.111   1.338  18.705
   7323SM  C11F 9625   4.986   1.196  18.396
   7323SM  H11F 9626   4.897   1.263  18.426
   7323SM  H11G 9627   4.952   1.091  18.432
   7323SM  C12F 9628   5.047   1.215  17.982
   7323SM  H12F 9629   5.092   1.316  17.952
   7323SM  H12G 9630   4.966   1.206  17.754
   7323SM  C13F 9631   5.150   1.107  17.886
   7323SM  H13F 9632   5.105   1.007  17.943
   7323SM  H13G 9633   5.240   1.115  18.081
   7323SM  C14F 9634   5.193   1.113  17.445
   7323SM  H14F 9635   5.257   1.203  17.397
   7323SM  H14G 9636   5.102   1.124  17.253
   7323SM  C15F 9637   5.266   0.986  17.325
   7323SM  H15F 9638   5.193   0.902  17.328
   7323SM  H15G 9639   5.346   0.962  17.547
   7323SM  C16F 9640   5.329   0.997  16.911
   7323SM  H16F 9641   5.425   1.052  16.938
   7323SM  H16G 9642   5.262   1.056  16.710
   7323SM  C17F 9643   5.351   0.858  16.737
   7323SM  H17F 9644   5.251   0.810  16.692
   7323SM  H17G 9645   5.407   0.798  16.959
   7323SM  C18F 9646   5.426   0.854  16.338
   7323SM  H18F 9647   5.425   0.748  16.251
   7323SM  H18G 9648   5.532   0.880  16.392
   7323SM  C19F 9649   5.367   0.944  16.005
   7323SM  H19F 9650   5.364   1.048  16.119
   7323SM  H19G 9651   5.262   0.916  15.945
   7323SM  C20F 9652   5.445   0.951  15.606
   7323SM  H20F 9653   5.552   0.967  15.663
   7323SM  H20G 9654   5.407   1.039  15.435
   7323SM  C21F 9655   5.434   0.830  15.324
   7323SM  H21F 9656   5.492   0.859  15.054
   7323SM  H21G 9657   5.329   0.813  15.234
   7323SM  C22F 9658   5.495   0.701  15.495
   7323SM  H22F 9659   5.428   0.665  15.738
   7323SM  H22G 9660   5.595   0.723  15.621
   7323SM  C23F 9661   5.504   0.584  15.198
   7323SM  H23F 9662   5.578   0.606  14.958
   7323SM  H23G 9663   5.405   0.565  15.060
   7323SM  H23H 9664   5.536   0.493  15.360
   7423SM     N 9665   0.499   4.479  23.148
   7423SM   C15 9666   0.566   4.491  23.547
   7423SM  H15A 9667   0.658   4.546  23.538
   7423SM  H15B 9668   0.589   4.393  23.670
   7423SM  H15C 9669   0.501   4.540  23.766
   7423SM   C14 9670   0.381   4.389  23.178
   7423SM  H14A 9671   0.410   4.285  23.208
   7423SM  H14B 9672   0.327   4.390  22.890
   7423SM  H14C 9673   0.312   4.414  23.412
   7423SM   C13 9674   0.450   4.612  22.995
   7423SM  H13A 9675   0.409   4.600  22.695
   7423SM  H13B 9676   0.528   4.688  22.989
   7423SM  H13C 9677   0.368   4.651  23.172
   7423SM   C12 9678   0.592   4.422  22.833
   7423SM  H12A 9679   0.653   4.341  22.959
   7423SM  H12B 9680   0.660   4.501  22.746
   7423SM   C11 9681   0.521   4.360  22.464
   7423SM  H11A 9682   0.593   4.353  22.209
   7423SM  H11B 9683   0.441   4.428  22.356
   7423SM     P 9684   0.559   4.111  22.593
   7423SM   O13 9685   0.659   4.148  22.893
   7423SM   O14 9686   0.487   3.982  22.650
   7423SM   O11 9687   0.630   4.107  22.164
   7423SM   O12 9688   0.460   4.233  22.560
   7423SM   C1S 9689   0.538   4.078  21.843
   7423SM   H1S 9690   0.448   4.141  21.876
   7423SM   H1T 9691   0.504   3.971  21.849
   7423SM    NF 9692   0.499   4.109  21.117
   7423SM   HNF 9693   0.529   4.067  20.859
   7423SM   C2S 9694   0.602   4.109  21.432
   7423SM   H2S 9695   0.646   4.211  21.444
   7423SM   C3S 9696   0.716   4.006  21.336
   7423SM   H3S 9697   0.673   3.903  21.363
   7423SM    O3 9698   0.829   4.005  21.606
   7423SM   HO3 9699   0.800   4.057  21.831
   7423SM   C4S 9700   0.758   4.031  20.910
   7423SM   H4S 9701   0.809   4.127  20.856
   7423SM   C5S 9702   0.737   3.944  20.607
   7423SM   H5S 9703   0.698   3.844  20.676
   7423SM   C6S 9704   0.773   3.960  20.172
   7423SM   H6S 9705   0.691   3.918  19.983
   7423SM   H6T 9706   0.862   3.898  20.097
   7423SM   C7S 9707   0.803   4.102  20.028
   7423SM   H7S 9708   0.889   4.140  20.208
   7423SM   H7T 9709   0.717   4.170  20.082
   7423SM   C8S 9710   0.842   4.104  19.584
   7423SM   H8S 9711   0.911   4.020  19.521
   7423SM   H8T 9712   0.898   4.196  19.506
   7423SM   C9S 9713   0.722   4.096  19.299
   7423SM   H9S 9714   0.656   4.185  19.335
   7423SM   H9T 9715   0.663   4.006  19.377
   7423SM  C10S 9716   0.768   4.085  18.864
   7423SM  H10S 9717   0.841   4.001  18.840
   7423SM  H10T 9718   0.821   4.178  18.771
   7423SM  C11S 9719   0.651   4.058  18.582
   7423SM  H11S 9720   0.580   4.143  18.594
   7423SM  H11T 9721   0.598   3.966  18.684
   7423SM  C12S 9722   0.701   4.038  18.153
   7423SM  H12S 9723   0.771   3.951  18.147
   7423SM  H12T 9724   0.758   4.128  18.057
   7423SM  C13S 9725   0.587   4.013  17.859
   7423SM  H13S 9726   0.513   4.097  17.877
   7423SM  H13T 9727   0.534   3.920  17.943
   7423SM  C14S 9728   0.638   4.004  17.427
   7423SM  H14S 9729   0.720   3.930  17.406
   7423SM  H14T 9730   0.681   4.101  17.334
   7423SM  C15S 9731   0.529   3.959  17.136
   7423SM  H15S 9732   0.443   4.029  17.154
   7423SM  H15T 9733   0.490   3.860  17.232
   7423SM  C16S 9734   0.582   3.954  16.707
   7423SM  H16S 9735   0.663   3.878  16.683
   7423SM  H16T 9736   0.629   4.051  16.635
   7423SM  C17S 9737   0.475   3.921  16.392
   7423SM  H17S 9738   0.390   3.993  16.419
   7423SM  H17T 9739   0.432   3.821  16.449
   7423SM  C18S 9740   0.532   3.926  15.969
   7423SM  H18S 9741   0.620   3.859  15.939
   7423SM  H18T 9742   0.566   4.029  15.897
   7423SM  H18U 9743   0.456   3.895  15.744
   7423SM   C1F 9744   0.384   4.180  21.108
   7423SM    OF 9745   0.344   4.252  21.381
   7423SM   C2F 9746   0.304   4.163  20.730
   7423SM   H2F 9747   0.230   4.081  20.790
   7423SM   H2G 9748   0.370   4.130  20.481
   7423SM   C3F 9749   0.228   4.291  20.604
   7423SM   H3F 9750   0.298   4.363  20.463
   7423SM   H3G 9751   0.187   4.342  20.874
   7423SM   C4F 9752   0.110   4.260  20.325
   7423SM   H4F 9753   0.043   4.349  20.313
   7423SM   H4G 9754   0.052   4.176  20.460
   7423SM   C5F 9755   0.143   4.214  19.899
   7423SM   H5F 9756   0.047   4.199  19.737
   7423SM   H5G 9757   0.195   4.116  19.914
   7423SM   C6F 9758   0.230   4.312  19.659
   7423SM   H6F 9759   0.245   4.268  19.353
   7423SM   H6G 9760   0.330   4.321  19.803
   7423SM   C7F 9761   0.170   4.452  19.614
   7423SM   H7F 9762   0.143   4.492  19.914
   7423SM   H7G 9763   0.076   4.446  19.437
   7423SM   C8F 9764   0.270   4.550  19.422
   7423SM   H8F 9765   0.360   4.558  19.617
   7423SM   H8G 9766   0.226   4.650  19.401
   7423SM   C9F 9767   0.312   4.516  18.993
   7423SM   H9F 9768   0.353   4.413  18.975
   7423SM   H9G 9769   0.392   4.587  18.900
   7423SM  C10F 9770   0.193   4.532  18.708
   7423SM  H10F 9771   0.152   4.636  18.729
   7423SM  H10G 9772   0.112   4.462  18.801
   7423SM  C11F 9773   0.229   4.504  18.273
   7423SM  H11F 9774   0.136   4.494  18.093
   7423SM  H11G 9775   0.283   4.407  18.261
   7423SM  C12F 9776   0.316   4.612  18.081
   7423SM  H12F 9777   0.417   4.612  18.222
   7423SM  H12G 9778   0.270   4.712  18.132
   7423SM  C13F 9779   0.332   4.588  17.631
   7423SM  H13F 9780   0.398   4.665  17.496
   7423SM  H13G 9781   0.232   4.596  17.484
   7423SM  C14F 9782   0.387   4.449  17.544
   7423SM  H14F 9783   0.313   4.371  17.637
   7423SM  H14G 9784   0.481   4.430  17.712
   7423SM  C15F 9785   0.411   4.431  17.100
   7423SM  H15F 9786   0.496   4.494  16.998
   7423SM  H15G 9787   0.320   4.467  16.938
   7423SM  C16F 9788   0.435   4.286  16.992
   7423SM  H16F 9789   0.354   4.221  17.112
   7423SM  H16G 9790   0.531   4.253  17.133
   7423SM  C17F 9791   0.442   4.276  16.542
   7423SM  H17F 9792   0.494   4.184  16.449
   7423SM  H17G 9793   0.503   4.362  16.434
   7423SM  C18F 9794   0.305   4.277  16.341
   7423SM  H18F 9795   0.252   4.372  16.404
   7423SM  H18G 9796   0.242   4.194  16.464
   7423SM  C19F 9797   0.314   4.258  15.888
   7423SM  H19F 9798   0.232   4.315  15.744
   7423SM  H19G 9799   0.296   4.150  15.825
   7423SM  C20F 9800   0.451   4.300  15.714
   7423SM  H20F 9801   0.533   4.237  15.840
   7423SM  H20G 9802   0.472   4.406  15.801
   7423SM  C21F 9803   0.453   4.287  15.261
   7423SM  H21F 9804   0.470   4.386  15.117
   7423SM  H21G 9805   0.348   4.261  15.195
   7423SM  C22F 9806   0.548   4.179  15.087
   7423SM  H22F 9807   0.486   4.105  14.931
   7423SM  H22G 9808   0.603   4.124  15.321
   7423SM  C23F 9809   0.637   4.216  14.736
   7423SM  H23F 9810   0.729   4.263  14.847
   7423SM  H23G 9811   0.583   4.287  14.538
   7423SM  H23H 9812   0.665   4.127  14.556
   7523SM     N 9813   6.771   5.450  23.127
   7523SM   C15 9814   6.707   5.409  23.508
   7523SM  H15A 9815   6.607   5.372  23.460
   7523SM  H15B 9816   6.699   5.493  23.715
   7523SM  H15C 9817   6.764   5.332  23.661
   7523SM   C14 9818   6.793   5.335  22.848
   7523SM  H14A 9819   6.820   5.372  22.551
   7523SM  H14B 9820   6.702   5.279  22.803
   7523SM  H14C 9821   6.876   5.272  22.938
   7523SM   C13 9822   6.677   5.539  22.902
   7523SM  H13A 9823   6.661   5.635  23.049
   7523SM  H13B 9824   6.581   5.490  22.866
   7523SM  H13C 9825   6.717   5.559  22.605
   7523SM   C12 9826   6.903   5.517  23.220
   7523SM  H12A 9827   6.965   5.443  23.376
   7523SM  H12B 9828   6.886   5.601  23.418
   7523SM   C11 9829   6.990   5.560  22.869
   7523SM  H11A 9830   7.061   5.638  22.986
   7523SM  H11B 9831   6.929   5.607  22.626
   7523SM     P 9832   7.177   5.477  22.428
   7523SM   O13 9833   7.267   5.575  22.620
   7523SM   O14 9834   7.238   5.351  22.278
   7523SM   O11 9835   7.094   5.549  22.098
   7523SM   O12 9836   7.060   5.444  22.731
   7523SM   C1S 9837   6.997   5.483  21.855
   7523SM   H1S 9838   6.901   5.533  21.909
   7523SM   H1T 9839   6.981   5.377  21.942
   7523SM    NF 9840   7.120   5.382  21.300
   7523SM   HNF 9841   7.217   5.384  21.354
   7523SM   C2S 9842   7.041   5.498  21.408
   7523SM   H2S 9843   6.950   5.502  21.213
   7523SM   C3S 9844   7.117   5.633  21.369
   7523SM   H3S 9845   7.214   5.627  21.528
   7523SM    O3 9846   7.044   5.740  21.549
   7523SM   HO3 9847   7.003   5.696  21.774
   7523SM   C4S 9848   7.140   5.675  20.943
   7523SM   H4S 9849   7.089   5.765  20.835
   7523SM   C5S 9850   7.235   5.618  20.718
   7523SM   H5S 9851   7.296   5.540  20.859
   7523SM   C6S 9852   7.279   5.650  20.301
   7523SM   H6S 9853   7.366   5.584  20.247
   7523SM   H6T 9854   7.331   5.748  20.286
   7523SM   C7S 9855   7.169   5.654  19.986
   7523SM   H7S 9856   7.110   5.737  20.100
   7523SM   H7T 9857   7.103   5.565  19.974
   7523SM   C8S 9858   7.209   5.700  19.566
   7523SM   H8S 9859   7.315   5.688  19.500
   7523SM   H8T 9860   7.201   5.811  19.584
   7523SM   C9S 9861   7.112   5.669  19.215
   7523SM   H9S 9862   7.156   5.752  19.047
   7523SM   H9T 9863   7.010   5.703  19.278
   7523SM  C10S 9864   7.110   5.559  18.879
   7523SM  H10S 9865   7.018   5.496  18.909
   7523SM  H10T 9866   7.191   5.485  18.834
   7523SM  C11S 9867   7.105   5.635  18.480
   7523SM  H11S 9868   7.138   5.741  18.507
   7523SM  H11T 9869   6.997   5.639  18.399
   7523SM  C12S 9870   7.197   5.597  18.132
   7523SM  H12S 9871   7.195   5.488  18.084
   7523SM  H12T 9872   7.303   5.627  18.189
   7523SM  C13S 9873   7.139   5.683  17.793
   7523SM  H13S 9874   7.146   5.790  17.892
   7523SM  H13T 9875   7.032   5.654  17.760
   7523SM  C14S 9876   7.207   5.681  17.394
   7523SM  H14S 9877   7.213   5.578  17.283
   7523SM  H14T 9878   7.308   5.724  17.454
   7523SM  C15S 9879   7.139   5.762  17.058
   7523SM  H15S 9880   7.082   5.847  17.187
   7523SM  H15T 9881   7.069   5.694  16.896
   7523SM  C16S 9882   7.242   5.815  16.761
   7523SM  H16S 9883   7.271   5.729  16.578
   7523SM  H16T 9884   7.332   5.850  16.929
   7523SM  C17S 9885   7.199   5.928  16.479
   7523SM  H17S 9886   7.143   6.005  16.650
   7523SM  H17T 9887   7.131   5.887  16.245
   7523SM  C18S 9888   7.320   5.998  16.296
   7523SM  H18S 9889   7.386   6.035  16.539
   7523SM  H18T 9890   7.287   6.085  16.116
   7523SM  H18U 9891   7.380   5.932  16.098
   7523SM   C1F 9892   7.054   5.267  21.276
   7523SM    OF 9893   6.933   5.263  21.336
   7523SM   C2F 9894   7.129   5.144  21.159
   7523SM   H2F 9895   7.155   5.087  21.432
   7523SM   H2G 9896   7.221   5.172  20.994
   7523SM   C3F 9897   7.030   5.065  20.895
   7523SM   H3F 9898   6.989   5.138  20.673
   7523SM   H3G 9899   6.948   5.029  21.093
   7523SM   C4F 9900   7.075   4.948  20.634
   7523SM   H4F 9901   6.980   4.900  20.532
   7523SM   H4G 9902   7.128   4.870  20.799
   7523SM   C5F 9903   7.139   4.993  20.241
   7523SM   H5F 9904   7.075   5.072  20.106
   7523SM   H5G 9905   7.137   4.906  20.031
   7523SM   C6F 9906   7.280   5.052  20.253
   7523SM   H6F 9907   7.332   5.033  20.541
   7523SM   H6G 9908   7.271   5.163  20.238
   7523SM   C7F 9909   7.359   5.005  19.884
   7523SM   H7F 9910   7.360   4.894  19.875
   7523SM   H7G 9911   7.464   5.042  19.896
   7523SM   C8F 9912   7.289   5.062  19.509
   7523SM   H8F 9913   7.274   5.165  19.575
   7523SM   H8G 9914   7.186   5.023  19.485
   7523SM   C9F 9915   7.352   5.063  19.086
   7523SM   H9F 9916   7.277   5.115  18.894
   7523SM   H9G 9917   7.365   4.959  18.987
   7523SM  C10F 9918   7.486   5.131  19.008
   7523SM  H10F 9919   7.561   5.049  19.011
   7523SM  H10G 9920   7.510   5.194  19.269
   7523SM  C11F 9921   7.506   5.224  18.642
   7523SM  H11F 9922   7.609   5.206  18.537
   7523SM  H11G 9923   7.494   5.331  18.717
   7523SM  C12F 9924   7.433   5.214  18.246
   7523SM  H12F 9925   7.323   5.225  18.258
   7523SM  H12G 9926   7.458   5.116  18.123
   7523SM  C13F 9927   7.488   5.317  17.955
   7523SM  H13F 9928   7.601   5.309  17.979
   7523SM  H13G 9929   7.448   5.417  18.060
   7523SM  C14F 9930   7.439   5.281  17.529
   7523SM  H14F 9931   7.453   5.172  17.520
   7523SM  H14G 9932   7.504   5.330  17.298
   7523SM  C15F 9933   7.288   5.318  17.472
   7523SM  H15F 9934   7.301   5.428  17.472
   7523SM  H15G 9935   7.225   5.296  17.736
   7523SM  C16F 9936   7.207   5.277  17.088
   7523SM  H16F 9937   7.276   5.235  16.860
   7523SM  H16G 9938   7.164   5.370  16.959
   7523SM  C17F 9939   7.089   5.178  17.166
   7523SM  H17F 9940   7.054   5.192  17.478
   7523SM  H17G 9941   7.130   5.076  17.133
   7523SM  C18F 9942   6.961   5.159  16.905
   7523SM  H18F 9943   6.888   5.102  17.091
   7523SM  H18G 9944   6.983   5.090  16.653
   7523SM  C19F 9945   6.894   5.284  16.740
   7523SM  H19F 9946   6.963   5.370  16.767
   7523SM  H19G 9947   6.802   5.308  16.917
   7523SM  C20F 9948   6.858   5.263  16.299
   7523SM  H20F 9949   6.795   5.348  16.197
   7523SM  H20G 9950   6.795   5.172  16.263
   7523SM  C21F 9951   6.983   5.250  16.032
   7523SM  H21F 9952   7.047   5.165  16.128
   7523SM  H21G 9953   7.045   5.342  16.062
   7523SM  C22F 9954   6.942   5.228  15.597
   7523SM  H22F 9955   6.907   5.327  15.495
   7523SM  H22G 9956   6.853   5.161  15.579
   7523SM  C23F 9957   7.050   5.172  15.318
   7523SM  H23F 9958   7.009   5.152  15.012
   7523SM  H23G 9959   7.087   5.075  15.438
   7523SM  H23H 9960   7.134   5.243  15.288
   7623SM     N 9961   0.593   5.969  23.277
   7623SM   C15 9962   0.522   5.841  23.391
   7623SM  H15A 9963   0.447   5.818  23.163
   7623SM  H15B 9964   0.478   5.844  23.685
   7623SM  H15C 9965   0.592   5.758  23.370
   7623SM   C14 9966   0.489   6.076  23.253
   7623SM  H14A 9967   0.422   6.076  23.511
   7623SM  H14B 9968   0.425   6.056  22.995
   7623SM  H14C 9969   0.530   6.175  23.211
   7623SM   C13 9970   0.697   5.996  23.586
   7623SM  H13A 9971   0.758   5.906  23.631
   7623SM  H13B 9972   0.650   6.020  23.871
   7623SM  H13C 9973   0.762   6.078  23.499
   7623SM   C12 9974   0.659   5.944  22.875
   7623SM  H12A 9975   0.715   5.849  22.887
   7623SM  H12B 9976   0.732   6.020  22.800
   7623SM   C11 9977   0.564   5.929  22.518
   7623SM  H11A 9978   0.633   5.933  22.254
   7623SM  H11B 9979   0.497   6.016  22.485
   7623SM     P 9980   0.564   5.674  22.425
   7623SM   O13 9981   0.682   5.660  22.689
   7623SM   O14 9982   0.473   5.557  22.413
   7623SM   O11 9983   0.614   5.708  21.990
   7623SM   O12 9984   0.486   5.808  22.545
   7623SM   C1S 9985   0.531   5.789  21.732
   7623SM   H1S 9986   0.577   5.889  21.690
   7623SM   H1T 9987   0.428   5.806  21.849
   7623SM    NF 9988   0.484   5.584  21.390
   7623SM   HNF 9989   0.553   5.515  21.324
   7623SM   C2S 9990   0.518   5.722  21.324
   7623SM   H2S 9991   0.435   5.770  21.153
   7623SM   C3S 9992   0.651   5.743  21.093
   7623SM   H3S 9993   0.737   5.719  21.288
   7623SM    O3 9994   0.673   5.878  20.976
   7623SM   HO3 9995   0.636   5.930  21.192
   7623SM   C4S 9996   0.656   5.660  20.721
   7623SM   H4S 9997   0.576   5.676  20.499
   7623SM   C5S 9998   0.753   5.571  20.649
   7623SM   H5S 9999   0.835   5.562  20.871
   7623SM   C6S10000   0.771   5.482  20.292
   7623SM   H6S10001   0.737   5.378  20.358
   7623SM   H6T10002   0.881   5.474  20.247
   7623SM   C7S10003   0.711   5.529  19.893
   7623SM   H7S10004   0.700   5.640  19.887
   7623SM   H7T10005   0.610   5.485  19.854
   7623SM   C8S10006   0.805   5.492  19.545
   7623SM   H8S10007   0.836   5.387  19.557
   7623SM   H8T10008   0.894   5.549  19.635
   7623SM   C9S10009   0.757   5.542  19.131
   7623SM   H9S10010   0.806   5.640  19.083
   7623SM   H9T10011   0.650   5.567  19.167
   7623SM  C10S10012   0.777   5.455  18.741
   7623SM  H10S10013   0.710   5.371  18.753
   7623SM  H10T10014   0.876   5.408  18.741
   7623SM  C11S10015   0.742   5.537  18.357
   7623SM  H11S10016   0.774   5.640  18.441
   7623SM  H11T10017   0.633   5.529  18.309
   7623SM  C12S10018   0.801   5.523  17.928
   7623SM  H12S10019   0.892   5.461  17.928
   7623SM  H12T10020   0.828   5.627  17.838
   7623SM  C13S10021   0.711   5.479  17.577
   7623SM  H13S10022   0.623   5.546  17.541
   7623SM  H13T10023   0.670   5.378  17.622
   7623SM  C14S10024   0.792   5.480  17.181
   7623SM  H14S10025   0.867   5.399  17.184
   7623SM  H14T10026   0.848   5.577  17.160
   7623SM  C15S10027   0.703   5.468  16.809
   7623SM  H15S10028   0.642   5.560  16.797
   7623SM  H15T10029   0.633   5.382  16.845
   7623SM  C16S10030   0.783   5.454  16.419
   7623SM  H16S10031   0.832   5.354  16.410
   7623SM  H16T10032   0.864   5.531  16.422
   7623SM  C17S10033   0.699   5.476  16.041
   7623SM  H17S10034   0.733   5.569  15.891
   7623SM  H17T10035   0.594   5.492  16.134
   7623SM  C18S10036   0.699   5.360  15.741
   7623SM  H18S10037   0.658   5.393  15.447
   7623SM  H18T10038   0.633   5.279  15.855
   7623SM  H18U10039   0.801   5.320  15.696
   7623SM   C1F10040   0.367   5.546  21.534
   7623SM    OF10041   0.284   5.624  21.672
   7623SM   C2F10042   0.337   5.402  21.471
   7623SM   H2F10043   0.306   5.350  21.750
   7623SM   H2G10044   0.424   5.347  21.369
   7623SM   C3F10045   0.230   5.399  21.144
   7623SM   H3F10046   0.142   5.455  21.264
   7623SM   H3G10047   0.196   5.296  21.090
   7623SM   C4F10048   0.278   5.465  20.748
   7623SM   H4F10049   0.368   5.527  20.781
   7623SM   H4G10050   0.202   5.539  20.649
   7623SM   C5F10051   0.303   5.368  20.409
   7623SM   H5F10052   0.274   5.264  20.490
   7623SM   H5G10053   0.412   5.369  20.346
   7623SM   C6F10054   0.225   5.410  20.037
   7623SM   H6F10055   0.237   5.520  19.998
   7623SM   H6G10056   0.117   5.388  20.079
   7623SM   C7F10057   0.274   5.336  19.665
   7623SM   H7F10058   0.222   5.238  19.659
   7623SM   H7G10059   0.382   5.319  19.704
   7623SM   C8F10060   0.265   5.410  19.266
   7623SM   H8F10061   0.162   5.451  19.230
   7623SM   H8G10062   0.283   5.340  19.017
   7623SM   C9F10063   0.374   5.518  19.254
   7623SM   H9F10064   0.465   5.485  19.416
   7623SM   H9G10065   0.336   5.604  19.425
   7623SM  C10F10066   0.420   5.564  18.837
   7623SM  H10F10067   0.349   5.529  18.603
   7623SM  H10G10068   0.511   5.507  18.765
   7623SM  C11F10069   0.440   5.718  18.822
   7623SM  H11F10070   0.439   5.759  19.134
   7623SM  H11G10071   0.356   5.763  18.660
   7623SM  C12F10072   0.563   5.767  18.600
   7623SM  H12F10073   0.563   5.706  18.330
   7623SM  H12G10074   0.651   5.749  18.792
   7623SM  C13F10075   0.569   5.912  18.450
   7623SM  H13F10076   0.669   5.952  18.534
   7623SM  H13G10077   0.493   5.973  18.609
   7623SM  C14F10078   0.555   5.929  17.988
   7623SM  H14F10079   0.578   6.034  17.913
   7623SM  H14G10080   0.449   5.909  17.904
   7623SM  C15F10081   0.647   5.839  17.730
   7623SM  H15F10082   0.621   5.733  17.784
   7623SM  H15G10083   0.751   5.852  17.835
   7623SM  C16F10084   0.639   5.857  17.271
   7623SM  H16F10085   0.728   5.806  17.139
   7623SM  H16G10086   0.644   5.964  17.187
   7623SM  C17F10087   0.514   5.789  17.097
   7623SM  H17F10088   0.423   5.839  17.217
   7623SM  H17G10089   0.512   5.684  17.205
   7623SM  C18F10090   0.505   5.784  16.635
   7623SM  H18F10091   0.604   5.764  16.500
   7623SM  H18G10092   0.470   5.883  16.524
   7623SM  C19F10093   0.407   5.675  16.497
   7623SM  H19F10094   0.321   5.671  16.713
   7623SM  H19G10095   0.454   5.575  16.509
   7623SM  C20F10096   0.348   5.699  16.083
   7623SM  H20F10097   0.295   5.797  16.089
   7623SM  H20G10098   0.274   5.618  16.023
   7623SM  C21F10099   0.442   5.703  15.726
   7623SM  H21F10100   0.495   5.606  15.696
   7623SM  H21G10101   0.517   5.784  15.762
   7623SM  C22F10102   0.356   5.726  15.351
   7623SM  H22F10103   0.263   5.667  15.378
   7623SM  H22G10104   0.407   5.685  15.084
   7623SM  C23F10105   0.321   5.874  15.294
   7623SM  H23F10106   0.259   5.886  15.021
   7623SM  H23G10107   0.411   5.938  15.261
   7623SM  H23H10108   0.268   5.915  15.555
   7723SM     N10109   0.296   1.967  23.412
   7723SM   C1510110   0.335   1.831  23.262
   7723SM  H15A10111   0.247   1.767  23.220
   7723SM  H15B10112   0.398   1.779  23.475
   7723SM  H15C10113   0.388   1.838  22.983
   7723SM   C1410114   0.209   1.948  23.775
   7723SM  H14A10115   0.268   1.910  24.024
   7723SM  H14B10116   0.131   1.875  23.709
   7723SM  H14C10117   0.162   2.040  23.865
   7723SM   C1310118   0.421   2.037  23.529
   7723SM  H13A10119   0.481   1.978  23.736
   7723SM  H13B10120   0.401   2.134  23.667
   7723SM  H13C10121   0.482   2.056  23.262
   7723SM   C1210122   0.222   2.043  23.088
   7723SM  H12A10123   0.229   2.148  23.166
   7723SM  H12B10124   0.118   2.013  23.088
   7723SM   C1110125   0.271   2.034  22.653
   7723SM  H11A10126   0.202   2.098  22.470
   7723SM  H11B10127   0.264   1.929  22.545
   7723SM     P10128   0.473   2.098  22.191
   7723SM   O1310129   0.441   2.230  22.020
   7723SM   O1410130   0.615   2.062  22.224
   7723SM   O1110131   0.399   1.989  21.915
   7723SM   O1210132   0.404   2.083  22.620
   7723SM   C1S10133   0.290   2.025  21.660
   7723SM   H1S10134   0.230   2.108  21.786
   7723SM   H1T10135   0.221   1.938  21.633
   7723SM    NF10136   0.224   2.098  20.958
   7723SM   HNF10137   0.218   2.051  20.694
   7723SM   C2S10138   0.335   2.060  21.222
   7723SM   H2S10139   0.405   2.147  21.237
   7723SM   C3S10140   0.414   1.936  21.057
   7723SM   H3S10141   0.350   1.846  21.093
   7723SM    O310142   0.533   1.911  21.276
   7723SM   HO310143   0.511   1.951  21.534
   7723SM   C4S10144   0.451   1.955  20.622
   7723SM   H4S10145   0.525   2.034  20.562
   7723SM   C5S10146   0.406   1.880  20.313
   7723SM   H5S10147   0.340   1.793  20.373
   7723SM   C6S10148   0.440   1.895  19.875
   7723SM   H6S10149   0.345   1.895  19.701
   7723SM   H6T10150   0.495   1.804  19.773
   7723SM   C7S10151   0.520   2.020  19.749
   7723SM   H7S10152   0.617   2.025  19.908
   7723SM   H7T10153   0.460   2.110  19.836
   7723SM   C8S10154   0.545   2.028  19.290
   7723SM   H8S10155   0.566   2.133  19.203
   7723SM   H8T10156   0.450   1.998  19.137
   7723SM   C9S10157   0.660   1.938  19.143
   7723SM   H9S10158   0.663   1.854  19.362
   7723SM   H9T10159   0.758   1.989  19.170
   7723SM  C10S10160   0.639   1.872  18.729
   7723SM  H10S10161   0.530   1.860  18.687
   7723SM  H10T10162   0.688   1.771  18.744
   7723SM  C11S10163   0.688   1.939  18.345
   7723SM  H11S10164   0.798   1.956  18.354
   7723SM  H11T10165   0.640   2.039  18.324
   7723SM  C12S10166   0.652   1.854  17.970
   7723SM  H12S10167   0.546   1.823  17.988
   7723SM  H12T10168   0.716   1.764  17.955
   7723SM  C13S10169   0.668   1.941  17.598
   7723SM  H13S10170   0.773   1.973  17.595
   7723SM  H13T10171   0.604   2.028  17.679
   7723SM  C14S10172   0.623   1.901  17.172
   7723SM  H14S10173   0.559   1.986  17.076
   7723SM  H14T10174   0.558   1.814  17.178
   7723SM  C15S10175   0.727   1.904  16.824
   7723SM  H15S10176   0.807   1.828  16.857
   7723SM  H15T10177   0.775   2.004  16.824
   7723SM  C16S10178   0.655   1.888  16.419
   7723SM  H16S10179   0.548   1.906  16.488
   7723SM  H16T10180   0.664   1.784  16.302
   7723SM  C17S10181   0.680   1.988  16.080
   7723SM  H17S10182   0.788   2.011  16.047
   7723SM  H17T10183   0.627   2.082  16.167
   7723SM  C18S10184   0.622   1.939  15.681
   7723SM  H18S10185   0.701   1.897  15.483
   7723SM  H18T10186   0.570   2.021  15.522
   7723SM  H18U10187   0.546   1.859  15.735
   7723SM   C1F10188   0.151   2.208  21.009
   7723SM    OF10189   0.136   2.264  21.330
   7723SM   C2F10190   0.088   2.261  20.637
   7723SM   H2F10191  -0.016   2.287  20.706
   7723SM   H2G10192   0.087   2.181  20.406
   7723SM   C3F10193   0.162   2.388  20.496
   7723SM   H3F10194   0.269   2.361  20.454
   7723SM   H3G10195   0.157   2.466  20.733
   7723SM   C4F10196   0.108   2.443  20.100
   7723SM   H4F10197   0.165   2.533  20.007
   7723SM   H4G10198   0.000   2.470  20.127
   7723SM   C5F10199   0.122   2.336  19.773
   7723SM   H5F10200   0.045   2.259  19.827
   7723SM   H5G10201   0.223   2.290  19.806
   7723SM   C6F10202   0.106   2.386  19.344
   7723SM   H6F10203   0.179   2.465  19.272
   7723SM   H6G10204   0.009   2.438  19.311
   7723SM   C7F10205   0.114   2.270  19.038
   7723SM   H7F10206   0.174   2.301  18.774
   7723SM   H7G10207   0.011   2.252  18.924
   7723SM   C8F10208   0.167   2.136  19.203
   7723SM   H8F10209   0.106   2.106  19.464
   7723SM   H8G10210   0.273   2.145  19.302
   7723SM   C9F10211   0.153   2.024  18.897
   7723SM   H9F10212   0.238   2.026  18.684
   7723SM   H9G10213   0.059   2.043  18.723
   7723SM  C10F10214   0.139   1.885  19.089
   7723SM  H10F10215   0.078   1.891  19.368
   7723SM  H10G10216   0.239   1.845  19.170
   7723SM  C11F10217   0.069   1.790  18.801
   7723SM  H11F10218  -0.027   1.836  18.705
   7723SM  H11G10219   0.046   1.693  18.948
   7723SM  C12F10220   0.155   1.763  18.429
   7723SM  H12F10221   0.236   1.694  18.507
   7723SM  H12G10222   0.202   1.857  18.318
   7723SM  C13F10223   0.070   1.708  18.096
   7723SM  H13F10224  -0.035   1.702  18.207
   7723SM  H13G10225   0.100   1.603  18.021
   7723SM  C14F10226   0.072   1.803  17.733
   7723SM  H14F10227   0.171   1.852  17.700
   7723SM  H14G10228  -0.004   1.881  17.793
   7723SM  C15F10229   0.047   1.722  17.355
   7723SM  H15F10230  -0.054   1.676  17.373
   7723SM  H15G10231   0.118   1.638  17.385
   7723SM  C16F10232   0.071   1.773  16.926
   7723SM  H16F10233  -0.024   1.795  16.773
   7723SM  H16G10234   0.111   1.683  16.773
   7723SM  C17F10235   0.173   1.883  16.818
   7723SM  H17F10236   0.263   1.882  17.010
   7723SM  H17G10237   0.125   1.981  16.866
   7723SM  C18F10238   0.212   1.863  16.371
   7723SM  H18F10239   0.118   1.848  16.203
   7723SM  H18G10240   0.267   1.767  16.338
   7723SM  C19F10241   0.292   1.976  16.176
   7723SM  H19F10242   0.397   1.945  16.131
   7723SM  H19G10243   0.289   2.058  16.395
   7723SM  C20F10244   0.243   2.042  15.783
   7723SM  H20F10245   0.320   2.112  15.669
   7723SM  H20G10246   0.157   2.106  15.876
   7723SM  C21F10247   0.194   1.952  15.441
   7723SM  H21F10248   0.094   1.993  15.363
   7723SM  H21G10249   0.181   1.847  15.537
   7723SM  C22F10250   0.270   1.959  15.042
   7723SM  H22F10251   0.358   1.892  15.051
   7723SM  H22G10252   0.306   2.063  14.997
   7723SM  C23F10253   0.179   1.922  14.685
   7723SM  H23F10254   0.143   1.818  14.715
   7723SM  H23G10255   0.233   1.932  14.397
   7723SM  H23H10256   0.090   1.989  14.676
   7823SM     N10257   1.245   7.111  23.379
   7823SM   C1510258   1.355   7.011  23.319
   7823SM  H15A10259   1.369   6.993  22.998
   7823SM  H15B10260   1.330   6.916  23.454
   7823SM  H15C10261   1.448   7.046  23.451
   7823SM   C1410262   1.116   7.057  23.217
   7823SM  H14A10263   1.125   7.046  22.893
   7823SM  H14B10264   1.033   7.123  23.274
   7823SM  H14C10265   1.093   6.958  23.334
   7823SM   C1310266   1.231   7.134  23.820
   7823SM  H13A10267   1.192   7.044  23.964
   7823SM  H13B10268   1.164   7.215  23.895
   7823SM  H13C10269   1.329   7.153  23.949
   7823SM   C1210270   1.279   7.240  23.157
   7823SM  H12A10271   1.363   7.289  23.298
   7823SM  H12B10272   1.195   7.308  23.172
   7823SM   C1110273   1.314   7.227  22.704
   7823SM  H11A10274   1.409   7.168  22.677
   7823SM  H11B10275   1.338   7.330  22.593
   7823SM     P10276   1.230   7.061  22.155
   7823SM   O1310277   1.280   6.944  22.380
   7823SM   O1410278   1.111   7.039  21.900
   7823SM   O1110279   1.343   7.121  21.873
   7823SM   O1210280   1.206   7.177  22.473
   7823SM   C1S10281   1.340   7.259  21.759
   7823SM   H1S10282   1.433   7.306  21.879
   7823SM   H1T10283   1.254   7.316  21.891
   7823SM    NF10284   1.206   7.264  21.132
   7823SM   HNF10285   1.192   7.181  20.973
   7823SM   C2S10286   1.340   7.279  21.297
   7823SM   H2S10287   1.373   7.384  21.237
   7823SM   C3S10288   1.441   7.181  21.096
   7823SM   H3S10289   1.411   7.075  21.144
   7823SM    O310290   1.578   7.195  21.225
   7823SM   HO310291   1.583   7.284  21.330
   7823SM   C4S10292   1.441   7.211  20.652
   7823SM   H4S10293   1.469   7.315  20.586
   7823SM   C5S10294   1.414   7.127  20.346
   7823SM   H5S10295   1.390   7.021  20.412
   7823SM   C6S10296   1.415   7.164  19.905
   7823SM   H6S10297   1.322   7.125  19.761
   7823SM   H6T10298   1.500   7.117  19.749
   7823SM   C7S10299   1.416   7.315  19.803
   7823SM   H7S10300   1.510   7.363  19.908
   7823SM   H7T10301   1.333   7.366  19.965
   7823SM   C8S10302   1.398   7.340  19.350
   7823SM   H8S10303   1.300   7.301  19.254
   7823SM   H8T10304   1.476   7.290  19.167
   7823SM   C9S10305   1.403   7.490  19.266
   7823SM   H9S10306   1.507   7.525  19.299
   7823SM   H9T10307   1.346   7.542  19.506
   7823SM  C10S10308   1.345   7.534  18.864
   7823SM  H10S10309   1.364   7.641  18.849
   7823SM  H10T10310   1.236   7.521  18.843
   7823SM  C11S10311   1.397   7.479  18.471
   7823SM  H11S10312   1.358   7.377  18.408
   7823SM  H11T10313   1.507   7.474  18.468
   7823SM  C12S10314   1.354   7.578  18.150
   7823SM  H12S10315   1.393   7.679  18.228
   7823SM  H12T10316   1.243   7.585  18.132
   7823SM  C13S10317   1.414   7.541  17.751
   7823SM  H13S10318   1.373   7.443  17.655
   7823SM  H13T10319   1.524   7.532  17.784
   7823SM  C14S10320   1.385   7.645  17.430
   7823SM  H14S10321   1.420   7.746  17.523
   7823SM  H14T10322   1.274   7.651  17.394
   7823SM  C15S10323   1.455   7.602  17.046
   7823SM  H15S10324   1.490   7.497  17.091
   7823SM  H15T10325   1.545   7.664  16.989
   7823SM  C16S10326   1.358   7.601  16.692
   7823SM  H16S10327   1.383   7.686  16.491
   7823SM  H16T10328   1.255   7.618  16.803
   7823SM  C17S10329   1.352   7.468  16.458
   7823SM  H17S10330   1.272   7.404  16.587
   7823SM  H17T10331   1.448   7.412  16.473
   7823SM  C18S10332   1.324   7.497  16.023
   7823SM  H18S10333   1.327   7.410  15.819
   7823SM  H18T10334   1.410   7.558  15.936
   7823SM  H18U10335   1.230   7.555  15.984
   7823SM   C1F10336   1.101   7.340  21.210
   7823SM    OF10337   1.104   7.437  21.438
   7823SM   C2F10338   0.972   7.292  21.018
   7823SM   H2F10339   0.903   7.267  21.267
   7823SM   H2G10340   0.992   7.198  20.853
   7823SM   C3F10341   0.905   7.391  20.724
   7823SM   H3F10342   0.889   7.489  20.868
   7823SM   H3G10343   0.806   7.349  20.631
   7823SM   C4F10344   0.982   7.413  20.331
   7823SM   H4F10345   1.001   7.315  20.178
   7823SM   H4G10346   1.082   7.458  20.400
   7823SM   C5F10347   0.906   7.506  20.046
   7823SM   H5F10348   0.856   7.586  20.223
   7823SM   H5G10349   0.827   7.448  19.884
   7823SM   C6F10350   0.999   7.576  19.749
   7823SM   H6F10351   1.084   7.620  19.917
   7823SM   H6G10352   0.946   7.659  19.593
   7823SM   C7F10353   1.054   7.481  19.431
   7823SM   H7F10354   1.093   7.387  19.566
   7823SM   H7G10355   1.140   7.538  19.314
   7823SM   C8F10356   0.955   7.453  19.092
   7823SM   H8F10357   0.917   7.550  18.975
   7823SM   H8G10358   0.869   7.397  19.224
   7823SM   C9F10359   1.008   7.371  18.732
   7823SM   H9F10360   1.094   7.420  18.588
   7823SM   H9G10361   0.931   7.365  18.492
   7823SM  C10F10362   1.042   7.228  18.852
   7823SM  H10F10363   0.948   7.175  18.939
   7823SM  H10G10364   1.108   7.229  19.122
   7823SM  C11F10365   1.112   7.149  18.525
   7823SM  H11F10366   1.206   7.202  18.441
   7823SM  H11G10367   1.049   7.146  18.249
   7823SM  C12F10368   1.143   7.008  18.675
   7823SM  H12F10369   1.050   6.951  18.735
   7823SM  H12G10370   1.198   7.019  18.963
   7823SM  C13F10371   1.233   6.930  18.390
   7823SM  H13F10372   1.299   6.861  18.564
   7823SM  H13G10373   1.298   7.004  18.246
   7823SM  C14F10374   1.160   6.848  18.069
   7823SM  H14F10375   1.099   6.771  18.225
   7823SM  H14G10376   1.238   6.795  17.889
   7823SM  C15F10377   1.071   6.924  17.772
   7823SM  H15F10378   1.129   7.004  17.625
   7823SM  H15G10379   0.984   6.970  17.928
   7823SM  C16F10380   1.019   6.827  17.451
   7823SM  H16F10381   0.951   6.753  17.595
   7823SM  H16G10382   1.106   6.768  17.343
   7823SM  C17F10383   0.945   6.895  17.103
   7823SM  H17F10384   0.894   6.987  17.211
   7823SM  H17G10385   0.866   6.825  16.998
   7823SM  C18F10386   1.034   6.926  16.737
   7823SM  H18F10387   1.113   6.999  16.815
   7823SM  H18G10388   0.971   6.970  16.497
   7823SM  C19F10389   1.096   6.795  16.587
   7823SM  H19F10390   1.015   6.718  16.590
   7823SM  H19G10391   1.178   6.762  16.788
   7823SM  C20F10392   1.153   6.795  16.164
   7823SM  H20F10393   1.238   6.865  16.134
   7823SM  H20G10394   1.074   6.827  15.948
   7823SM  C21F10395   1.196   6.651  16.071
   7823SM  H21F10396   1.121   6.578  16.182
   7823SM  H21G10397   1.293   6.630  16.218
   7823SM  C22F10398   1.207   6.635  15.621
   7823SM  H22F10399   1.275   6.718  15.546
   7823SM  H22G10400   1.111   6.659  15.471
   7823SM  C23F10401   1.260   6.502  15.465
   7823SM  H23F10402   1.185   6.422  15.510
   7823SM  H23G10403   1.354   6.472  15.621
   7823SM  H23H10404   1.281   6.510  15.141
   7923SM     N10405   6.854   0.513  23.400
   7923SM   C1510406   6.799   0.645  23.538
   7923SM  H15A10407   6.714   0.635  23.733
   7923SM  H15B10408   6.774   0.705  23.277
   7923SM  H15C10409   6.871   0.705  23.703
   7923SM   C1410410   6.960   0.535  23.091
   7923SM  H14A10411   6.975   0.442  22.923
   7923SM  H14B10412   7.057   0.565  23.202
   7923SM  H14C10413   6.925   0.604  22.860
   7923SM   C1310414   6.910   0.438  23.748
   7923SM  H13A10415   6.964   0.350  23.637
   7923SM  H13B10416   6.833   0.400  23.949
   7923SM  H13C10417   6.980   0.497  23.919
   7923SM   C1210418   6.743   0.430  23.205
   7923SM  H12A10419   6.674   0.396  23.430
   7923SM  H12B10420   6.788   0.339  23.079
   7923SM   C1110421   6.665   0.495  22.857
   7923SM  H11A10422   6.636   0.599  22.938
   7923SM  H11B10423   6.569   0.441  22.803
   7923SM     P10424   6.761   0.364  22.254
   7923SM   O1310425   6.792   0.253  22.536
   7923SM   O1410426   6.642   0.349  21.993
   7923SM   O1110427   6.892   0.383  21.999
   7923SM   O1210428   6.745   0.498  22.503
   7923SM   C1S10429   6.939   0.509  21.849
   7923SM   H1S10430   7.050   0.509  21.861
   7923SM   H1T10431   6.907   0.595  22.041
   7923SM    NF10432   6.757   0.572  21.405
   7923SM   HNF10433   6.691   0.500  21.465
   7923SM   C2S10434   6.896   0.532  21.405
   7923SM   H2S10435   6.958   0.613  21.276
   7923SM   C3S10436   6.927   0.403  21.159
   7923SM   H3S10437   6.879   0.315  21.300
   7923SM    O310438   7.067   0.375  21.135
   7923SM   HO310439   7.107   0.420  21.357
   7923SM   C4S10440   6.878   0.411  20.730
   7923SM   H4S10441   6.786   0.354  20.676
   7923SM   C5S10442   6.935   0.475  20.418
   7923SM   H5S10443   7.029   0.531  20.463
   7923SM   C6S10444   6.880   0.473  19.998
   7923SM   H6S10445   6.818   0.563  19.941
   7923SM   H6T10446   6.816   0.383  19.947
   7923SM   C7S10447   6.997   0.467  19.698
   7923SM   H7S10448   7.053   0.371  19.734
   7923SM   H7T10449   7.067   0.550  19.767
   7923SM   C8S10450   6.956   0.480  19.254
   7923SM   H8S10451   6.858   0.532  19.242
   7923SM   H8T10452   6.943   0.380  19.110
   7923SM   C9S10453   7.058   0.566  19.023
   7923SM   H9S10454   7.158   0.517  19.008
   7923SM   H9T10455   7.070   0.657  19.218
   7923SM  C10S10456   7.013   0.615  18.606
   7923SM  H10S10457   7.034   0.724  18.591
   7923SM  H10T10458   6.903   0.604  18.576
   7923SM  C11S10459   7.077   0.551  18.231
   7923SM  H11S10460   7.041   0.446  18.216
   7923SM  H11T10461   7.188   0.549  18.243
   7923SM  C12S10462   7.033   0.631  17.856
   7923SM  H12S10463   7.112   0.697  17.739
   7923SM  H12T10464   6.956   0.702  17.961
   7923SM  C13S10465   6.975   0.542  17.523
   7923SM  H13S10466   6.913   0.472  17.694
   7923SM  H13T10467   7.056   0.487  17.367
   7923SM  C14S10468   6.883   0.611  17.217
   7923SM  H14S10469   6.952   0.653  16.995
   7923SM  H14T10470   6.830   0.694  17.361
   7923SM  C15S10471   6.785   0.530  16.956
   7923SM  H15S10472   6.709   0.476  17.139
   7923SM  H15T10473   6.838   0.455  16.770
   7923SM  C16S10474   6.717   0.626  16.662
   7923SM  H16S10475   6.794   0.692  16.527
   7923SM  H16T10476   6.651   0.693  16.839
   7923SM  C17S10477   6.642   0.554  16.320
   7923SM  H17S10478   6.566   0.486  16.452
   7923SM  H17T10479   6.715   0.491  16.155
   7923SM  C18S10480   6.575   0.647  16.020
   7923SM  H18S10481   6.650   0.716  15.885
   7923SM  H18T10482   6.497   0.712  16.152
   7923SM  H18U10483   6.526   0.589  15.777
   7923SM   C1F10484   6.733   0.697  21.525
   7923SM    OF10485   6.825   0.772  21.606
   7923SM   C2F10486   6.592   0.742  21.555
   7923SM   H2F10487   6.576   0.792  21.849
   7923SM   H2G10488   6.522   0.657  21.525
   7923SM   C3F10489   6.574   0.844  21.216
   7923SM   H3F10490   6.639   0.932  21.273
   7923SM   H3G10491   6.471   0.882  21.222
   7923SM   C4F10492   6.610   0.788  20.799
   7923SM   H4F10493   6.720   0.779  20.760
   7923SM   H4G10494   6.573   0.860  20.571
   7923SM   C5F10495   6.543   0.656  20.691
   7923SM   H5F10496   6.447   0.650  20.856
   7923SM   H5G10497   6.604   0.569  20.784
   7923SM   C6F10498   6.517   0.649  20.241
   7923SM   H6F10499   6.613   0.662  20.079
   7923SM   H6G10500   6.450   0.734  20.154
   7923SM   C7F10501   6.454   0.518  20.100
   7923SM   H7F10502   6.351   0.508  20.220
   7923SM   H7G10503   6.512   0.432  20.220
   7923SM   C8F10504   6.451   0.515  19.641
   7923SM   H8F10505   6.453   0.618  19.521
   7923SM   H8G10506   6.356   0.470  19.533
   7923SM   C9F10507   6.569   0.437  19.467
   7923SM   H9F10508   6.616   0.375  19.707
   7923SM   H9G10509   6.647   0.510  19.371
   7923SM  C10F10510   6.530   0.344  19.119
   7923SM  H10F10511   6.434   0.293  19.179
   7923SM  H10G10512   6.609   0.266  19.086
   7923SM  C11F10513   6.527   0.429  18.738
   7923SM  H11F10514   6.632   0.461  18.711
   7923SM  H11G10515   6.459   0.515  18.801
   7923SM  C12F10516   6.487   0.368  18.336
   7923SM  H12F10517   6.457   0.452  18.132
   7923SM  H12G10518   6.396   0.306  18.384
   7923SM  C13F10519   6.592   0.284  18.108
   7923SM  H13F10520   6.560   0.286  17.790
   7923SM  H13G10521   6.586   0.180  18.225
   7923SM  C14F10522   6.739   0.325  18.081
   7923SM  H14F10523   6.779   0.351  18.381
   7923SM  H14G10524   6.745   0.416  17.892
   7923SM  C15F10525   6.824   0.213  17.883
   7923SM  H15F10526   6.761   0.121  17.886
   7923SM  H15G10527   6.912   0.194  18.078
   7923SM  C16F10528   6.871   0.235  17.445
   7923SM  H16F10529   6.952   0.309  17.433
   7923SM  H16G10530   6.786   0.269  17.256
   7923SM  C17F10531   6.944   0.119  17.238
   7923SM  H17F10532   6.877   0.032  17.265
   7923SM  H17G10533   7.039   0.099  17.403
   7923SM  C18F10534   6.975   0.134  16.782
   7923SM  H18F10535   6.877   0.136  16.623
   7923SM  H18G10536   7.029   0.042  16.692
   7923SM  C19F10537   7.054   0.257  16.629
   7923SM  H19F10538   7.131   0.289  16.851
   7923SM  H19G10539   6.983   0.341  16.590
   7923SM  C20F10540   7.120   0.240  16.209
   7923SM  H20F10541   7.203   0.166  16.227
   7923SM  H20G10542   7.165   0.337  16.119
   7923SM  C21F10543   7.021   0.197  15.882
   7923SM  H21F10544   6.944   0.276  15.834
   7923SM  H21G10545   6.969   0.108  16.002
   7923SM  C22F10546   7.084   0.156  15.477
   7923SM  H22F10547   7.011   0.091  15.318
   7923SM  H22G10548   7.174   0.094  15.531
   7923SM  C23F10549   7.118   0.272  15.195
   7923SM  H23F10550   7.161   0.232  14.916
   7923SM  H23G10551   7.193   0.341  15.327
   7923SM  H23H10552   7.027   0.329  15.111
   8023SM     N10553   0.596   0.524  23.196
   8023SM   C1510554   0.702   0.570  23.481
   8023SM  H15A10555   0.758   0.484  23.589
   8023SM  H15B10556   0.659   0.619  23.745
   8023SM  H15C10557   0.771   0.639  23.340
   8023SM   C1410558   0.654   0.446  22.848
   8023SM  H14A10559   0.717   0.504  22.653
   8023SM  H14B10560   0.572   0.411  22.653
   8023SM  H14C10561   0.707   0.356  22.944
   8023SM   C1310562   0.506   0.426  23.397
   8023SM  H13A10563   0.560   0.332  23.442
   8023SM  H13B10564   0.422   0.399  23.199
   8023SM  H13C10565   0.467   0.459  23.679
   8023SM   C1210566   0.524   0.643  23.025
   8023SM  H12A10567   0.588   0.690  22.803
   8023SM  H12B10568   0.507   0.717  23.259
   8023SM   C1110569   0.389   0.615  22.821
   8023SM  H11A10570   0.362   0.711  22.677
   8023SM  H11B10571   0.312   0.591  23.049
   8023SM     P10572   0.310   0.390  22.476
   8023SM   O1310573   0.397   0.275  22.431
   8023SM   O1410574   0.216   0.386  22.818
   8023SM   O1110575   0.227   0.420  22.077
   8023SM   O1210576   0.400   0.517  22.521
   8023SM   C1S10577   0.294   0.486  21.753
   8023SM   H1S10578   0.378   0.551  21.846
   8023SM   H1T10579   0.223   0.555  21.603
   8023SM    NF10580   0.470   0.417  21.261
   8023SM   HNF10581   0.475   0.408  20.964
   8023SM   C2S10582   0.343   0.380  21.447
   8023SM   H2S10583   0.360   0.283  21.600
   8023SM   C3S10584   0.226   0.365  21.138
   8023SM   H3S10585   0.195   0.464  21.024
   8023SM    O310586   0.110   0.312  21.336
   8023SM   HO310587   0.108   0.361  21.588
   8023SM   C4S10588   0.266   0.277  20.787
   8023SM   H4S10589   0.294   0.174  20.865
   8023SM   C5S10590   0.270   0.314  20.394
   8023SM   H5S10591   0.242   0.418  20.307
   8023SM   C6S10592   0.311   0.225  20.046
   8023SM   H6S10593   0.221   0.179  19.908
   8023SM   H6T10594   0.376   0.142  20.151
   8023SM   C7S10595   0.386   0.297  19.701
   8023SM   H7S10596   0.479   0.343  19.821
   8023SM   H7T10597   0.320   0.376  19.578
   8023SM   C8S10598   0.426   0.209  19.341
   8023SM   H8S10599   0.341   0.141  19.275
   8023SM   H8T10600   0.516   0.151  19.431
   8023SM   C9S10601   0.460   0.283  18.948
   8023SM   H9S10602   0.537   0.361  19.005
   8023SM   H9T10603   0.369   0.334  18.837
   8023SM  C10S10604   0.514   0.189  18.621
   8023SM  H10S10605   0.452   0.097  18.609
   8023SM  H10T10606   0.618   0.160  18.705
   8023SM  C11S10607   0.520   0.251  18.198
   8023SM  H11S10608   0.574   0.347  18.228
   8023SM  H11T10609   0.416   0.269  18.084
   8023SM  C12S10610   0.600   0.172  17.886
   8023SM  H12S10611   0.639   0.081  18.036
   8023SM  H12T10612   0.688   0.232  17.784
   8023SM  C13S10613   0.520   0.129  17.520
   8023SM  H13S10614   0.416   0.102  17.604
   8023SM  H13T10615   0.570   0.036  17.412
   8023SM  C14S10616   0.518   0.222  17.157
   8023SM  H14S10617   0.613   0.279  17.136
   8023SM  H14T10618   0.434   0.295  17.184
   8023SM  C15S10619   0.502   0.134  16.779
   8023SM  H15S10620   0.410   0.073  16.821
   8023SM  H15T10621   0.589   0.066  16.758
   8023SM  C16S10622   0.484   0.208  16.383
   8023SM  H16S10623   0.560   0.288  16.344
   8023SM  H16T10624   0.383   0.251  16.407
   8023SM  C17S10625   0.479   0.114  16.020
   8023SM  H17S10626   0.404   0.035  16.083
   8023SM  H17T10627   0.578   0.066  15.987
   8023SM  C18S10628   0.440   0.184  15.630
   8023SM  H18S10629   0.478   0.126  15.369
   8023SM  H18T10630   0.480   0.287  15.618
   8023SM  H18U10631   0.330   0.190  15.597
   8023SM   C1F10632   0.584   0.444  21.453
   8023SM    OF10633   0.595   0.455  21.816
   8023SM   C2F10634   0.705   0.464  21.198
   8023SM   H2F10635   0.681   0.441  20.880
   8023SM   H2G10636   0.784   0.395  21.300
   8023SM   C3F10637   0.753   0.610  21.240
   8023SM   H3F10638   0.835   0.626  21.021
   8023SM   H3G10639   0.796   0.625  21.546
   8023SM   C4F10640   0.642   0.715  21.174
   8023SM   H4F10641   0.689   0.816  21.177
   8023SM   H4G10642   0.571   0.711  21.432
   8023SM   C5F10643   0.563   0.698  20.778
   8023SM   H5F10644   0.483   0.774  20.760
   8023SM   H5G10645   0.508   0.602  20.772
   8023SM   C6F10646   0.655   0.708  20.409
   8023SM   H6F10647   0.717   0.617  20.385
   8023SM   H6G10648   0.724   0.795  20.454
   8023SM   C7F10649   0.577   0.728  20.019
   8023SM   H7F10650   0.646   0.762  19.779
   8023SM   H7G10651   0.503   0.810  20.076
   8023SM   C8F10652   0.504   0.602  19.875
   8023SM   H8F10653   0.455   0.553  20.139
   8023SM   H8G10654   0.575   0.529  19.743
   8023SM   C9F10655   0.391   0.635  19.575
   8023SM   H9F10656   0.362   0.735  19.668
   8023SM   H9G10657   0.302   0.571  19.623
   8023SM  C10F10658   0.427   0.643  19.128
   8023SM  H10F10659   0.500   0.563  19.056
   8023SM  H10G10660   0.477   0.741  19.080
   8023SM  C11F10661   0.305   0.633  18.843
   8023SM  H11F10662   0.229   0.708  18.936
   8023SM  H11G10663   0.257   0.533  18.870
   8023SM  C12F10664   0.337   0.659  18.393
   8023SM  H12F10665   0.407   0.744  18.393
   8023SM  H12G10666   0.244   0.689  18.234
   8023SM  C13F10667   0.399   0.538  18.183
   8023SM  H13F10668   0.324   0.456  18.183
   8023SM  H13G10669   0.481   0.510  18.390
   8023SM  C14F10670   0.461   0.548  17.757
   8023SM  H14F10671   0.521   0.456  17.700
   8023SM  H14G10672   0.532   0.631  17.736
   8023SM  C15F10673   0.367   0.562  17.397
   8023SM  H15F10674   0.312   0.657  17.433
   8023SM  H15G10675   0.296   0.477  17.391
   8023SM  C16F10676   0.440   0.573  16.989
   8023SM  H16F10677   0.507   0.487  16.938
   8023SM  H16G10678   0.502   0.665  17.001
   8023SM  C17F10679   0.340   0.591  16.641
   8023SM  H17F10680   0.395   0.622  16.365
   8023SM  H17G10681   0.277   0.675  16.734
   8023SM  C18F10682   0.255   0.467  16.539
   8023SM  H18F10683   0.249   0.399  16.803
   8023SM  H18G10684   0.313   0.418  16.296
   8023SM  C19F10685   0.113   0.481  16.353
   8023SM  H19F10686   0.117   0.522  16.053
   8023SM  H19G10687   0.045   0.548  16.512
   8023SM  C20F10688   0.035   0.349  16.323
   8023SM  H20F10689  -0.072   0.375  16.284
   8023SM  H20G10690   0.048   0.295  16.608
   8023SM  C21F10691   0.081   0.265  15.963
   8023SM  H21F10692   0.052   0.159  16.008
   8023SM  H21G10693   0.192   0.270  15.957
   8023SM  C22F10694   0.023   0.314  15.561
   8023SM  H22F10695   0.014   0.425  15.576
   8023SM  H22G10696  -0.081   0.276  15.528
   8023SM  C23F10697   0.105   0.277  15.189
   8023SM  H23F10698   0.208   0.317  15.207
   8023SM  H23G10699   0.058   0.320  14.916
   8023SM  H23H10700   0.112   0.167  15.150
   8123SM     N10701   3.413   3.757   6.612
   8123SM   C1510702   3.325   3.636   6.630
   8123SM  H15A10703   3.374   3.552   6.480
   8123SM  H15B10704   3.229   3.655   6.498
   8123SM  H15C10705   3.310   3.606   6.942
   8123SM   C1410706   3.443   3.790   6.183
   8123SM  H14A10707   3.524   3.861   6.153
   8123SM  H14B10708   3.357   3.829   6.024
   8123SM  H14C10709   3.467   3.699   6.018
   8123SM   C1310710   3.346   3.872   6.816
   8123SM  H13A10711   3.249   3.893   6.687
   8123SM  H13B10712   3.408   3.960   6.801
   8123SM  H13C10713   3.334   3.851   7.134
   8123SM   C1210714   3.543   3.726   6.834
   8123SM  H12A10715   3.602   3.817   6.858
   8123SM  H12B10716   3.600   3.654   6.660
   8123SM   C1110717   3.532   3.671   7.269
   8123SM  H11A10718   3.636   3.649   7.380
   8123SM  H11B10719   3.479   3.574   7.266
   8123SM     P10720   3.544   3.884   7.710
   8123SM   O1310721   3.669   3.900   7.476
   8123SM   O1410722   3.458   4.005   7.716
   8123SM   O1110723   3.574   3.833   8.154
   8123SM   O1210724   3.463   3.763   7.524
   8123SM   C1S10725   3.479   3.747   8.355
   8123SM   H1S10726   3.473   3.648   8.202
   8123SM   H1T10727   3.377   3.792   8.349
   8123SM    NF10728   3.394   3.663   9.021
   8123SM   HNF10729   3.360   3.720   9.243
   8123SM   C2S10730   3.511   3.717   8.808
   8123SM   H2S10731   3.592   3.641   8.820
   8123SM   C3S10732   3.563   3.847   9.021
   8123SM   H3S10733   3.481   3.923   9.018
   8123SM    O310734   3.678   3.908   8.850
   8123SM   HO310735   3.684   3.867   8.589
   8123SM   C4S10736   3.594   3.818   9.456
   8123SM   H4S10737   3.526   3.871   9.660
   8123SM   C5S10738   3.692   3.742   9.615
   8123SM   H5S10739   3.761   3.688   9.414
   8123SM   C6S10740   3.713   3.722  10.062
   8123SM   H6S10741   3.823   3.720  10.122
   8123SM   H6T10742   3.674   3.623  10.158
   8123SM   C7S10743   3.652   3.833  10.329
   8123SM   H7S10744   3.542   3.838  10.287
   8123SM   H7T10745   3.696   3.931  10.236
   8123SM   C8S10746   3.678   3.815  10.779
   8123SM   H8S10747   3.786   3.795  10.830
   8123SM   H8T10748   3.620   3.728  10.890
   8123SM   C9S10749   3.638   3.941  11.016
   8123SM   H9S10750   3.534   3.970  10.935
   8123SM   H9T10751   3.706   4.024  10.923
   8123SM  C10S10752   3.647   3.926  11.475
   8123SM  H10S10753   3.661   4.027  11.610
   8123SM  H10T10754   3.735   3.864  11.559
   8123SM  C11S10755   3.519   3.866  11.655
   8123SM  H11S10756   3.521   3.756  11.601
   8123SM  H11T10757   3.430   3.907  11.499
   8123SM  C12S10758   3.500   3.890  12.105
   8123SM  H12S10759   3.404   3.842  12.198
   8123SM  H12T10760   3.489   3.999  12.165
   8123SM  C13S10761   3.614   3.834  12.363
   8123SM  H13S10762   3.705   3.895  12.318
   8123SM  H13T10763   3.637   3.730  12.261
   8123SM  C14S10764   3.575   3.830  12.807
   8123SM  H14S10765   3.491   3.758  12.843
   8123SM  H14T10766   3.540   3.930  12.906
   8123SM  C15S10767   3.691   3.784  13.071
   8123SM  H15S10768   3.769   3.863  13.095
   8123SM  H15T10769   3.738   3.695  12.921
   8123SM  C16S10770   3.645   3.737  13.485
   8123SM  H16S10771   3.727   3.675  13.614
   8123SM  H16T10772   3.555   3.673  13.443
   8123SM  C17S10773   3.610   3.845  13.791
   8123SM  H17S10774   3.522   3.904  13.680
   8123SM  H17T10775   3.696   3.915  13.824
   8123SM  C18S10776   3.577   3.782  14.196
   8123SM  H18S10777   3.666   3.727  14.313
   8123SM  H18T10778   3.495   3.708  14.163
   8123SM  H18U10779   3.546   3.858  14.421
   8123SM   C1F10780   3.327   3.548   8.961
   8123SM    OF10781   3.348   3.478   8.667
   8123SM   C2F10782   3.218   3.517   9.261
   8123SM   H2F10783   3.134   3.469   9.096
   8123SM   H2G10784   3.178   3.611   9.390
   8123SM   C3F10785   3.262   3.423   9.606
   8123SM   H3F10786   3.310   3.332   9.486
   8123SM   H3G10787   3.172   3.390   9.777
   8123SM   C4F10788   3.361   3.481   9.912
   8123SM   H4F10789   3.450   3.525   9.759
   8123SM   H4G10790   3.399   3.396  10.095
   8123SM   C5F10791   3.297   3.581  10.197
   8123SM   H5F10792   3.193   3.548  10.272
   8123SM   H5G10793   3.290   3.681  10.050
   8123SM   C6F10794   3.375   3.592  10.590
   8123SM   H6F10795   3.483   3.605  10.512
   8123SM   H6G10796   3.368   3.496  10.761
   8123SM   C7F10797   3.329   3.709  10.848
   8123SM   H7F10798   3.326   3.801  10.662
   8123SM   H7G10799   3.405   3.726  11.082
   8123SM   C8F10800   3.192   3.688  11.052
   8123SM   H8F10801   3.116   3.669  10.818
   8123SM   H8G10802   3.164   3.783  11.208
   8123SM   C9F10803   3.190   3.575  11.364
   8123SM   H9F10804   3.210   3.477  11.217
   8123SM   H9G10805   3.089   3.571  11.502
   8123SM  C10F10806   3.292   3.594  11.703
   8123SM  H10F10807   3.273   3.695  11.829
   8123SM  H10G10808   3.395   3.591  11.583
   8123SM  C11F10809   3.282   3.491  12.042
   8123SM  H11F10810   3.356   3.410  11.994
   8123SM  H11G10811   3.181   3.444  12.045
   8123SM  C12F10812   3.303   3.559  12.447
   8123SM  H12F10813   3.370   3.646  12.408
   8123SM  H12G10814   3.353   3.492  12.666
   8123SM  C13F10815   3.167   3.605  12.609
   8123SM  H13F10816   3.104   3.516  12.666
   8123SM  H13G10817   3.117   3.664  12.369
   8123SM  C14F10818   3.176   3.692  12.987
   8123SM  H14F10819   3.078   3.741  13.041
   8123SM  H14G10820   3.251   3.772  12.930
   8123SM  C15F10821   3.216   3.614  13.359
   8123SM  H15F10822   3.316   3.568  13.299
   8123SM  H15G10823   3.145   3.531  13.422
   8123SM  C16F10824   3.232   3.704  13.728
   8123SM  H16F10825   3.286   3.795  13.629
   8123SM  H16G10826   3.296   3.652  13.950
   8123SM  C17F10827   3.102   3.742  13.950
   8123SM  H17F10828   3.040   3.651  13.995
   8123SM  H17G10829   3.044   3.812  13.758
   8123SM  C18F10830   3.132   3.808  14.358
   8123SM  H18F10831   3.176   3.732  14.565
   8123SM  H18G10832   3.037   3.842  14.496
   8123SM  C19F10833   3.226   3.928  14.316
   8123SM  H19F10834   3.173   4.004  14.133
   8123SM  H19G10835   3.318   3.899  14.148
   8123SM  C20F10836   3.277   3.994  14.703
   8123SM  H20F10837   3.360   3.934  14.832
   8123SM  H20G10838   3.197   3.996  14.931
   8123SM  C21F10839   3.328   4.135  14.595
   8123SM  H21F10840   3.241   4.201  14.529
   8123SM  H21G10841   3.385   4.125  14.307
   8123SM  C22F10842   3.422   4.205  14.895
   8123SM  H22F10843   3.458   4.299  14.751
   8123SM  H22G10844   3.511   4.140  14.943
   8123SM  C23F10845   3.359   4.241  15.297
   8123SM  H23F10846   3.434   4.282  15.507
   8123SM  H23G10847   3.314   4.151  15.438
   8123SM  H23H10848   3.279   4.316  15.258
   8223SM     N10849   3.947   4.341   6.882
   8223SM   C1510850   3.827   4.426   6.789
   8223SM  H15A10851   3.809   4.435   6.471
   8223SM  H15B10852   3.846   4.527   6.900
   8223SM  H15C10853   3.739   4.392   6.948
   8223SM   C1410854   3.916   4.198   6.801
   8223SM  H14A10855   4.002   4.135   6.870
   8223SM  H14B10856   3.887   4.183   6.492
   8223SM  H14C10857   3.832   4.166   6.984
   8223SM   C1310858   4.063   4.387   6.642
   8223SM  H13A10859   4.046   4.381   6.324
   8223SM  H13B10860   4.154   4.333   6.717
   8223SM  H13C10861   4.085   4.492   6.714
   8223SM   C1210862   3.978   4.352   7.329
   8223SM  H12A10863   4.050   4.274   7.407
   8223SM  H12B10864   3.887   4.329   7.494
   8223SM   C1110865   4.025   4.486   7.497
   8223SM  H11A10866   4.122   4.510   7.344
   8223SM  H11B10867   4.046   4.476   7.824
   8223SM     P10868   3.970   4.733   7.410
   8223SM   O1310869   4.087   4.741   7.131
   8223SM   O1410870   3.852   4.819   7.320
   8223SM   O1110871   4.019   4.755   7.866
   8223SM   O1210872   3.923   4.584   7.431
   8223SM   C1S10873   3.910   4.742   8.148
   8223SM   H1S10874   3.840   4.658   8.064
   8223SM   H1T10875   3.851   4.836   8.154
   8223SM    NF10876   3.823   4.682   8.790
   8223SM   HNF10877   3.772   4.761   8.892
   8223SM   C2S10878   3.948   4.706   8.589
   8223SM   H2S10879   4.010   4.614   8.586
   8223SM   C3S10880   4.031   4.816   8.793
   8223SM   H3S10881   3.979   4.914   8.760
   8223SM    O310882   4.160   4.829   8.613
   8223SM   HO310883   4.140   4.823   8.328
   8223SM   C4S10884   4.043   4.789   9.240
   8223SM   H4S10885   3.989   4.862   9.423
   8223SM   C5S10886   4.111   4.691   9.435
   8223SM   H5S10887   4.167   4.616   9.255
   8223SM   C6S10888   4.116   4.672   9.885
   8223SM   H6S10889   4.077   4.570   9.957
   8223SM   H6T10890   4.050   4.744  10.044
   8223SM   C7S10891   4.258   4.683  10.065
   8223SM   H7S10892   4.297   4.786  10.026
   8223SM   H7T10893   4.325   4.615   9.894
   8223SM   C8S10894   4.270   4.642  10.512
   8223SM   H8S10895   4.379   4.631  10.575
   8223SM   H8T10896   4.224   4.543  10.566
   8223SM   C9S10897   4.215   4.745  10.815
   8223SM   H9S10898   4.106   4.731  10.854
   8223SM   H9T10899   4.232   4.846  10.689
   8223SM  C10S10900   4.286   4.742  11.229
   8223SM  H10S10901   4.253   4.833  11.397
   8223SM  H10T10902   4.396   4.752  11.184
   8223SM  C11S10903   4.258   4.619  11.493
   8223SM  H11S10904   4.303   4.529  11.355
   8223SM  H11T10905   4.148   4.603  11.511
   8223SM  C12S10906   4.313   4.638  11.919
   8223SM  H12S10907   4.269   4.732  12.045
   8223SM  H12T10908   4.423   4.653  11.907
   8223SM  C13S10909   4.282   4.523  12.210
   8223SM  H13S10910   4.338   4.432  12.117
   8223SM  H13T10911   4.173   4.499  12.192
   8223SM  C14S10912   4.316   4.558  12.648
   8223SM  H14S10913   4.259   4.649  12.732
   8223SM  H14T10914   4.424   4.581  12.672
   8223SM  C15S10915   4.281   4.446  12.948
   8223SM  H15S10916   4.344   4.357  12.888
   8223SM  H15T10917   4.175   4.417  12.903
   8223SM  C16S10918   4.299   4.490  13.386
   8223SM  H16S10919   4.243   4.585  13.437
   8223SM  H16T10920   4.407   4.511  13.443
   8223SM  C17S10921   4.250   4.385  13.689
   8223SM  H17S10922   4.301   4.289  13.626
   8223SM  H17T10923   4.141   4.369  13.644
   8223SM  C18S10924   4.276   4.425  14.127
   8223SM  H18S10925   4.384   4.443  14.172
   8223SM  H18T10926   4.244   4.343  14.334
   8223SM  H18U10927   4.220   4.517  14.205
   8223SM   C1F10928   3.765   4.563   8.763
   8223SM    OF10929   3.818   4.471   8.583
   8223SM   C2F10930   3.626   4.551   8.922
   8223SM   H2F10931   3.570   4.501   8.676
   8223SM   H2G10932   3.584   4.652   8.961
   8223SM   C3F10933   3.608   4.467   9.312
   8223SM   H3F10934   3.621   4.359   9.237
   8223SM   H3G10935   3.503   4.480   9.411
   8223SM   C4F10936   3.698   4.496   9.678
   8223SM   H4F10937   3.791   4.435   9.657
   8223SM   H4G10938   3.644   4.460   9.951
   8223SM   C5F10939   3.737   4.642   9.753
   8223SM   H5F10940   3.805   4.676   9.513
   8223SM   H5G10941   3.798   4.647  10.032
   8223SM   C6F10942   3.619   4.739   9.792
   8223SM   H6F10943   3.553   4.736   9.525
   8223SM   H6G10944   3.660   4.842   9.810
   8223SM   C7F10945   3.534   4.713  10.167
   8223SM   H7F10946   3.478   4.617  10.140
   8223SM   H7G10947   3.460   4.795  10.179
   8223SM   C8F10948   3.616   4.713  10.557
   8223SM   H8F10949   3.683   4.802  10.548
   8223SM   H8G10950   3.680   4.623  10.566
   8223SM   C9F10951   3.532   4.720  10.941
   8223SM   H9F10952   3.424   4.723  10.857
   8223SM   H9G10953   3.550   4.815  11.100
   8223SM  C10F10954   3.556   4.610  11.253
   8223SM  H10F10955   3.518   4.515  11.127
   8223SM  H10G10956   3.496   4.635  11.523
   8223SM  C11F10957   3.700   4.591  11.412
   8223SM  H11F10958   3.774   4.602  11.166
   8223SM  H11G10959   3.706   4.486  11.523
   8223SM  C12F10960   3.735   4.683  11.769
   8223SM  H12F10961   3.643   4.732  11.883
   8223SM  H12G10962   3.801   4.764  11.655
   8223SM  C13F10963   3.803   4.612  12.132
   8223SM  H13F10964   3.885   4.547  12.021
   8223SM  H13G10965   3.726   4.547  12.276
   8223SM  C14F10966   3.859   4.711  12.444
   8223SM  H14F10967   3.785   4.793  12.459
   8223SM  H14G10968   3.954   4.754  12.321
   8223SM  C15F10969   3.885   4.662  12.879
   8223SM  H15F10970   3.934   4.745  13.044
   8223SM  H15G10971   3.957   4.577  12.876
   8223SM  C16F10972   3.758   4.624  13.119
   8223SM  H16F10973   3.717   4.532  12.978
   8223SM  H16G10974   3.681   4.703  13.080
   8223SM  C17F10975   3.779   4.594  13.572
   8223SM  H17F10976   3.857   4.514  13.587
   8223SM  H17G10977   3.685   4.551  13.695
   8223SM  C18F10978   3.825   4.707  13.860
   8223SM  H18F10979   3.911   4.762  13.728
   8223SM  H18G10980   3.865   4.656  14.133
   8223SM  C19F10981   3.714   4.802  14.016
   8223SM  H19F10982   3.638   4.740  14.172
   8223SM  H19G10983   3.664   4.849  13.752
   8223SM  C20F10984   3.756   4.915  14.310
   8223SM  H20F10985   3.661   4.959  14.430
   8223SM  H20G10986   3.807   4.997  14.148
   8223SM  C21F10987   3.841   4.871  14.673
   8223SM  H21F10988   3.933   4.819  14.577
   8223SM  H21G10989   3.781   4.796  14.841
   8223SM  C22F10990   3.881   4.986  14.961
   8223SM  H22F10991   3.790   5.046  15.015
   8223SM  H22G10992   3.952   5.058  14.832
   8223SM  C23F10993   3.941   4.942  15.363
   8223SM  H23F10994   3.885   4.855  15.471
   8223SM  H23G10995   3.932   5.022  15.594
   8223SM  H23H10996   4.047   4.911  15.330
   8323SM     N10997   4.822   4.577   6.600
   8323SM   C1510998   4.922   4.687   6.540
   8323SM  H15A10999   4.877   4.776   6.408
   8323SM  H15B11000   5.001   4.656   6.336
   8323SM  H15C11001   4.971   4.713   6.822
   8323SM   C1411002   4.766   4.535   6.207
   8323SM  H14A11003   4.718   4.616   6.048
   8323SM  H14B11004   4.693   4.454   6.228
   8323SM  H14C11005   4.846   4.499   6.018
   8323SM   C1311006   4.890   4.458   6.777
   8323SM  H13A11007   4.966   4.416   6.585
   8323SM  H13B11008   4.816   4.381   6.834
   8323SM  H13C11009   4.933   4.484   7.068
   8323SM   C1211010   4.713   4.619   6.894
   8323SM  H12A11011   4.644   4.536   6.933
   8323SM  H12B11012   4.655   4.700   6.771
   8323SM   C1111013   4.760   4.658   7.320
   8323SM  H11A11014   4.678   4.713   7.476
   8323SM  H11B11015   4.845   4.729   7.302
   8323SM     P11016   4.695   4.456   7.764
   8323SM   O1311017   4.572   4.445   7.524
   8323SM   O1411018   4.749   4.324   7.884
   8323SM   O1111019   4.662   4.540   8.151
   8323SM   O1211020   4.803   4.542   7.530
   8323SM   C1S11021   4.766   4.604   8.373
   8323SM   H1S11022   4.725   4.698   8.502
   8323SM   H1T11023   4.848   4.639   8.172
   8323SM    NF11024   4.905   4.410   8.589
   8323SM   HNF11025   4.862   4.323   8.520
   8323SM   C2S11026   4.821   4.519   8.733
   8323SM   H2S11027   4.883   4.585   8.928
   8323SM   C3S11028   4.701   4.470   8.988
   8323SM   H3S11029   4.635   4.404   8.805
   8323SM    O311030   4.624   4.582   9.117
   8323SM   HO311031   4.643   4.654   8.934
   8323SM   C4S11032   4.738   4.400   9.372
   8323SM   H4S11033   4.813   4.454   9.552
   8323SM   C5S11034   4.684   4.285   9.510
   8323SM   H5S11035   4.605   4.236   9.330
   8323SM   C6S11036   4.717   4.215   9.897
   8323SM   H6S11037   4.810   4.154   9.870
   8323SM   H6T11038   4.635   4.142   9.957
   8323SM   C7S11039   4.723   4.307  10.272
   8323SM   H7S11040   4.631   4.370  10.284
   8323SM   H7T11041   4.810   4.375  10.257
   8323SM   C8S11042   4.729   4.222  10.656
   8323SM   H8S11043   4.814   4.151  10.626
   8323SM   H8T11044   4.635   4.162  10.668
   8323SM   C9S11045   4.740   4.293  11.064
   8323SM   H9S11046   4.653   4.360  11.115
   8323SM   H9T11047   4.831   4.357  11.067
   8323SM  C10S11048   4.744   4.185  11.394
   8323SM  H10S11049   4.793   4.094  11.268
   8323SM  H10T11050   4.638   4.164  11.457
   8323SM  C11S11051   4.815   4.214  11.793
   8323SM  H11S11052   4.770   4.305  11.928
   8323SM  H11T11053   4.922   4.230  11.733
   8323SM  C12S11054   4.807   4.104  12.114
   8323SM  H12S11055   4.850   4.008  12.006
   8323SM  H12T11056   4.698   4.098  12.165
   8323SM  C13S11057   4.856   4.139  12.534
   8323SM  H13S11058   4.797   4.231  12.597
   8323SM  H13T11059   4.965   4.160  12.540
   8323SM  C14S11060   4.816   4.040  12.867
   8323SM  H14S11061   4.862   3.941  12.813
   8323SM  H14T11062   4.706   4.028  12.852
   8323SM  C15S11063   4.845   4.086  13.302
   8323SM  H15S11064   4.794   4.014  13.506
   8323SM  H15T11065   4.799   4.186  13.356
   8323SM  C16S11066   4.993   4.091  13.422
   8323SM  H16S11067   5.041   4.178  13.269
   8323SM  H16T11068   5.045   3.998  13.320
   8323SM  C17S11069   5.012   4.105  13.878
   8323SM  H17S11070   4.981   4.010  14.025
   8323SM  H17T11071   4.943   4.185  13.986
   8323SM  C18S11072   5.154   4.140  14.013
   8323SM  H18S11073   5.195   4.224  13.839
   8323SM  H18T11074   5.221   4.053  13.977
   8323SM  H18U11075   5.154   4.169  14.334
   8323SM   C1F11076   5.028   4.449   8.472
   8323SM    OF11077   5.055   4.567   8.424
   8323SM   C2F11078   5.138   4.350   8.433
   8323SM   H2F11079   5.215   4.395   8.235
   8323SM   H2G11080   5.105   4.254   8.301
   8323SM   C3F11081   5.202   4.331   8.847
   8323SM   H3F11082   5.221   4.431   8.988
   8323SM   H3G11083   5.302   4.285   8.811
   8323SM   C4F11084   5.120   4.245   9.135
   8323SM   H4F11085   5.114   4.143   9.003
   8323SM   H4G11086   5.016   4.283   9.174
   8323SM   C5F11087   5.186   4.238   9.546
   8323SM   H5F11088   5.297   4.244   9.513
   8323SM   H5G11089   5.165   4.139   9.678
   8323SM   C6F11090   5.139   4.344   9.849
   8323SM   H6F11091   5.068   4.416   9.714
   8323SM   H6G11092   5.229   4.401   9.942
   8323SM   C7F11093   5.077   4.278  10.224
   8323SM   H7F11094   5.130   4.184  10.290
   8323SM   H7G11095   4.973   4.248  10.158
   8323SM   C8F11096   5.088   4.358  10.611
   8323SM   H8F11097   5.015   4.441  10.605
   8323SM   H8G11098   5.192   4.397  10.629
   8323SM   C9F11099   5.078   4.274  10.992
   8323SM   H9F11100   5.157   4.196  10.974
   8323SM   H9G11101   4.983   4.218  11.007
   8323SM  C10F11102   5.105   4.354  11.379
   8323SM  H10F11103   5.214   4.374  11.355
   8323SM  H10G11104   5.099   4.292  11.649
   8323SM  C11F11105   5.035   4.492  11.433
   8323SM  H11F11106   5.002   4.536  11.145
   8323SM  H11G11107   5.114   4.559  11.544
   8323SM  C12F11108   4.927   4.515  11.757
   8323SM  H12F11109   4.829   4.474  11.661
   8323SM  H12G11110   4.910   4.625  11.769
   8323SM  C13F11111   4.965   4.469  12.183
   8323SM  H13F11112   5.060   4.518  12.273
   8323SM  H13G11113   4.985   4.361  12.186
   8323SM  C14F11114   4.856   4.499  12.498
   8323SM  H14F11115   4.760   4.455  12.396
   8323SM  H14G11116   4.841   4.609  12.519
   8323SM  C15F11117   4.887   4.445  12.921
   8323SM  H15F11118   4.910   4.337  12.918
   8323SM  H15G11119   4.800   4.459  13.122
   8323SM  C16F11120   5.013   4.502  13.107
   8323SM  H16F11121   5.058   4.576  12.900
   8323SM  H16G11122   5.087   4.419  13.140
   8323SM  C17F11123   4.987   4.564  13.515
   8323SM  H17F11124   4.902   4.635  13.500
   8323SM  H17G11125   5.079   4.622  13.590
   8323SM  C18F11126   4.967   4.461  13.848
   8323SM  H18F11127   5.052   4.390  13.821
   8323SM  H18G11128   4.873   4.404  13.809
   8323SM  C19F11129   4.977   4.522  14.271
   8323SM  H19F11130   5.070   4.580  14.277
   8323SM  H19G11131   4.989   4.440  14.496
   8323SM  C20F11132   4.866   4.619  14.400
   8323SM  H20F11133   4.766   4.572  14.382
   8323SM  H20G11134   4.860   4.702  14.181
   8323SM  C21F11135   4.893   4.678  14.820
   8323SM  H21F11136   4.805   4.740  14.898
   8323SM  H21G11137   4.981   4.746  14.787
   8323SM  C22F11138   4.931   4.588  15.186
   8323SM  H22F11139   5.038   4.561  15.153
   8323SM  H22G11140   4.877   4.493  15.210
   8323SM  C23F11141   4.907   4.654  15.594
   8323SM  H23F11142   4.998   4.709  15.687
   8323SM  H23G11143   4.886   4.580  15.831
   8323SM  H23H11144   4.821   4.725  15.585
   8423SM     N11145   4.216   2.295   6.606
   8423SM   C1511146   4.091   2.214   6.582
   8423SM  H15A11147   4.017   2.256   6.381
   8423SM  H15B11148   4.047   2.211   6.885
   8423SM  H15C11149   4.113   2.112   6.498
   8423SM   C1411150   4.310   2.231   6.903
   8423SM  H14A11151   4.268   2.238   7.206
   8423SM  H14B11152   4.405   2.281   6.924
   8423SM  H14C11153   4.330   2.127   6.840
   8423SM   C1311154   4.283   2.304   6.207
   8423SM  H13A11155   4.322   2.208   6.120
   8423SM  H13B11156   4.367   2.374   6.222
   8423SM  H13C11157   4.212   2.340   5.985
   8423SM   C1211158   4.184   2.436   6.747
   8423SM  H12A11159   4.137   2.488   6.498
   8423SM  H12B11160   4.277   2.488   6.810
   8423SM   C1111161   4.095   2.456   7.122
   8423SM  H11A11162   3.990   2.430   7.041
   8423SM  H11B11163   4.094   2.565   7.203
   8423SM     P11164   4.237   2.416   7.791
   8423SM   O1311165   4.355   2.327   7.782
   8423SM   O1411166   4.264   2.561   7.779
   8423SM   O1111167   4.150   2.383   8.172
   8423SM   O1211168   4.134   2.375   7.449
   8423SM   C1S11169   4.074   2.483   8.370
   8423SM   H1S11170   3.968   2.480   8.262
   8423SM   H1T11171   4.112   2.586   8.313
   8423SM    NF11172   4.223   2.450   8.946
   8423SM   HNF11173   4.263   2.359   8.937
   8423SM   C2S11174   4.083   2.460   8.829
   8423SM   H2S11175   4.036   2.550   8.973
   8423SM   C3S11176   4.003   2.335   8.961
   8423SM   H3S11177   4.055   2.244   8.859
   8423SM    O311178   3.870   2.332   8.802
   8423SM   HO311179   3.873   2.391   8.577
   8423SM   C4S11180   3.998   2.340   9.411
   8423SM   H4S11181   3.941   2.425   9.531
   8423SM   C5S11182   4.057   2.255   9.669
   8423SM   H5S11183   4.115   2.170   9.546
   8423SM   C6S11184   4.053   2.262  10.122
   8423SM   H6S11185   4.158   2.263  10.233
   8423SM   H6T11186   4.007   2.170  10.242
   8423SM   C7S11187   3.983   2.384  10.314
   8423SM   H7S11188   3.873   2.376  10.275
   8423SM   H7T11189   4.017   2.477  10.158
   8423SM   C8S11190   4.017   2.403  10.761
   8423SM   H8S11191   3.975   2.500  10.866
   8423SM   H8T11192   4.128   2.411  10.788
   8423SM   C9S11193   3.969   2.293  11.046
   8423SM   H9S11194   3.995   2.193  10.926
   8423SM   H9T11195   3.858   2.298  11.073
   8423SM  C10S11196   4.033   2.310  11.460
   8423SM  H10S11197   4.014   2.414  11.571
   8423SM  H10T11198   4.143   2.298  11.433
   8423SM  C11S11199   3.983   2.210  11.772
   8423SM  H11S11200   3.999   2.106  11.658
   8423SM  H11T11201   3.873   2.224  11.808
   8423SM  C12S11202   4.052   2.225  12.180
   8423SM  H12S11203   4.046   2.330  12.282
   8423SM  H12T11204   4.159   2.197  12.159
   8423SM  C13S11205   3.981   2.135  12.483
   8423SM  H13S11206   3.987   2.029  12.375
   8423SM  H13T11207   3.874   2.165  12.471
   8423SM  C14S11208   4.026   2.141  12.921
   8423SM  H14S11209   4.014   2.245  13.035
   8423SM  H14T11210   4.133   2.114  12.945
   8423SM  C15S11211   3.936   2.046  13.161
   8423SM  H15S11212   3.928   1.948  13.005
   8423SM  H15T11213   3.837   2.094  13.161
   8423SM  C16S11214   3.965   2.023  13.605
   8423SM  H16S11215   4.041   1.946  13.635
   8423SM  H16T11216   3.874   1.979  13.749
   8423SM  C17S11217   4.004   2.149  13.833
   8423SM  H17S11218   3.934   2.232  13.755
   8423SM  H17T11219   4.106   2.180  13.734
   8423SM  C18S11220   4.003   2.125  14.283
   8423SM  H18S11221   4.075   2.045  14.361
   8423SM  H18T11222   3.902   2.092  14.382
   8423SM  H18U11223   4.031   2.218  14.448
   8423SM   C1F11224   4.295   2.561   8.943
   8423SM    OF11225   4.239   2.670   8.925
   8423SM   C2F11226   4.443   2.548   8.985
   8423SM   H2F11227   4.495   2.607   8.754
   8423SM   H2G11228   4.474   2.442   8.955
   8423SM   C3F11229   4.482   2.601   9.402
   8423SM   H3F11230   4.447   2.706   9.432
   8423SM   H3G11231   4.592   2.602   9.432
   8423SM   C4F11232   4.418   2.516   9.732
   8423SM   H4F11233   4.427   2.409   9.642
   8423SM   H4G11234   4.309   2.538   9.756
   8423SM   C5F11235   4.485   2.531  10.140
   8423SM   H5F11236   4.460   2.629  10.275
   8423SM   H5G11237   4.595   2.523  10.110
   8423SM   C6F11238   4.436   2.419  10.416
   8423SM   H6F11239   4.465   2.320  10.290
   8423SM   H6G11240   4.324   2.421  10.425
   8423SM   C7F11241   4.489   2.431  10.842
   8423SM   H7F11242   4.464   2.530  10.971
   8423SM   H7G11243   4.600   2.420  10.836
   8423SM   C8F11244   4.432   2.320  11.106
   8423SM   H8F11245   4.448   2.222  10.950
   8423SM   H8G11246   4.322   2.334  11.139
   8423SM   C9F11247   4.499   2.313  11.517
   8423SM   H9F11248   4.472   2.403  11.697
   8423SM   H9G11249   4.609   2.316  11.469
   8423SM  C10F11250   4.464   2.185  11.745
   8423SM  H10F11251   4.479   2.098  11.541
   8423SM  H10G11252   4.357   2.186  11.832
   8423SM  C11F11253   4.552   2.165  12.117
   8423SM  H11F11254   4.659   2.168  12.027
   8423SM  H11G11255   4.532   2.064  12.243
   8423SM  C12F11256   4.527   2.269  12.444
   8423SM  H12F11257   4.417   2.279  12.495
   8423SM  H12G11258   4.566   2.367  12.342
   8423SM  C13F11259   4.596   2.231  12.837
   8423SM  H13F11260   4.702   2.205  12.768
   8423SM  H13G11261   4.549   2.140  12.969
   8423SM  C14F11262   4.595   2.343  13.146
   8423SM  H14F11263   4.645   2.432  13.014
   8423SM  H14G11264   4.655   2.309  13.407
   8423SM  C15F11265   4.457   2.385  13.302
   8423SM  H15F11266   4.407   2.297  13.440
   8423SM  H15G11267   4.393   2.421  13.047
   8423SM  C16F11268   4.473   2.498  13.611
   8423SM  H16F11269   4.525   2.583  13.461
   8423SM  H16G11270   4.539   2.464  13.857
   8423SM  C17F11271   4.342   2.552  13.794
   8423SM  H17F11272   4.281   2.596  13.545
   8423SM  H17G11273   4.368   2.635  14.004
   8423SM  C18F11274   4.257   2.448  14.013
   8423SM  H18F11275   4.238   2.361  13.812
   8423SM  H18G11276   4.158   2.493  14.082
   8423SM  C19F11277   4.318   2.397  14.409
   8423SM  H19F11278   4.420   2.358  14.364
   8423SM  H19G11279   4.255   2.311  14.505
   8423SM  C20F11280   4.316   2.503  14.742
   8423SM  H20F11281   4.226   2.566  14.694
   8423SM  H20G11282   4.405   2.569  14.727
   8423SM  C21F11283   4.302   2.442  15.165
   8423SM  H21F11284   4.254   2.342  15.141
   8423SM  H21G11285   4.231   2.504  15.342
   8423SM  C22F11286   4.432   2.429  15.405
   8423SM  H22F11287   4.488   2.523  15.435
   8423SM  H22G11288   4.503   2.363  15.243
   8423SM  C23F11289   4.399   2.376  15.822
   8423SM  H23F11290   4.478   2.310  15.948
   8423SM  H23G11291   4.306   2.316  15.804
   8423SM  H23H11292   4.378   2.460  16.029
   8523SM     N11293   5.942   3.624   7.083
   8523SM   C1511294   5.807   3.656   6.906
   8523SM  H15A11295   5.781   3.760   6.969
   8523SM  H15B11296   5.728   3.593   7.026
   8523SM  H15C11297   5.806   3.644   6.582
   8523SM   C1411298   5.930   3.621   7.530
   8523SM  H14A11299   5.842   3.565   7.626
   8523SM  H14B11300   5.916   3.722   7.641
   8523SM  H14C11301   6.018   3.579   7.674
   8523SM   C1311302   5.983   3.488   6.936
   8523SM  H13A11303   5.978   3.479   6.615
   8523SM  H13B11304   5.915   3.413   7.056
   8523SM  H13C11305   6.083   3.464   7.041
   8523SM   C1211306   6.037   3.734   6.954
   8523SM  H12A11307   6.021   3.756   6.639
   8523SM  H12B11308   6.139   3.698   6.981
   8523SM   C1111309   6.027   3.871   7.173
   8523SM  H11A11310   6.099   3.941   7.023
   8523SM  H11B11311   6.059   3.860   7.494
   8523SM     P11312   5.862   4.072   7.260
   8523SM   O1311313   5.940   4.163   6.999
   8523SM   O1411314   5.715   4.089   7.269
   8523SM   O1111315   5.921   4.084   7.707
   8523SM   O1211316   5.894   3.921   7.146
   8523SM   C1S11317   5.817   4.063   7.998
   8523SM   H1S11318   5.765   3.967   7.932
   8523SM   H1T11319   5.742   4.146   7.995
   8523SM    NF11320   5.746   4.026   8.673
   8523SM   HNF11321   5.710   4.103   8.832
   8523SM   C2S11322   5.865   4.048   8.436
   8523SM   H2S11323   5.931   3.959   8.457
   8523SM   C3S11324   5.945   4.171   8.574
   8523SM   H3S11325   5.877   4.257   8.550
   8523SM    O311326   6.063   4.193   8.343
   8523SM   HO311327   6.037   4.163   8.076
   8523SM   C4S11328   5.984   4.155   9.012
   8523SM   H4S11329   6.029   4.059   9.090
   8523SM   C5S11330   5.962   4.249   9.294
   8523SM   H5S11331   5.918   4.344   9.192
   8523SM   C6S11332   5.997   4.242   9.735
   8523SM   H6S11333   5.904   4.240   9.915
   8523SM   H6T11334   6.054   4.334   9.819
   8523SM   C7S11335   6.084   4.124   9.882
   8523SM   H7S11336   6.170   4.108   9.678
   8523SM   H7T11337   6.021   4.033   9.867
   8523SM   C8S11338   6.140   4.140  10.314
   8523SM   H8S11339   6.218   4.219  10.305
   8523SM   H8T11340   6.191   4.046  10.404
   8523SM   C9S11341   6.035   4.177  10.635
   8523SM   H9S11342   5.963   4.093  10.668
   8523SM   H9T11343   5.978   4.266  10.533
   8523SM  C10S11344   6.093   4.214  11.049
   8523SM  H10S11345   6.163   4.300  11.019
   8523SM  H10T11346   6.152   4.128  11.169
   8523SM  C11S11347   5.981   4.251  11.346
   8523SM  H11S11348   5.907   4.168  11.334
   8523SM  H11T11349   5.929   4.342  11.232
   8523SM  C12S11350   6.025   4.275  11.784
   8523SM  H12S11351   6.112   4.344  11.784
   8523SM  H12T11352   6.061   4.179  11.910
   8523SM  C13S11353   5.913   4.333  12.063
   8523SM  H13S11354   5.817   4.287  11.973
   8523SM  H13T11355   5.903   4.442  12.009
   8523SM  C14S11356   5.934   4.306  12.516
   8523SM  H14S11357   5.993   4.384  12.660
   8523SM  H14T11358   5.995   4.215  12.540
   8523SM  C15S11359   5.807   4.299  12.783
   8523SM  H15S11360   5.752   4.207  12.735
   8523SM  H15T11361   5.734   4.377  12.699
   8523SM  C16S11362   5.830   4.285  13.239
   8523SM  H16S11363   5.845   4.385  13.368
   8523SM  H16T11364   5.924   4.231  13.296
   8523SM  C17S11365   5.713   4.211  13.452
   8523SM  H17S11366   5.704   4.107  13.359
   8523SM  H17T11367   5.617   4.254  13.347
   8523SM  C18S11368   5.717   4.204  13.911
   8523SM  H18S11369   5.758   4.296  14.040
   8523SM  H18T11370   5.780   4.120  14.022
   8523SM  H18U11371   5.614   4.188  14.022
   8523SM   C1F11372   5.685   3.909   8.655
   8523SM    OF11373   5.726   3.819   8.442
   8523SM   C2F11374   5.571   3.887   8.919
   8523SM   H2F11375   5.486   3.844   8.751
   8523SM   H2G11376   5.537   3.979   9.072
   8523SM   C3F11377   5.622   3.782   9.216
   8523SM   H3F11378   5.686   3.703   9.078
   8523SM   H3G11379   5.532   3.728   9.318
   8523SM   C4F11380   5.695   3.848   9.564
   8523SM   H4F11381   5.647   3.818   9.846
   8523SM   H4G11382   5.686   3.959   9.552
   8523SM   C5F11383   5.841   3.809   9.612
   8523SM   H5F11384   5.904   3.872   9.411
   8523SM   H5G11385   5.859   3.703   9.528
   8523SM   C6F11386   5.881   3.828  10.050
   8523SM   H6F11387   5.827   3.916  10.179
   8523SM   H6G11388   5.990   3.850  10.062
   8523SM   C7F11389   5.857   3.708  10.323
   8523SM   H7F11390   5.921   3.623  10.227
   8523SM   H7G11391   5.752   3.674  10.311
   8523SM   C8F11392   5.891   3.743  10.758
   8523SM   H8F11393   5.869   3.653  10.944
   8523SM   H8G11394   5.823   3.824  10.860
   8523SM   C9F11395   6.036   3.789  10.803
   8523SM   H9F11396   6.037   3.900  10.797
   8523SM   H9G11397   6.094   3.755  10.536
   8523SM  C10F11398   6.112   3.739  11.172
   8523SM  H10F11399   6.190   3.814  11.247
   8523SM  H10G11400   6.164   3.644  11.094
   8523SM  C11F11401   6.023   3.713  11.538
   8523SM  H11F11402   5.984   3.610  11.514
   8523SM  H11G11403   5.935   3.780  11.523
   8523SM  C12F11404   6.098   3.734  11.934
   8523SM  H12F11405   6.141   3.837  11.931
   8523SM  H12G11406   6.182   3.662  11.952
   8523SM  C13F11407   6.012   3.720  12.312
   8523SM  H13F11408   5.933   3.796  12.303
   8523SM  H13G11409   6.073   3.738  12.588
   8523SM  C14F11410   5.937   3.588  12.351
   8523SM  H14F11411   6.003   3.519  12.513
   8523SM  H14G11412   5.921   3.548  12.048
   8523SM  C15F11413   5.799   3.598  12.564
   8523SM  H15F11414   5.741   3.506  12.513
   8523SM  H15G11415   5.742   3.680  12.420
   8523SM  C16F11416   5.819   3.623  13.014
   8523SM  H16F11417   5.881   3.713  13.023
   8523SM  H16G11418   5.885   3.542  13.122
   8523SM  C17F11419   5.696   3.636  13.299
   8523SM  H17F11420   5.643   3.538  13.302
   8523SM  H17G11421   5.626   3.713  13.179
   8523SM  C18F11422   5.728   3.676  13.740
   8523SM  H18F11423   5.733   3.786  13.764
   8523SM  H18G11424   5.828   3.639  13.824
   8523SM  C19F11425   5.624   3.638  14.058
   8523SM  H19F11426   5.674   3.597  14.331
   8523SM  H19G11427   5.557   3.560  13.935
   8523SM  C20F11428   5.543   3.764  14.172
   8523SM  H20F11429   5.494   3.800  13.893
   8523SM  H20G11430   5.615   3.843  14.271
   8523SM  C21F11431   5.435   3.751  14.496
   8523SM  H21F11432   5.481   3.754  14.802
   8523SM  H21G11433   5.386   3.652  14.463
   8523SM  C22F11434   5.328   3.861  14.454
   8523SM  H22F11435   5.283   3.849  14.151
   8523SM  H22G11436   5.378   3.961  14.460
   8523SM  C23F11437   5.216   3.857  14.766
   8523SM  H23F11438   5.145   3.776  14.706
   8523SM  H23G11439   5.154   3.949  14.748
   8523SM  H23H11440   5.255   3.844  15.072
   8623SM     N11441   3.746   1.672   6.618
   8623SM   C1511442   3.601   1.670   6.726
   8623SM  H15A11443   3.570   1.572   6.831
   8623SM  H15B11444   3.538   1.703   6.483
   8623SM  H15C11445   3.585   1.735   6.987
   8623SM   C1411446   3.771   1.577   6.276
   8623SM  H14A11447   3.764   1.473   6.363
   8623SM  H14B11448   3.869   1.591   6.144
   8623SM  H14C11449   3.700   1.592   6.039
   8623SM   C1311450   3.777   1.810   6.468
   8623SM  H13A11451   3.742   1.884   6.681
   8623SM  H13B11452   3.727   1.829   6.180
   8623SM  H13C11453   3.881   1.826   6.417
   8623SM   C1211454   3.825   1.631   6.987
   8623SM  H12A11455   3.928   1.613   6.909
   8623SM  H12B11456   3.786   1.536   7.101
   8623SM   C1111457   3.822   1.726   7.356
   8623SM  H11A11458   3.855   1.827   7.263
   8623SM  H11B11459   3.895   1.690   7.584
   8623SM     P11460   3.628   1.613   7.776
   8623SM   O1311461   3.484   1.610   7.677
   8623SM   O1411462   3.710   1.493   7.689
   8623SM   O1111463   3.646   1.659   8.229
   8623SM   O1211464   3.690   1.734   7.524
   8623SM   C1S11465   3.648   1.799   8.310
   8623SM   H1S11466   3.548   1.842   8.241
   8623SM   H1T11467   3.724   1.852   8.124
   8623SM    NF11468   3.817   1.776   8.835
   8623SM   HNF11469   3.820   1.678   8.862
   8623SM   C2S11470   3.686   1.833   8.751
   8623SM   H2S11471   3.691   1.944   8.781
   8623SM   C3S11472   3.579   1.783   9.048
   8623SM   H3S11473   3.564   1.674   9.042
   8623SM    O311474   3.453   1.841   8.949
   8623SM   HO311475   3.457   1.854   8.664
   8623SM   C4S11476   3.619   1.830   9.459
   8623SM   H4S11477   3.582   1.929   9.546
   8623SM   C5S11478   3.696   1.761   9.717
   8623SM   H5S11479   3.734   1.661   9.633
   8623SM   C6S11480   3.737   1.809  10.125
   8623SM   H6S11481   3.678   1.897  10.227
   8623SM   H6T11482   3.844   1.840  10.116
   8623SM   C7S11483   3.724   1.695  10.428
   8623SM   H7S11484   3.778   1.604  10.317
   8623SM   H7T11485   3.617   1.669  10.464
   8623SM   C8S11486   3.783   1.730  10.839
   8623SM   H8S11487   3.886   1.768  10.797
   8623SM   H8T11488   3.788   1.638  11.025
   8623SM   C9S11489   3.695   1.833  11.052
   8623SM   H9S11490   3.593   1.789  11.085
   8623SM   H9T11491   3.686   1.925  10.869
   8623SM  C10S11492   3.747   1.871  11.466
   8623SM  H10S11493   3.844   1.924  11.442
   8623SM  H10T11494   3.766   1.777  11.637
   8623SM  C11S11495   3.642   1.957  11.682
   8623SM  H11S11496   3.542   1.910  11.640
   8623SM  H11T11497   3.640   2.058  11.544
   8623SM  C12S11498   3.668   1.967  12.129
   8623SM  H12S11499   3.770   2.007  12.174
   8623SM  H12T11500   3.670   1.865  12.252
   8623SM  C13S11501   3.566   2.051  12.369
   8623SM  H13S11502   3.468   2.000  12.375
   8623SM  H13T11503   3.553   2.150  12.225
   8623SM  C14S11504   3.623   2.067  12.792
   8623SM  H14S11505   3.705   2.141  12.765
   8623SM  H14T11506   3.666   1.968  12.882
   8623SM  C15S11507   3.535   2.115  13.137
   8623SM  H15S11508   3.431   2.081  13.080
   8623SM  H15T11509   3.536   2.227  13.146
   8623SM  C16S11510   3.582   2.055  13.542
   8623SM  H16S11511   3.685   2.016  13.512
   8623SM  H16T11512   3.518   1.967  13.605
   8623SM  C17S11513   3.581   2.148  13.908
   8623SM  H17S11514   3.504   2.228  13.866
   8623SM  H17T11515   3.678   2.200  13.926
   8623SM  C18S11516   3.550   2.074  14.304
   8623SM  H18S11517   3.637   2.019  14.421
   8623SM  H18T11518   3.469   1.999  14.253
   8623SM  H18U11519   3.514   2.144  14.538
   8623SM   C1F11520   3.923   1.838   8.694
   8623SM    OF11521   3.913   1.955   8.583
   8623SM   C2F11522   4.053   1.762   8.676
   8623SM   H2F11523   4.087   1.741   8.985
   8623SM   H2G11524   4.128   1.830   8.532
   8623SM   C3F11525   4.047   1.631   8.430
   8623SM   H3F11526   4.150   1.588   8.424
   8623SM   H3G11527   4.021   1.656   8.115
   8623SM   C4F11528   3.950   1.520   8.568
   8623SM   H4F11529   3.970   1.428   8.391
   8623SM   H4G11530   3.847   1.550   8.487
   8623SM   C5F11531   3.955   1.484   9.015
   8623SM   H5F11532   3.945   1.573   9.210
   8623SM   H5G11533   4.053   1.438   9.078
   8623SM   C6F11534   3.849   1.381   9.135
   8623SM   H6F11535   3.860   1.357   9.459
   8623SM   H6G11536   3.871   1.288   8.964
   8623SM   C7F11537   3.705   1.423   9.042
   8623SM   H7F11538   3.690   1.413   8.712
   8623SM   H7G11539   3.694   1.529   9.120
   8623SM   C8F11540   3.597   1.340   9.255
   8623SM   H8F11541   3.635   1.239   9.330
   8623SM   H8G11542   3.514   1.326   9.036
   8623SM   C9F11543   3.542   1.406   9.639
   8623SM   H9F11544   3.439   1.368   9.681
   8623SM   H9G11545   3.538   1.516   9.603
   8623SM  C10F11546   3.618   1.367  10.023
   8623SM  H10F11547   3.716   1.420  10.032
   8623SM  H10G11548   3.641   1.259  10.011
   8623SM  C11F11549   3.535   1.396  10.401
   8623SM  H11F11550   3.448   1.326  10.413
   8623SM  H11G11551   3.494   1.499  10.374
   8623SM  C12F11552   3.612   1.388  10.800
   8623SM  H12F11553   3.712   1.433  10.764
   8623SM  H12G11554   3.627   1.281  10.887
   8623SM  C13F11555   3.536   1.461  11.139
   8623SM  H13F11556   3.432   1.420  11.142
   8623SM  H13G11557   3.529   1.569  11.064
   8623SM  C14F11558   3.593   1.444  11.562
   8623SM  H14F11559   3.693   1.492  11.589
   8623SM  H14G11560   3.607   1.335  11.616
   8623SM  C15F11561   3.499   1.500  11.889
   8623SM  H15F11562   3.509   1.436  12.159
   8623SM  H15G11563   3.393   1.491  11.793
   8623SM  C16F11564   3.529   1.644  12.024
   8623SM  H16F11565   3.477   1.711  11.808
   8623SM  H16G11566   3.638   1.662  11.994
   8623SM  C17F11567   3.487   1.678  12.456
   8623SM  H17F11568   3.399   1.618  12.543
   8623SM  H17G11569   3.456   1.785  12.468
   8623SM  C18F11570   3.601   1.661  12.765
   8623SM  H18F11571   3.683   1.734  12.708
   8623SM  H18G11572   3.648   1.562  12.723
   8623SM  C19F11573   3.558   1.677  13.203
   8623SM  H19F11574   3.473   1.611  13.272
   8623SM  H19G11575   3.524   1.782  13.251
   8623SM  C20F11576   3.675   1.645  13.491
   8623SM  H20F11577   3.767   1.694  13.371
   8623SM  H20G11578   3.693   1.535  13.491
   8623SM  C21F11579   3.655   1.694  13.923
   8623SM  H21F11580   3.637   1.804  13.920
   8623SM  H21G11581   3.749   1.677  14.094
   8623SM  C22F11582   3.540   1.625  14.142
   8623SM  H22F11583   3.557   1.515  14.145
   8623SM  H22G11584   3.445   1.644  13.977
   8623SM  C23F11585   3.524   1.676  14.571
   8623SM  H23F11586   3.610   1.644  14.760
   8623SM  H23G11587   3.431   1.637  14.712
   8623SM  H23H11588   3.521   1.787  14.574
   8723SM     N11589   4.498   1.678   6.597
   8723SM   C1511590   4.509   1.828   6.588
   8723SM  H15A11591   4.600   1.861   6.435
   8723SM  H15B11592   4.516   1.868   6.894
   8723SM  H15C11593   4.426   1.874   6.438
   8723SM   C1411594   4.380   1.640   6.846
   8723SM  H14A11595   4.380   1.534   6.915
   8723SM  H14B11596   4.285   1.672   6.729
   8723SM  H14C11597   4.392   1.688   7.143
   8723SM   C1311598   4.482   1.628   6.177
   8723SM  H13A11599   4.572   1.641   5.997
   8723SM  H13B11600   4.404   1.683   6.024
   8723SM  H13C11601   4.456   1.523   6.168
   8723SM   C1211602   4.622   1.623   6.807
   8723SM  H12A11603   4.709   1.639   6.618
   8723SM  H12B11604   4.608   1.516   6.849
   8723SM   C1111605   4.657   1.681   7.227
   8723SM  H11A11606   4.683   1.788   7.191
   8723SM  H11B11607   4.750   1.631   7.341
   8723SM     P11608   4.518   1.533   7.731
   8723SM   O1311609   4.374   1.543   7.830
   8723SM   O1411610   4.561   1.423   7.458
   8723SM   O1111611   4.610   1.552   8.118
   8723SM   O1211612   4.550   1.670   7.512
   8723SM   C1S11613   4.586   1.672   8.349
   8723SM   H1S11614   4.478   1.700   8.355
   8723SM   H1T11615   4.643   1.755   8.211
   8723SM    NF11616   4.506   1.628   9.036
   8723SM   HNF11617   4.462   1.701   9.189
   8723SM   C2S11618   4.625   1.662   8.805
   8723SM   H2S11619   4.702   1.582   8.844
   8723SM   C3S11620   4.687   1.798   8.952
   8723SM   H3S11621   4.614   1.879   8.883
   8723SM    O311622   4.809   1.840   8.769
   8723SM   HO311623   4.833   1.768   8.592
   8723SM   C4S11624   4.704   1.788   9.402
   8723SM   H4S11625   4.746   1.691   9.495
   8723SM   C5S11626   4.673   1.878   9.690
   8723SM   H5S11627   4.637   1.978   9.606
   8723SM   C6S11628   4.693   1.852  10.134
   8723SM   H6S11629   4.649   1.935  10.311
   8723SM   H6T11630   4.802   1.849  10.206
   8723SM   C7S11631   4.626   1.721  10.278
   8723SM   H7S11632   4.650   1.638  10.068
   8723SM   H7T11633   4.515   1.734  10.278
   8723SM   C8S11634   4.672   1.674  10.695
   8723SM   H8S11635   4.773   1.716  10.740
   8723SM   H8T11636   4.681   1.563  10.683
   8723SM   C9S11637   4.581   1.706  11.052
   8723SM   H9S11638   4.494   1.639  11.010
   8723SM   H9T11639   4.546   1.811  11.043
   8723SM  C10S11640   4.642   1.673  11.463
   8723SM  H10S11641   4.705   1.759  11.559
   8723SM  H10T11642   4.707   1.583  11.430
   8723SM  C11S11643   4.539   1.638  11.787
   8723SM  H11S11644   4.486   1.545  11.700
   8723SM  H11T11645   4.465   1.720  11.808
   8723SM  C12S11646   4.600   1.616  12.207
   8723SM  H12S11647   4.678   1.537  12.201
   8723SM  H12T11648   4.520   1.582  12.417
   8723SM  C13S11649   4.660   1.744  12.375
   8723SM  H13S11650   4.590   1.829  12.330
   8723SM  H13T11651   4.753   1.770  12.210
   8723SM  C14S11652   4.693   1.731  12.819
   8723SM  H14S11653   4.761   1.644  12.873
   8723SM  H14T11654   4.602   1.717  13.005
   8723SM  C15S11655   4.761   1.859  12.942
   8723SM  H15S11656   4.695   1.947  12.894
   8723SM  H15T11657   4.852   1.871  12.747
   8723SM  C16S11658   4.808   1.860  13.368
   8723SM  H16S11659   4.873   1.773  13.419
   8723SM  H16T11660   4.725   1.855  13.590
   8723SM  C17S11661   4.890   1.987  13.407
   8723SM  H17S11662   4.821   2.074  13.389
   8723SM  H17T11663   4.960   1.993  13.146
   8723SM  C18S11664   4.970   1.983  13.791
   8723SM  H18S11665   4.907   2.018  14.043
   8723SM  H18T11666   5.061   2.046  13.761
   8723SM  H18U11667   5.000   1.879  13.857
   8723SM   C1F11668   4.454   1.505   9.051
   8723SM    OF11669   4.520   1.407   8.961
   8723SM   C2F11670   4.312   1.495   9.192
   8723SM   H2F11671   4.249   1.482   8.919
   8723SM   H2G11672   4.281   1.589   9.342
   8723SM   C3F11673   4.287   1.375   9.477
   8723SM   H3F11674   4.307   1.281   9.306
   8723SM   H3G11675   4.180   1.372   9.564
   8723SM   C4F11676   4.372   1.375   9.864
   8723SM   H4F11677   4.478   1.354   9.783
   8723SM   H4G11678   4.338   1.292  10.062
   8723SM   C5F11679   4.366   1.506  10.110
   8723SM   H5F11680   4.406   1.589   9.921
   8723SM   H5G11681   4.433   1.496  10.374
   8723SM   C6F11682   4.224   1.543  10.251
   8723SM   H6F11683   4.178   1.457  10.407
   8723SM   H6G11684   4.163   1.562   9.978
   8723SM   C7F11685   4.217   1.668  10.518
   8723SM   H7F11686   4.117   1.716  10.488
   8723SM   H7G11687   4.293   1.741  10.401
   8723SM   C8F11688   4.245   1.644  10.965
   8723SM   H8F11689   4.300   1.733  11.079
   8723SM   H8G11690   4.310   1.555  11.004
   8723SM   C9F11691   4.123   1.626  11.241
   8723SM   H9F11692   4.074   1.529  11.166
   8723SM   H9G11693   4.048   1.707  11.187
   8723SM  C10F11694   4.163   1.627  11.688
   8723SM  H10F11695   4.255   1.566  11.724
   8723SM  H10G11696   4.082   1.580  11.868
   8723SM  C11F11697   4.191   1.768  11.850
   8723SM  H11F11698   4.100   1.831  11.820
   8723SM  H11G11699   4.271   1.815  11.667
   8723SM  C12F11700   4.238   1.770  12.291
   8723SM  H12F11701   4.322   1.699  12.327
   8723SM  H12G11702   4.155   1.735  12.489
   8723SM  C13F11703   4.285   1.910  12.420
   8723SM  H13F11704   4.197   1.977  12.438
   8723SM  H13G11705   4.351   1.950  12.180
   8723SM  C14F11706   4.361   1.913  12.819
   8723SM  H14F11707   4.390   2.019  12.879
   8723SM  H14G11708   4.453   1.853  12.795
   8723SM  C15F11709   4.278   1.863  13.173
   8723SM  H15F11710   4.220   1.773  13.092
   8723SM  H15G11711   4.206   1.945  13.236
   8723SM  C16F11712   4.354   1.833  13.563
   8723SM  H16F11713   4.436   1.907  13.611
   8723SM  H16G11714   4.398   1.732  13.554
   8723SM  C17F11715   4.247   1.845  13.890
   8723SM  H17F11716   4.159   1.783  13.806
   8723SM  H17G11717   4.218   1.954  13.887
   8723SM  C18F11718   4.283   1.820  14.325
   8723SM  H18F11719   4.218   1.883  14.514
   8723SM  H18G11720   4.384   1.859  14.367
   8723SM  C19F11721   4.265   1.676  14.478
   8723SM  H19F11722   4.319   1.608  14.274
   8723SM  H19G11723   4.158   1.651  14.454
   8723SM  C20F11724   4.311   1.667  14.919
   8723SM  H20F11725   4.256   1.749  15.069
   8723SM  H20G11726   4.419   1.690  14.931
   8723SM  C21F11727   4.281   1.538  15.156
   8723SM  H21F11728   4.295   1.449  14.964
   8723SM  H21G11729   4.174   1.543  15.237
   8723SM  C22F11730   4.359   1.514  15.555
   8723SM  H22F11731   4.344   1.408  15.645
   8723SM  H22G11732   4.315   1.575  15.801
   8723SM  C23F11733   4.508   1.544  15.531
   8723SM  H23F11734   4.551   1.487  15.279
   8723SM  H23G11735   4.562   1.513  15.810
   8723SM  H23H11736   4.528   1.652  15.480
   8823SM     N11737   1.795   2.333   6.648
   8823SM   C1511738   1.814   2.272   6.246
   8823SM  H15A11739   1.737   2.306   6.045
   8823SM  H15B11740   1.811   2.164   6.261
   8823SM  H15C11741   1.910   2.304   6.120
   8823SM   C1411742   1.901   2.282   6.927
   8823SM  H14A11743   1.897   2.175   6.963
   8823SM  H14B11744   1.884   2.324   7.227
   8823SM  H14C11745   2.000   2.316   6.840
   8823SM   C1311746   1.816   2.481   6.618
   8823SM  H13A11747   1.806   2.526   6.915
   8823SM  H13B11748   1.740   2.528   6.435
   8823SM  H13C11749   1.914   2.508   6.507
   8823SM   C1211750   1.657   2.303   6.825
   8823SM  H12A11751   1.641   2.196   6.843
   8823SM  H12B11752   1.580   2.346   6.633
   8823SM   C1111753   1.628   2.361   7.242
   8823SM  H11A11754   1.708   2.323   7.452
   8823SM  H11B11755   1.532   2.319   7.353
   8823SM     P11756   1.644   2.577   7.638
   8823SM   O1311757   1.771   2.529   7.815
   8823SM   O1411758   1.633   2.723   7.569
   8823SM   O1111759   1.517   2.525   7.890
   8823SM   O1211760   1.621   2.504   7.224
   8823SM   C1S11761   1.535   2.431   8.217
   8823SM   H1S11762   1.631   2.375   8.199
   8823SM   H1T11763   1.455   2.353   8.208
   8823SM    NF11764   1.553   2.394   8.949
   8823SM   HNF11765   1.474   2.357   9.099
   8823SM   C2S11766   1.524   2.495   8.643
   8823SM   H2S11767   1.602   2.575   8.664
   8823SM   C3S11768   1.384   2.560   8.721
   8823SM   H3S11769   1.304   2.483   8.706
   8823SM    O311770   1.344   2.657   8.430
   8823SM   HO311771   1.408   2.647   8.214
   8823SM   C4S11772   1.392   2.615   9.144
   8823SM   H4S11773   1.447   2.710   9.177
   8823SM   C5S11774   1.341   2.556   9.474
   8823SM   H5S11775   1.285   2.461   9.444
   8823SM   C6S11776   1.350   2.606   9.903
   8823SM   H6S11777   1.252   2.604  10.053
   8823SM   H6T11778   1.390   2.710   9.924
   8823SM   C7S11779   1.448   2.509  10.116
   8823SM   H7S11780   1.551   2.527  10.002
   8823SM   H7T11781   1.424   2.403  10.044
   8823SM   C8S11782   1.449   2.517  10.575
   8823SM   H8S11783   1.451   2.623  10.671
   8823SM   H8T11784   1.541   2.467  10.689
   8823SM   C9S11785   1.328   2.444  10.752
   8823SM   H9S11786   1.330   2.337  10.662
   8823SM   H9T11787   1.238   2.491  10.617
   8823SM  C10S11788   1.310   2.455  11.205
   8823SM  H10S11789   1.225   2.389  11.295
   8823SM  H10T11790   1.279   2.560  11.274
   8823SM  C11S11791   1.431   2.421  11.463
   8823SM  H11S11792   1.524   2.469  11.346
   8823SM  H11T11793   1.447   2.311  11.463
   8823SM  C12S11794   1.405   2.472  11.889
   8823SM  H12S11795   1.296   2.465  11.946
   8823SM  H12T11796   1.433   2.579  11.910
   8823SM  C13S11797   1.474   2.392  12.219
   8823SM  H13S11798   1.584   2.409  12.207
   8823SM  H13T11799   1.456   2.283  12.171
   8823SM  C14S11800   1.417   2.434  12.624
   8823SM  H14S11801   1.307   2.418  12.621
   8823SM  H14T11802   1.436   2.543  12.666
   8823SM  C15S11803   1.477   2.358  12.975
   8823SM  H15S11804   1.587   2.371  12.966
   8823SM  H15T11805   1.454   2.249  12.945
   8823SM  C16S11806   1.423   2.409  13.377
   8823SM  H16S11807   1.321   2.370  13.431
   8823SM  H16T11808   1.418   2.520  13.362
   8823SM  C17S11809   1.516   2.371  13.722
   8823SM  H17S11810   1.622   2.380  13.623
   8823SM  H17T11811   1.498   2.265  13.809
   8823SM  C18S11812   1.498   2.462  14.085
   8823SM  H18S11813   1.395   2.450  14.211
   8823SM  H18T11814   1.513   2.568  14.001
   8823SM  H18U11815   1.572   2.434  14.319
   8823SM   C1F11816   1.672   2.339   9.000
   8823SM    OF11817   1.768   2.374   8.805
   8823SM   C2F11818   1.679   2.229   9.297
   8823SM   H2F11819   1.702   2.134   9.135
   8823SM   H2G11820   1.581   2.217   9.450
   8823SM   C3F11821   1.787   2.257   9.612
   8823SM   H3F11822   1.771   2.356   9.756
   8823SM   H3G11823   1.889   2.258   9.474
   8823SM   C4F11824   1.779   2.148   9.936
   8823SM   H4F11825   1.801   2.050   9.786
   8823SM   H4G11826   1.676   2.144  10.056
   8823SM   C5F11827   1.877   2.169  10.278
   8823SM   H5F11828   1.978   2.190  10.149
   8823SM   H5G11829   1.881   2.074  10.452
   8823SM   C6F11830   1.842   2.281  10.572
   8823SM   H6F11831   1.742   2.261  10.701
   8823SM   H6G11832   1.835   2.378  10.413
   8823SM   C7F11833   1.950   2.290  10.896
   8823SM   H7F11834   2.006   2.384  10.869
   8823SM   H7G11835   2.026   2.212  10.836
   8823SM   C8F11836   1.904   2.279  11.331
   8823SM   H8F11837   1.860   2.376  11.427
   8823SM   H8G11838   1.994   2.260  11.520
   8823SM   C9F11839   1.804   2.168  11.418
   8823SM   H9F11840   1.849   2.071  11.325
   8823SM   H9G11841   1.710   2.181  11.247
   8823SM  C10F11842   1.773   2.165  11.862
   8823SM  H10F11843   1.714   2.255  11.943
   8823SM  H10G11844   1.869   2.169  12.030
   8823SM  C11F11845   1.697   2.039  11.976
   8823SM  H11F11846   1.736   1.953  11.796
   8823SM  H11G11847   1.590   2.051  11.898
   8823SM  C12F11848   1.714   2.003  12.417
   8823SM  H12F11849   1.806   1.941  12.450
   8823SM  H12G11850   1.627   1.940  12.498
   8823SM  C13F11851   1.722   2.120  12.720
   8823SM  H13F11852   1.631   2.180  12.690
   8823SM  H13G11853   1.811   2.184  12.663
   8823SM  C14F11854   1.735   2.056  13.137
   8823SM  H14F11855   1.822   1.987  13.098
   8823SM  H14G11856   1.641   1.998  13.191
   8823SM  C15F11857   1.765   2.135  13.518
   8823SM  H15F11858   1.670   2.151  13.683
   8823SM  H15G11859   1.810   2.234  13.449
   8823SM  C16F11860   1.861   2.052  13.785
   8823SM  H16F11861   1.963   2.063  13.653
   8823SM  H16G11862   1.834   1.944  13.758
   8823SM  C17F11863   1.866   2.088  14.232
   8823SM  H17F11864   1.858   2.198  14.271
   8823SM  H17G11865   1.966   2.058  14.346
   8823SM  C18F11866   1.764   2.014  14.502
   8823SM  H18F11867   1.765   1.906  14.427
   8823SM  H18G11868   1.663   2.053  14.433
   8823SM  C19F11869   1.791   2.027  14.961
   8823SM  H19F11870   1.874   1.959  15.045
   8823SM  H19G11871   1.701   1.994  15.129
   8823SM  C20F11872   1.831   2.171  15.078
   8823SM  H20F11873   1.760   2.242  14.934
   8823SM  H20G11874   1.931   2.186  14.937
   8823SM  C21F11875   1.849   2.207  15.525
   8823SM  H21F11876   1.924   2.141  15.672
   8823SM  H21G11877   1.754   2.205  15.702
   8823SM  C22F11878   1.906   2.349  15.552
   8823SM  H22F11879   1.832   2.425  15.462
   8823SM  H22G11880   1.972   2.356  15.297
   8823SM  C23F11881   1.984   2.387  15.927
   8823SM  H23F11882   1.989   2.497  15.963
   8823SM  H23G11883   2.088   2.350  15.906
   8823SM  H23H11884   1.936   2.342  16.194
   8923SM     N11885   6.105   2.634   6.714
   8923SM   C1511886   6.044   2.736   6.438
   8923SM  H15A11887   5.935   2.736   6.453
   8923SM  H15B11888   6.072   2.714   6.129
   8923SM  H15C11889   6.078   2.836   6.504
   8923SM   C1411890   6.044   2.500   6.624
   8923SM  H14A11891   5.942   2.494   6.732
   8923SM  H14B11892   6.098   2.422   6.786
   8923SM  H14C11893   6.044   2.477   6.309
   8923SM   C1311894   6.251   2.624   6.627
   8923SM  H13A11895   6.295   2.548   6.825
   8923SM  H13B11896   6.304   2.717   6.678
   8923SM  H13C11897   6.270   2.595   6.318
   8923SM   C1211898   6.074   2.670   7.149
   8923SM  H12A11899   5.970   2.641   7.209
   8923SM  H12B11900   6.077   2.777   7.185
   8923SM   C1111901   6.155   2.602   7.485
   8923SM  H11A11902   6.129   2.648   7.782
   8923SM  H11B11903   6.264   2.620   7.437
   8923SM     P11904   5.992   2.401   7.629
   8923SM   O1311905   5.889   2.477   7.410
   8923SM   O1411906   6.001   2.254   7.584
   8923SM   O1111907   5.977   2.438   8.085
   8923SM   O1211908   6.133   2.461   7.494
   8923SM   C1S11909   6.086   2.425   8.355
   8923SM   H1S11910   6.179   2.472   8.235
   8923SM   H1T11911   6.107   2.317   8.421
   8923SM    NF11912   6.161   2.499   9.021
   8923SM   HNF11913   6.168   2.430   9.237
   8923SM   C2S11914   6.048   2.497   8.748
   8923SM   H2S11915   6.020   2.602   8.679
   8923SM   C3S11916   5.923   2.425   8.928
   8923SM   H3S11917   5.944   2.316   8.955
   8923SM    O311918   5.805   2.435   8.691
   8923SM   HO311919   5.841   2.443   8.421
   8923SM   C4S11920   5.887   2.482   9.324
   8923SM   H4S11921   5.851   2.585   9.303
   8923SM   C5S11922   5.890   2.421   9.681
   8923SM   H5S11923   5.926   2.317   9.702
   8923SM   C6S11924   5.850   2.489  10.065
   8923SM   H6S11925   5.864   2.599  10.041
   8923SM   H6T11926   5.913   2.451  10.314
   8923SM   C7S11927   5.704   2.465  10.179
   8923SM   H7S11928   5.687   2.356  10.227
   8923SM   H7T11929   5.638   2.497   9.927
   8923SM   C8S11930   5.660   2.540  10.560
   8923SM   H8S11931   5.560   2.586  10.506
   8923SM   H8T11932   5.731   2.622  10.635
   8923SM   C9S11933   5.645   2.445  10.917
   8923SM   H9S11934   5.742   2.395  10.980
   8923SM   H9T11935   5.571   2.366  10.833
   8923SM  C10S11936   5.594   2.512  11.304
   8923SM  H10S11937   5.562   2.432  11.514
   8923SM  H10T11938   5.506   2.577  11.241
   8923SM  C11S11939   5.704   2.593  11.508
   8923SM  H11S11940   5.734   2.678  11.310
   8923SM  H11T11941   5.794   2.529  11.550
   8923SM  C12S11942   5.661   2.649  11.913
   8923SM  H12S11943   5.575   2.718  11.886
   8923SM  H12T11944   5.746   2.709  12.012
   8923SM  C13S11945   5.639   2.545  12.243
   8923SM  H13S11946   5.729   2.479  12.252
   8923SM  H13T11947   5.551   2.482  12.171
   8923SM  C14S11948   5.621   2.611  12.657
   8923SM  H14S11949   5.515   2.643  12.696
   8923SM  H14T11950   5.683   2.703  12.675
   8923SM  C15S11951   5.665   2.518  12.993
   8923SM  H15S11952   5.765   2.475  12.924
   8923SM  H15T11953   5.593   2.435  13.014
   8923SM  C16S11954   5.669   2.584  13.407
   8923SM  H16S11955   5.565   2.614  13.491
   8923SM  H16T11956   5.732   2.675  13.398
   8923SM  C17S11957   5.724   2.487  13.722
   8923SM  H17S11958   5.830   2.462  13.650
   8923SM  H17T11959   5.665   2.392  13.707
   8923SM  C18S11960   5.713   2.544  14.142
   8923SM  H18S11961   5.742   2.469  14.373
   8923SM  H18T11962   5.608   2.574  14.196
   8923SM  H18U11963   5.778   2.634  14.175
   8923SM   C1F11964   6.266   2.578   8.943
   8923SM    OF11965   6.260   2.658   8.667
   8923SM   C2F11966   6.387   2.557   9.201
   8923SM   H2F11967   6.445   2.471   9.081
   8923SM   H2G11968   6.354   2.528   9.507
   8923SM   C3F11969   6.478   2.682   9.225
   8923SM   H3F11970   6.525   2.701   8.928
   8923SM   H3G11971   6.560   2.660   9.441
   8923SM   C4F11972   6.406   2.809   9.369
   8923SM   H4F11973   6.324   2.836   9.159
   8923SM   H4G11974   6.475   2.896   9.369
   8923SM   C5F11975   6.352   2.791   9.798
   8923SM   H5F11976   6.411   2.861   9.990
   8923SM   H5G11977   6.373   2.689   9.909
   8923SM   C6F11978   6.203   2.822   9.852
   8923SM   H6F11979   6.137   2.741   9.744
   8923SM   H6G11980   6.181   2.915   9.675
   8923SM   C7F11981   6.177   2.860  10.287
   8923SM   H7F11982   6.081   2.912  10.311
   8923SM   H7G11983   6.258   2.930  10.383
   8923SM   C8F11984   6.172   2.749  10.596
   8923SM   H8F11985   6.192   2.798  10.890
   8923SM   H8G11986   6.250   2.672  10.545
   8923SM   C9F11987   6.033   2.689  10.632
   8923SM   H9F11988   6.032   2.611  10.401
   8923SM   H9G11989   5.953   2.764  10.572
   8923SM  C10F11990   6.007   2.628  11.043
   8923SM  H10F11991   5.930   2.548  11.013
   8923SM  H10G11992   5.968   2.704  11.256
   8923SM  C11F11993   6.136   2.568  11.205
   8923SM  H11F11994   6.204   2.647  11.319
   8923SM  H11G11995   6.187   2.513  10.956
   8923SM  C12F11996   6.109   2.467  11.532
   8923SM  H12F11997   6.044   2.387  11.403
   8923SM  H12G11998   6.052   2.518  11.778
   8923SM  C13F11999   6.239   2.407  11.685
   8923SM  H13F12000   6.304   2.486  11.817
   8923SM  H13G12001   6.294   2.363  11.427
   8923SM  C14F12002   6.211   2.298  11.994
   8923SM  H14F12003   6.305   2.242  12.057
   8923SM  H14G12004   6.137   2.227  11.862
   8923SM  C15F12005   6.155   2.353  12.390
   8923SM  H15F12006   6.062   2.412  12.327
   8923SM  H15G12007   6.228   2.423  12.525
   8923SM  C16F12008   6.119   2.242  12.687
   8923SM  H16F12009   6.101   2.148  12.516
   8923SM  H16G12010   6.023   2.268  12.840
   8923SM  C17F12011   6.226   2.219  13.008
   8923SM  H17F12012   6.326   2.210  12.867
   8923SM  H17G12013   6.208   2.123  13.164
   8923SM  C18F12014   6.224   2.327  13.332
   8923SM  H18F12015   6.119   2.358  13.392
   8923SM  H18G12016   6.278   2.414  13.209
   8923SM  C19F12017   6.286   2.279  13.728
   8923SM  H19F12018   6.392   2.250  13.683
   8923SM  H19G12019   6.231   2.187  13.815
   8923SM  C20F12020   6.272   2.378  14.076
   8923SM  H20F12021   6.173   2.429  14.055
   8923SM  H20G12022   6.350   2.456  14.055
   8923SM  C21F12023   6.283   2.313  14.490
   8923SM  H21F12024   6.190   2.255  14.550
   8923SM  H21G12025   6.290   2.391  14.724
   8923SM  C22F12026   6.402   2.218  14.535
   8923SM  H22F12027   6.497   2.272  14.472
   8923SM  H22G12028   6.396   2.138  14.307
   8923SM  C23F12029   6.405   2.157  14.952
   8923SM  H23F12030   6.410   2.238  15.177
   8923SM  H23G12031   6.493   2.090  14.985
   8923SM  H23H12032   6.314   2.098  15.024
   9023SM     N12033   5.740   1.892   6.624
   9023SM   C1512034   5.819   1.772   6.510
   9023SM  H15A12035   5.925   1.792   6.522
   9023SM  H15B12036   5.794   1.746   6.201
   9023SM  H15C12037   5.791   1.690   6.705
   9023SM   C1412038   5.767   1.998   6.327
   9023SM  H14A12039   5.872   2.027   6.324
   9023SM  H14B12040   5.712   2.090   6.384
   9023SM  H14C12041   5.742   1.968   6.024
   9023SM   C1312042   5.595   1.854   6.612
   9023SM  H13A12043   5.577   1.778   6.843
   9023SM  H13B12044   5.562   1.820   6.321
   9023SM  H13C12045   5.534   1.938   6.699
   9023SM   C1212046   5.769   1.941   7.050
   9023SM  H12A12047   5.698   2.020   7.125
   9023SM  H12B12048   5.867   1.987   7.068
   9023SM   C1112049   5.751   1.837   7.392
   9023SM  H11A12050   5.794   1.878   7.674
   9023SM  H11B12051   5.808   1.745   7.320
   9023SM     P12052   5.520   1.902   7.677
   9023SM   O1312053   5.559   2.039   7.563
   9023SM   O1412054   5.379   1.865   7.608
   9023SM   O1112055   5.555   1.873   8.133
   9023SM   O1212056   5.613   1.801   7.437
   9023SM   C1S12057   5.563   1.735   8.244
   9023SM   H1S12058   5.633   1.679   8.046
   9023SM   H1T12059   5.464   1.684   8.214
   9023SM    NF12060   5.731   1.635   8.676
   9023SM   HNF12061   5.712   1.542   8.757
   9023SM   C2S12062   5.615   1.724   8.679
   9023SM   H2S12063   5.647   1.825   8.781
   9023SM   C3S12064   5.499   1.675   8.952
   9023SM   H3S12065   5.478   1.568   8.880
   9023SM    O312066   5.378   1.747   8.889
   9023SM   HO312067   5.398   1.813   8.688
   9023SM   C4S12068   5.541   1.683   9.390
   9023SM   H4S12069   5.597   1.597   9.507
   9023SM   C5S12070   5.513   1.787   9.636
   9023SM   H5S12071   5.453   1.871   9.513
   9023SM   C6S12072   5.551   1.804  10.068
   9023SM   H6S12073   5.492   1.888  10.197
   9023SM   H6T12074   5.657   1.836  10.086
   9023SM   C7S12075   5.533   1.685  10.353
   9023SM   H7S12076   5.615   1.690  10.581
   9023SM   H7T12077   5.544   1.586  10.200
   9023SM   C8S12078   5.401   1.689  10.584
   9023SM   H8S12079   5.319   1.649  10.392
   9023SM   H8T12080   5.373   1.793  10.665
   9023SM   C9S12081   5.414   1.606  10.965
   9023SM   H9S12082   5.483   1.521  10.914
   9023SM   H9T12083   5.314   1.563  11.031
   9023SM  C10S12084   5.459   1.684  11.337
   9023SM  H10S12085   5.396   1.775  11.379
   9023SM  H10T12086   5.566   1.717  11.313
   9023SM  C11S12087   5.439   1.588  11.688
   9023SM  H11S12088   5.502   1.498  11.649
   9023SM  H11T12089   5.336   1.552  11.655
   9023SM  C12S12090   5.449   1.645  12.108
   9023SM  H12S12091   5.380   1.589  12.309
   9023SM  H12T12092   5.420   1.753  12.117
   9023SM  C13S12093   5.590   1.625  12.261
   9023SM  H13S12094   5.653   1.702  12.108
   9023SM  H13T12095   5.628   1.525  12.162
   9023SM  C14S12096   5.604   1.634  12.717
   9023SM  H14S12097   5.556   1.724  12.846
   9023SM  H14T12098   5.712   1.647  12.768
   9023SM  C15S12099   5.578   1.505  12.957
   9023SM  H15S12100   5.553   1.424  12.744
   9023SM  H15T12101   5.492   1.522  13.161
   9023SM  C16S12102   5.703   1.466  13.203
   9023SM  H16S12103   5.725   1.556  13.386
   9023SM  H16T12104   5.790   1.453  12.999
   9023SM  C17S12105   5.695   1.347  13.494
   9023SM  H17S12106   5.762   1.266  13.383
   9023SM  H17T12107   5.592   1.307  13.500
   9023SM  C18S12108   5.732   1.381  13.929
   9023SM  H18S12109   5.705   1.296  14.130
   9023SM  H18T12110   5.676   1.471  14.031
   9023SM  H18U12111   5.839   1.403  13.965
   9023SM   C1F12112   5.848   1.670   8.505
   9023SM    OF12113   5.862   1.777   8.340
   9023SM   C2F12114   5.960   1.569   8.490
   9023SM   H2F12115   6.023   1.595   8.229
   9023SM   H2G12116   5.921   1.468   8.439
   9023SM   C3F12117   6.052   1.579   8.862
   9023SM   H3F12118   6.096   1.682   8.871
   9023SM   H3G12119   6.138   1.508   8.832
   9023SM   C4F12120   5.980   1.557   9.258
   9023SM   H4F12121   5.983   1.452   9.360
   9023SM   H4G12122   5.873   1.586   9.243
   9023SM   C5F12123   6.034   1.641   9.597
   9023SM   H5F12124   6.014   1.749   9.534
   9023SM   H5G12125   6.144   1.628   9.621
   9023SM   C6F12126   5.963   1.593   9.975
   9023SM   H6F12127   5.992   1.486  10.023
   9023SM   H6G12128   5.853   1.598   9.933
   9023SM   C7F12129   5.999   1.672  10.347
   9023SM   H7F12130   5.951   1.772  10.335
   9023SM   H7G12131   6.109   1.688  10.359
   9023SM   C8F12132   5.953   1.597  10.725
   9023SM   H8F12133   5.987   1.491  10.713
   9023SM   H8G12134   5.842   1.597  10.737
   9023SM   C9F12135   6.013   1.669  11.085
   9023SM   H9F12136   5.977   1.774  11.070
   9023SM   H9G12137   6.124   1.669  11.058
   9023SM  C10F12138   5.973   1.613  11.496
   9023SM  H10F12139   6.057   1.553  11.622
   9023SM  H10G12140   5.885   1.546  11.472
   9023SM  C11F12141   5.939   1.729  11.781
   9023SM  H11F12142   5.847   1.780  11.676
   9023SM  H11G12143   6.022   1.803  11.781
   9023SM  C12F12144   5.920   1.676  12.204
   9023SM  H12F12145   6.005   1.612  12.291
   9023SM  H12G12146   5.836   1.604  12.198
   9023SM  C13F12147   5.893   1.781  12.534
   9023SM  H13F12148   5.886   1.714  12.798
   9023SM  H13G12149   5.795   1.831  12.495
   9023SM  C14F12150   5.999   1.884  12.651
   9023SM  H14F12151   6.006   1.965  12.426
   9023SM  H14G12152   6.096   1.833  12.660
   9023SM  C15F12153   5.990   1.935  13.086
   9023SM  H15F12154   5.917   2.018  13.110
   9023SM  H15G12155   6.090   1.974  13.161
   9023SM  C16F12156   5.962   1.825  13.398
   9023SM  H16F12157   6.027   1.839  13.659
   9023SM  H16G12158   5.993   1.725  13.290
   9023SM  C17F12159   5.816   1.827  13.530
   9023SM  H17F12160   5.751   1.804  13.269
   9023SM  H17G12161   5.788   1.929  13.632
   9023SM  C18F12162   5.787   1.727  13.866
   9023SM  H18F12163   5.846   1.634  13.818
   9023SM  H18G12164   5.678   1.702  13.860
   9023SM  C19F12165   5.821   1.781  14.277
   9023SM  H19F12166   5.806   1.892  14.265
   9023SM  H19G12167   5.927   1.760  14.352
   9023SM  C20F12168   5.731   1.735  14.616
   9023SM  H20F12169   5.751   1.627  14.682
   9023SM  H20G12170   5.624   1.746  14.526
   9023SM  C21F12171   5.760   1.825  14.976
   9023SM  H21F12172   5.748   1.931  14.886
   9023SM  H21G12173   5.866   1.810  15.069
   9023SM  C22F12174   5.669   1.800  15.330
   9023SM  H22F12175   5.567   1.837  15.252
   9023SM  H22G12176   5.706   1.856  15.597
   9023SM  C23F12177   5.657   1.653  15.435
   9023SM  H23F12178   5.757   1.604  15.435
   9023SM  H23G12179   5.590   1.599  15.225
   9023SM  H23H12180   5.616   1.645  15.738
   9123SM     N12181   6.560   4.401   7.038
   9123SM   C1512182   6.634   4.273   6.975
   9123SM  H15A12183   6.741   4.290   6.972
   9123SM  H15B12184   6.606   4.228   6.699
   9123SM  H15C12185   6.614   4.205   7.224
   9123SM   C1412186   6.603   4.449   7.446
   9123SM  H14A12187   6.552   4.543   7.506
   9123SM  H14B12188   6.710   4.462   7.473
   9123SM  H14C12189   6.572   4.381   7.683
   9123SM   C1312190   6.596   4.506   6.738
   9123SM  H13A12191   6.554   4.602   6.834
   9123SM  H13B12192   6.551   4.484   6.447
   9123SM  H13C12193   6.703   4.517   6.705
   9123SM   C1212194   6.409   4.379   7.035
   9123SM  H12A12195   6.384   4.319   7.296
   9123SM  H12B12196   6.379   4.326   6.768
   9123SM   C1112197   6.317   4.503   7.044
   9123SM  H11A12198   6.211   4.469   7.074
   9123SM  H11B12199   6.324   4.557   6.753
   9123SM     P12200   6.342   4.741   7.359
   9123SM   O1312201   6.441   4.786   7.056
   9123SM   O1412202   6.202   4.785   7.296
   9123SM   O1112203   6.384   4.784   7.803
   9123SM   O1212204   6.349   4.584   7.377
   9123SM   C1S12205   6.444   4.686   8.064
   9123SM   H1S12206   6.552   4.681   7.992
   9123SM   H1T12207   6.403   4.583   8.028
   9123SM    NF12208   6.550   4.698   8.730
   9123SM   HNF12209   6.547   4.641   8.976
   9123SM   C2S12210   6.426   4.721   8.517
   9123SM   H2S12211   6.403   4.829   8.544
   9123SM   C3S12212   6.312   4.639   8.712
   9123SM   H3S12213   6.332   4.530   8.667
   9123SM    O312214   6.183   4.666   8.556
   9123SM   HO312215   6.196   4.703   8.292
   9123SM   C4S12216   6.306   4.668   9.156
   9123SM   H4S12217   6.261   4.764   9.234
   9123SM   C5S12218   6.351   4.585   9.447
   9123SM   H5S12219   6.395   4.488   9.363
   9123SM   C6S12220   6.346   4.612   9.891
   9123SM   H6S12221   6.449   4.613  10.020
   9123SM   H6T12222   6.293   4.527  10.032
   9123SM   C7S12223   6.277   4.743  10.014
   9123SM   H7S12224   6.175   4.748   9.885
   9123SM   H7T12225   6.335   4.831   9.900
   9123SM   C8S12226   6.262   4.757  10.470
   9123SM   H8S12227   6.205   4.850  10.536
   9123SM   H8T12228   6.363   4.768  10.605
   9123SM   C9S12229   6.193   4.636  10.665
   9123SM   H9S12230   6.265   4.551  10.677
   9123SM   H9T12231   6.106   4.606  10.482
   9123SM  C10S12232   6.148   4.666  11.094
   9123SM  H10S12233   6.096   4.577  11.217
   9123SM  H10T12234   6.075   4.751  11.091
   9123SM  C11S12235   6.267   4.703  11.358
   9123SM  H11S12236   6.311   4.799  11.250
   9123SM  H11T12237   6.344   4.624  11.331
   9123SM  C12S12238   6.231   4.718  11.799
   9123SM  H12S12239   6.137   4.776  11.808
   9123SM  H12T12240   6.311   4.772  11.964
   9123SM  C13S12241   6.197   4.588  12.006
   9123SM  H13S12242   6.281   4.515  11.982
   9123SM  H13T12243   6.108   4.546  11.853
   9123SM  C14S12244   6.159   4.611  12.444
   9123SM  H14S12245   6.113   4.518  12.546
   9123SM  H14T12246   6.084   4.692  12.471
   9123SM  C15S12247   6.275   4.635  12.729
   9123SM  H15S12248   6.321   4.734  12.669
   9123SM  H15T12249   6.352   4.556  12.678
   9123SM  C16S12250   6.230   4.624  13.167
   9123SM  H16S12251   6.182   4.524  13.200
   9123SM  H16T12252   6.160   4.706  13.242
   9123SM  C17S12253   6.345   4.631  13.458
   9123SM  H17S12254   6.389   4.734  13.452
   9123SM  H17T12255   6.414   4.560  13.314
   9123SM  C18S12256   6.321   4.585  13.890
   9123SM  H18S12257   6.282   4.481  13.893
   9123SM  H18T12258   6.253   4.652  14.052
   9123SM  H18U12259   6.416   4.587  14.061
   9123SM   C1F12260   6.660   4.765   8.646
   9123SM    OF12261   6.656   4.871   8.460
   9123SM   C2F12262   6.786   4.710   8.808
   9123SM   H2F12263   6.863   4.710   8.568
   9123SM   H2G12264   6.774   4.606   8.925
   9123SM   C3F12265   6.823   4.806   9.147
   9123SM   H3F12266   6.823   4.906   9.012
   9123SM   H3G12267   6.926   4.790   9.237
   9123SM   C4F12268   6.739   4.795   9.528
   9123SM   H4F12269   6.734   4.688   9.621
   9123SM   H4G12270   6.636   4.830   9.477
   9123SM   C5F12271   6.804   4.874   9.873
   9123SM   H5F12272   6.811   4.982   9.816
   9123SM   H5G12273   6.909   4.838   9.915
   9123SM   C6F12274   6.728   4.867  10.266
   9123SM   H6F12275   6.636   4.807  10.230
   9123SM   H6G12276   6.698   4.970  10.359
   9123SM   C7F12277   6.817   4.808  10.596
   9123SM   H7F12278   6.916   4.857  10.590
   9123SM   H7G12279   6.835   4.701  10.530
   9123SM   C8F12280   6.754   4.827  11.013
   9123SM   H8F12281   6.745   4.936  11.073
   9123SM   H8G12282   6.823   4.784  11.241
   9123SM   C9F12283   6.615   4.765  11.055
   9123SM   H9F12284   6.541   4.830  10.902
   9123SM   H9G12285   6.587   4.765  11.379
   9123SM  C10F12286   6.602   4.622  10.884
   9123SM  H10F12287   6.609   4.626  10.554
   9123SM  H10G12288   6.501   4.583  10.953
   9123SM  C11F12289   6.707   4.521  11.037
   9123SM  H11F12290   6.807   4.547  10.911
   9123SM  H11G12291   6.682   4.420  10.920
   9123SM  C12F12292   6.722   4.516  11.493
   9123SM  H12F12293   6.763   4.614  11.598
   9123SM  H12G12294   6.798   4.439  11.565
   9123SM  C13F12295   6.591   4.485  11.712
   9123SM  H13F12296   6.557   4.383  11.628
   9123SM  H13G12297   6.514   4.557  11.607
   9123SM  C14F12298   6.598   4.501  12.171
   9123SM  H14F12299   6.665   4.422  12.294
   9123SM  H14G12300   6.496   4.481  12.288
   9123SM  C15F12301   6.645   4.641  12.309
   9123SM  H15F12302   6.594   4.719  12.126
   9123SM  H15G12303   6.754   4.647  12.243
   9123SM  C16F12304   6.625   4.671  12.759
   9123SM  H16F12305   6.522   4.709  12.810
   9123SM  H16G12306   6.694   4.753  12.852
   9123SM  C17F12307   6.649   4.545  13.011
   9123SM  H17F12308   6.749   4.510  12.915
   9123SM  H17G12309   6.575   4.468  12.924
   9123SM  C18F12310   6.649   4.553  13.476
   9123SM  H18F12311   6.579   4.629  13.593
   9123SM  H18G12312   6.747   4.591  13.578
   9123SM  C19F12313   6.611   4.414  13.659
   9123SM  H19F12314   6.667   4.332  13.512
   9123SM  H19G12315   6.506   4.391  13.587
   9123SM  C20F12316   6.631   4.403  14.115
   9123SM  H20F12317   6.587   4.493  14.256
   9123SM  H20G12318   6.738   4.404  14.196
   9123SM  C21F12319   6.565   4.277  14.298
   9123SM  H21F12320   6.625   4.188  14.214
   9123SM  H21G12321   6.463   4.264  14.169
   9123SM  C22F12322   6.551   4.284  14.757
   9123SM  H22F12323   6.650   4.312  14.889
   9123SM  H22G12324   6.525   4.183  14.874
   9123SM  C23F12325   6.445   4.384  14.889
   9123SM  H23F12326   6.471   4.485  14.775
   9123SM  H23G12327   6.438   4.391  15.219
   9123SM  H23H12328   6.345   4.356  14.769
   9223SM     N12329   5.313   1.197   6.603
   9223SM   C1512330   5.231   1.073   6.615
   9223SM  H15A12331   5.158   1.075   6.375
   9223SM  H15B12332   5.177   1.068   6.900
   9223SM  H15C12333   5.293   0.985   6.588
   9223SM   C1412334   5.419   1.185   6.921
   9223SM  H14A12335   5.503   1.252   6.873
   9223SM  H14B12336   5.465   1.086   6.936
   9223SM  H14C12337   5.378   1.210   7.218
   9223SM   C1312338   5.377   1.204   6.198
   9223SM  H13A12339   5.424   1.301   6.150
   9223SM  H13B12340   5.307   1.193   5.952
   9223SM  H13C12341   5.454   1.129   6.174
   9223SM   C1212342   5.222   1.319   6.648
   9223SM  H12A12343   5.161   1.324   6.378
   9223SM  H12B12344   5.279   1.411   6.666
   9223SM   C1112345   5.120   1.321   6.993
   9223SM  H11A12346   5.061   1.227   6.990
   9223SM  H11B12347   5.047   1.404   6.921
   9223SM     P12348   5.085   1.335   7.734
   9223SM   O1312349   4.978   1.434   7.647
   9223SM   O1412350   5.050   1.192   7.773
   9223SM   O1112351   5.166   1.386   8.115
   9223SM   O1212352   5.187   1.342   7.371
   9223SM   C1S12353   5.097   1.432   8.466
   9223SM   H1S12354   4.988   1.452   8.415
   9223SM   H1T12355   5.141   1.528   8.571
   9223SM    NF12356   5.025   1.365   9.147
   9223SM   HNF12357   5.072   1.396   9.393
   9223SM   C2S12358   5.107   1.326   8.808
   9223SM   H2S12359   5.069   1.230   8.688
   9223SM   C3S12360   5.255   1.306   8.940
   9223SM   H3S12361   5.299   1.404   9.027
   9223SM    O312362   5.343   1.245   8.658
   9223SM   HO312363   5.292   1.237   8.415
   9223SM   C4S12364   5.252   1.216   9.306
   9223SM   H4S12365   5.212   1.115   9.249
   9223SM   C5S12366   5.289   1.251   9.681
   9223SM   H5S12367   5.327   1.353   9.732
   9223SM   C6S12368   5.285   1.163  10.047
   9223SM   H6S12369   5.385   1.117  10.098
   9223SM   H6T12370   5.213   1.080  10.011
   9223SM   C7S12371   5.245   1.241  10.428
   9223SM   H7S12372   5.134   1.247  10.443
   9223SM   H7T12373   5.283   1.346  10.416
   9223SM   C8S12374   5.296   1.180  10.827
   9223SM   H8S12375   5.407   1.186  10.830
   9223SM   H8T12376   5.268   1.073  10.845
   9223SM   C9S12377   5.240   1.254  11.193
   9223SM   H9S12378   5.136   1.222  11.262
   9223SM   H9T12379   5.231   1.361  11.103
   9223SM  C10S12380   5.329   1.255  11.568
   9223SM  H10S12381   5.312   1.354  11.706
   9223SM  H10T12382   5.437   1.253  11.490
   9223SM  C11S12383   5.300   1.157  11.916
   9223SM  H11S12384   5.331   1.054  11.838
   9223SM  H11T12385   5.192   1.157  11.988
   9223SM  C12S12386   5.378   1.208  12.282
   9223SM  H12S12387   5.367   1.319  12.297
   9223SM  H12T12388   5.486   1.188  12.249
   9223SM  C13S12389   5.327   1.155  12.684
   9223SM  H13S12390   5.354   1.048  12.720
   9223SM  H13T12391   5.216   1.165  12.699
   9223SM  C14S12392   5.387   1.235  13.029
   9223SM  H14S12393   5.358   1.343  13.005
   9223SM  H14T12394   5.497   1.231  13.005
   9223SM  C15S12395   5.340   1.184  13.437
   9223SM  H15S12396   5.408   1.100  13.527
   9223SM  H15T12397   5.237   1.143  13.410
   9223SM  C16S12398   5.339   1.293  13.758
   9223SM  H16S12399   5.237   1.336  13.755
   9223SM  H16T12400   5.407   1.377  13.677
   9223SM  C17S12401   5.370   1.236  14.175
   9223SM  H17S12402   5.450   1.160  14.142
   9223SM  H17T12403   5.278   1.183  14.277
   9223SM  C18S12404   5.413   1.336  14.496
   9223SM  H18S12405   5.514   1.376  14.436
   9223SM  H18T12406   5.414   1.285  14.790
   9223SM  H18U12407   5.344   1.423  14.511
   9223SM   C1F12408   4.892   1.355   9.135
   9223SM    OF12409   4.835   1.318   8.835
   9223SM   C2F12410   4.821   1.388   9.516
   9223SM   H2F12411   4.711   1.388   9.459
   9223SM   H2G12412   4.850   1.491   9.600
   9223SM   C3F12413   4.854   1.286   9.849
   9223SM   H3F12414   4.959   1.250   9.834
   9223SM   H3G12415   4.788   1.197   9.813
   9223SM   C4F12416   4.836   1.347  10.269
   9223SM   H4F12417   4.855   1.270  10.500
   9223SM   H4G12418   4.731   1.382  10.308
   9223SM   C5F12419   4.934   1.464  10.332
   9223SM   H5F12420   4.893   1.554  10.176
   9223SM   H5G12421   5.032   1.440  10.197
   9223SM   C6F12422   4.955   1.498  10.773
   9223SM   H6F12423   5.015   1.418  10.917
   9223SM   H6G12424   4.856   1.497  10.917
   9223SM   C7F12425   5.022   1.636  10.833
   9223SM   H7F12426   4.997   1.703  10.578
   9223SM   H7G12427   5.132   1.620  10.824
   9223SM   C8F12428   4.982   1.708  11.226
   9223SM   H8F12429   4.889   1.765  11.181
   9223SM   H8G12430   5.059   1.783  11.313
   9223SM   C9F12431   4.961   1.615  11.580
   9223SM   H9F12432   4.910   1.520  11.499
   9223SM   H9G12433   4.901   1.661  11.823
   9223SM  C10F12434   5.098   1.582  11.730
   9223SM  H10F12435   5.149   1.676  11.835
   9223SM  H10G12436   5.153   1.543  11.463
   9223SM  C11F12437   5.099   1.476  12.048
   9223SM  H11F12438   5.206   1.452  12.114
   9223SM  H11G12439   5.051   1.384  11.931
   9223SM  C12F12440   5.038   1.519  12.444
   9223SM  H12F12441   4.927   1.517  12.426
   9223SM  H12G12442   5.071   1.623  12.516
   9223SM  C13F12443   5.092   1.421  12.753
   9223SM  H13F12444   5.203   1.434  12.759
   9223SM  H13G12445   5.070   1.318  12.642
   9223SM  C14F12446   5.037   1.434  13.176
   9223SM  H14F12447   5.087   1.357  13.365
   9223SM  H14G12448   4.929   1.408  13.164
   9223SM  C15F12449   5.055   1.571  13.371
   9223SM  H15F12450   5.011   1.647  13.167
   9223SM  H15G12451   5.162   1.595  13.413
   9223SM  C16F12452   4.982   1.577  13.776
   9223SM  H16F12453   4.885   1.524  13.755
   9223SM  H16G12454   4.961   1.681  13.872
   9223SM  C17F12455   5.065   1.523  14.118
   9223SM  H17F12456   5.153   1.589  14.169
   9223SM  H17G12457   5.100   1.420  14.061
   9223SM  C18F12458   4.976   1.516  14.484
   9223SM  H18F12459   4.879   1.468  14.403
   9223SM  H18G12460   4.953   1.619  14.589
   9223SM  C19F12461   5.045   1.434  14.805
   9223SM  H19F12462   5.155   1.437  14.748
   9223SM  H19G12463   5.014   1.328  14.772
   9223SM  C20F12464   5.020   1.493  15.219
   9223SM  H20F12465   4.912   1.486  15.288
   9223SM  H20G12466   5.046   1.601  15.195
   9223SM  C21F12467   5.103   1.434  15.558
   9223SM  H21F12468   5.123   1.327  15.489
   9223SM  H21G12469   5.049   1.437  15.849
   9223SM  C22F12470   5.237   1.508  15.603
   9223SM  H22F12471   5.271   1.548  15.312
   9223SM  H22G12472   5.302   1.422  15.666
   9223SM  C23F12473   5.252   1.616  15.930
   9223SM  H23F12474   5.253   1.574  16.239
   9223SM  H23G12475   5.174   1.694  15.912
   9223SM  H23H12476   5.349   1.670  15.894
   9323SM     N12477   6.825   3.768   6.699
   9323SM   C1512478   6.742   3.701   7.014
   9323SM  H15A12479   6.785   3.605   7.089
   9323SM  H15B12480   6.640   3.685   6.915
   9323SM  H15C12481   6.739   3.764   7.281
   9323SM   C1412482   6.823   3.689   6.327
   9323SM  H14A12483   6.873   3.595   6.363
   9323SM  H14B12484   6.868   3.741   6.075
   9323SM  H14C12485   6.721   3.666   6.234
   9323SM   C1312486   6.771   3.904   6.624
   9323SM  H13A12487   6.761   3.956   6.909
   9323SM  H13B12488   6.676   3.905   6.471
   9323SM  H13C12489   6.841   3.965   6.450
   9323SM   C1212490   6.967   3.781   6.861
   9323SM  H12A12491   7.025   3.837   6.645
   9323SM  H12B12492   7.011   3.683   6.894
   9323SM   C1112493   6.986   3.850   7.272
   9323SM  H11A12494   7.095   3.858   7.338
   9323SM  H11B12495   6.943   3.782   7.509
   9323SM     P12496   6.873   4.037   7.689
   9323SM   O1312497   6.885   4.185   7.698
   9323SM   O1412498   6.739   3.980   7.770
   9323SM   O1112499   6.979   3.972   7.992
   9323SM   O1212500   6.928   3.981   7.275
   9323SM   C1S12501   7.011   4.044   8.349
   9323SM   H1S12502   6.921   4.095   8.472
   9323SM   H1T12503   7.088   4.121   8.283
   9323SM    NF12504   6.979   3.841   8.769
   9323SM   HNF12505   6.926   3.848   9.018
   9323SM   C2S12506   7.065   3.955   8.700
   9323SM   H2S12507   7.167   3.920   8.625
   9323SM   C3S12508   7.066   4.042   9.087
   9323SM   H3S12509   6.962   4.077   9.144
   9323SM    O312510   7.146   4.160   9.081
   9323SM   HO312511   7.215   4.150   8.880
   9323SM   C4S12512   7.108   3.954   9.435
   9323SM   H4S12513   7.197   3.893   9.378
   9323SM   C5S12514   7.044   3.941   9.795
   9323SM   H5S12515   6.954   4.000   9.858
   9323SM   C6S12516   7.090   3.849  10.128
   9323SM   H6S12517   7.195   3.816  10.086
   9323SM   H6T12518   7.028   3.757  10.116
   9323SM   C7S12519   7.076   3.901  10.563
   9323SM   H7S12520   6.973   3.940  10.611
   9323SM   H7T12521   7.145   3.986  10.620
   9323SM   C8S12522   7.099   3.788  10.866
   9323SM   H8S12523   7.208   3.767  10.887
   9323SM   H8T12524   7.047   3.698  10.755
   9323SM   C9S12525   7.047   3.818  11.289
   9323SM   H9S12526   7.063   3.728  11.481
   9323SM   H9T12527   6.937   3.836  11.280
   9323SM  C10S12528   7.121   3.939  11.457
   9323SM  H10S12529   7.075   4.031  11.331
   9323SM  H10T12530   7.226   3.933  11.340
   9323SM  C11S12531   7.130   3.949  11.913
   9323SM  H11S12532   7.124   3.849  12.051
   9323SM  H11T12533   7.044   4.010  12.021
   9323SM  C12S12534   7.265   4.009  12.045
   9323SM  H12S12535   7.302   4.085  11.829
   9323SM  H12T12536   7.340   3.928  12.060
   9323SM  C13S12537   7.261   4.073  12.456
   9323SM  H13S12538   7.270   3.989  12.678
   9323SM  H13T12539   7.163   4.122  12.492
   9323SM  C14S12540   7.374   4.176  12.519
   9323SM  H14S12541   7.368   4.252  12.279
   9323SM  H14T12542   7.468   4.118  12.471
   9323SM  C15S12543   7.377   4.246  12.930
   9323SM  H15S12544   7.481   4.284  12.978
   9323SM  H15T12545   7.309   4.335  12.945
   9323SM  C16S12546   7.337   4.147  13.260
   9323SM  H16S12547   7.380   4.179  13.551
   9323SM  H16T12548   7.384   4.050  13.188
   9323SM  C17S12549   7.185   4.135  13.323
   9323SM  H17S12550   7.128   4.123  13.041
   9323SM  H17T12551   7.148   4.233  13.431
   9323SM  C18S12552   7.140   4.020  13.590
   9323SM  H18S12553   7.030   4.010  13.572
   9323SM  H18T12554   7.169   4.037  13.905
   9323SM  H18U12555   7.182   3.924  13.482
   9323SM   C1F12556   6.962   3.730   8.559
   9323SM    OF12557   7.039   3.691   8.298
   9323SM   C2F12558   6.847   3.646   8.694
   9323SM   H2F12559   6.879   3.540   8.697
   9323SM   H2G12560   6.765   3.658   8.472
   9323SM   C3F12561   6.795   3.686   9.117
   9323SM   H3F12562   6.763   3.793   9.123
   9323SM   H3G12563   6.873   3.671   9.351
   9323SM   C4F12564   6.670   3.605   9.225
   9323SM   H4F12565   6.699   3.499   9.276
   9323SM   H4G12566   6.604   3.614   8.958
   9323SM   C5F12567   6.588   3.656   9.582
   9323SM   H5F12568   6.481   3.635   9.525
   9323SM   H5G12569   6.598   3.766   9.603
   9323SM   C6F12570   6.623   3.588   9.984
   9323SM   H6F12571   6.680   3.494   9.927
   9323SM   H6G12572   6.529   3.558  10.140
   9323SM   C7F12573   6.702   3.681  10.257
   9323SM   H7F12574   6.788   3.723  10.083
   9323SM   H7G12575   6.745   3.625  10.515
   9323SM   C8F12576   6.615   3.795  10.416
   9323SM   H8F12577   6.548   3.754  10.653
   9323SM   H8G12578   6.549   3.836  10.176
   9323SM   C9F12579   6.698   3.911  10.575
   9323SM   H9F12580   6.759   3.954  10.326
   9323SM   H9G12581   6.770   3.873  10.803
   9323SM  C10F12582   6.612   4.023  10.755
   9323SM  H10F12583   6.538   4.058  10.527
   9323SM  H10G12584   6.678   4.108  10.836
   9323SM  C11F12585   6.536   3.979  11.130
   9323SM  H11F12586   6.462   3.900  11.061
   9323SM  H11G12587   6.479   4.066  11.250
   9323SM  C12F12588   6.630   3.927  11.457
   9323SM  H12F12589   6.718   3.995  11.478
   9323SM  H12G12590   6.670   3.827  11.373
   9323SM  C13F12591   6.557   3.918  11.856
   9323SM  H13F12592   6.598   3.832  12.024
   9323SM  H13G12593   6.450   3.893  11.802
   9323SM  C14F12594   6.568   4.049  12.093
   9323SM  H14F12595   6.497   4.046  12.351
   9323SM  H14G12596   6.538   4.135  11.898
   9323SM  C15F12597   6.709   4.071  12.258
   9323SM  H15F12598   6.717   4.173  12.393
   9323SM  H15G12599   6.787   4.064  12.021
   9323SM  C16F12600   6.734   3.966  12.582
   9323SM  H16F12601   6.719   3.863  12.462
   9323SM  H16G12602   6.656   3.982  12.816
   9323SM  C17F12603   6.872   3.961  12.765
   9323SM  H17F12604   6.901   4.061  12.879
   9323SM  H17G12605   6.948   3.929  12.543
   9323SM  C18F12606   6.866   3.864  13.119
   9323SM  H18F12607   6.969   3.836  13.206
   9323SM  H18G12608   6.813   3.771  13.026
   9323SM  C19F12609   6.791   3.932  13.461
   9323SM  H19F12610   6.681   3.920  13.410
   9323SM  H19G12611   6.811   4.041  13.452
   9323SM  C20F12612   6.825   3.882  13.884
   9323SM  H20F12613   6.925   3.914  13.983
   9323SM  H20G12614   6.828   3.772  13.872
   9323SM  C21F12615   6.721   3.936  14.181
   9323SM  H21F12616   6.629   3.964  14.007
   9323SM  H21G12617   6.760   4.029  14.319
   9323SM  C22F12618   6.677   3.837  14.502
   9323SM  H22F12619   6.597   3.884  14.691
   9323SM  H22G12620   6.763   3.818  14.703
   9323SM  C23F12621   6.622   3.704  14.334
   9323SM  H23F12622   6.595   3.633  14.577
   9323SM  H23G12623   6.697   3.653  14.145
   9323SM  H23H12624   6.531   3.723  14.151
   9423SM     N12625   5.197   6.710   6.648
   9423SM   C1512626   5.058   6.725   6.804
   9423SM  H15A12627   5.057   6.720   7.131
   9423SM  H15B12628   4.990   6.651   6.684
   9423SM  H15C12629   5.017   6.823   6.735
   9423SM   C1412630   5.240   6.571   6.744
   9423SM  H14A12631   5.155   6.504   6.738
   9423SM  H14B12632   5.275   6.565   7.056
   9423SM  H14C12633   5.319   6.534   6.555
   9423SM   C1312634   5.192   6.729   6.201
   9423SM  H13A12635   5.151   6.827   6.129
   9423SM  H13B12636   5.123   6.657   6.069
   9423SM  H13C12637   5.288   6.718   6.054
   9423SM   C1212638   5.287   6.809   6.867
   9423SM  H12A12639   5.250   6.909   6.813
   9423SM  H12B12640   5.386   6.802   6.744
   9423SM   C1112641   5.303   6.792   7.332
   9423SM  H11A12642   5.202   6.804   7.473
   9423SM  H11B12643   5.365   6.875   7.449
   9423SM     P12644   5.490   6.636   7.674
   9423SM   O1312645   5.555   6.517   7.494
   9423SM   O1412646   5.571   6.759   7.671
   9423SM   O1112647   5.438   6.603   8.112
   9423SM   O1212648   5.356   6.664   7.437
   9423SM   C1S12649   5.298   6.598   8.202
   9423SM   H1S12650   5.249   6.511   8.049
   9423SM   H1T12651   5.245   6.688   8.091
   9423SM    NF12652   5.312   6.707   8.868
   9423SM   HNF12653   5.399   6.702   9.006
   9423SM   C2S12654   5.268   6.587   8.661
   9423SM   H2S12655   5.158   6.578   8.703
   9423SM   C3S12656   5.335   6.459   8.841
   9423SM   H3S12657   5.445   6.467   8.811
   9423SM    O312658   5.294   6.337   8.646
   9423SM   HO312659   5.241   6.365   8.421
   9423SM   C4S12660   5.298   6.447   9.276
   9423SM   H4S12661   5.193   6.422   9.336
   9423SM   C5S12662   5.384   6.460   9.588
   9423SM   H5S12663   5.490   6.477   9.525
   9423SM   C6S12664   5.345   6.448  10.023
   9423SM   H6S12665   5.253   6.508  10.086
   9423SM   H6T12666   5.425   6.491  10.218
   9423SM   C7S12667   5.319   6.303  10.161
   9423SM   H7S12668   5.411   6.241  10.146
   9423SM   H7T12669   5.244   6.257   9.954
   9423SM   C8S12670   5.259   6.295  10.584
   9423SM   H8S12671   5.195   6.204  10.611
   9423SM   H8T12672   5.194   6.384  10.629
   9423SM   C9S12673   5.358   6.295  10.929
   9423SM   H9S12674   5.430   6.379  10.896
   9423SM   H9T12675   5.416   6.200  10.932
   9423SM  C10S12676   5.280   6.312  11.322
   9423SM  H10S12677   5.210   6.225  11.355
   9423SM  H10T12678   5.218   6.404  11.304
   9423SM  C11S12679   5.367   6.321  11.691
   9423SM  H11S12680   5.430   6.413  11.679
   9423SM  H11T12681   5.435   6.233  11.700
   9423SM  C12S12682   5.283   6.322  12.075
   9423SM  H12S12683   5.223   6.229  12.090
   9423SM  H12T12684   5.214   6.409  12.081
   9423SM  C13S12685   5.380   6.330  12.423
   9423SM  H13S12686   5.425   6.432  12.420
   9423SM  H13T12687   5.461   6.255  12.378
   9423SM  C14S12688   5.324   6.309  12.840
   9423SM  H14S12689   5.280   6.208  12.876
   9423SM  H14T12690   5.247   6.386  12.909
   9423SM  C15S12691   5.443   6.319  13.125
   9423SM  H15S12692   5.498   6.415  13.074
   9423SM  H15T12693   5.512   6.235  13.056
   9423SM  C16S12694   5.401   6.310  13.557
   9423SM  H16S12695   5.325   6.229  13.590
   9423SM  H16T12696   5.354   6.406  13.647
   9423SM  C17S12697   5.517   6.281  13.830
   9423SM  H17S12698   5.603   6.349  13.767
   9423SM  H17T12699   5.551   6.177  13.779
   9423SM  C18S12700   5.469   6.299  14.256
   9423SM  H18S12701   5.544   6.273  14.484
   9423SM  H18T12702   5.379   6.236  14.289
   9423SM  H18U12703   5.434   6.402  14.310
   9423SM   C1F12704   5.257   6.825   8.778
   9423SM    OF12705   5.148   6.831   8.619
   9423SM   C2F12706   5.341   6.947   8.850
   9423SM   H2F12707   5.330   7.012   8.580
   9423SM   H2G12708   5.448   6.921   8.880
   9423SM   C3F12709   5.294   7.030   9.216
   9423SM   H3F12710   5.183   7.025   9.243
   9423SM   H3G12711   5.323   7.136   9.153
   9423SM   C4F12712   5.360   6.991   9.615
   9423SM   H4F12713   5.470   6.978   9.576
   9423SM   H4G12714   5.319   6.894   9.726
   9423SM   C5F12715   5.338   7.098   9.936
   9423SM   H5F12716   5.229   7.096  10.005
   9423SM   H5G12717   5.360   7.200   9.825
   9423SM   C6F12718   5.417   7.069  10.320
   9423SM   H6F12719   5.496   7.146  10.371
   9423SM   H6G12720   5.470   6.973  10.281
   9423SM   C7F12721   5.317   7.064  10.665
   9423SM   H7F12722   5.222   7.021  10.545
   9423SM   H7G12723   5.294   7.168  10.770
   9423SM   C8F12724   5.346   6.977  11.031
   9423SM   H8F12725   5.248   6.930  11.106
   9423SM   H8G12726   5.372   7.044  11.283
   9423SM   C9F12727   5.446   6.862  10.998
   9423SM   H9F12728   5.548   6.907  10.977
   9423SM   H9G12729   5.428   6.803  10.722
   9423SM  C10F12730   5.439   6.771  11.373
   9423SM  H10F12731   5.516   6.692  11.355
   9423SM  H10G12732   5.340   6.719  11.376
   9423SM  C11F12733   5.455   6.847  11.772
   9423SM  H11F12734   5.386   6.934  11.790
   9423SM  H11G12735   5.559   6.886  11.787
   9423SM  C12F12736   5.424   6.763  12.147
   9423SM  H12F12737   5.462   6.660  12.105
   9423SM  H12G12738   5.314   6.756  12.189
   9423SM  C13F12739   5.489   6.826  12.516
   9423SM  H13F12740   5.437   6.919  12.606
   9423SM  H13G12741   5.592   6.857  12.426
   9423SM  C14F12742   5.505   6.730  12.867
   9423SM  H14F12743   5.549   6.635  12.753
   9423SM  H14G12744   5.408   6.705  13.011
   9423SM  C15F12745   5.603   6.791  13.167
   9423SM  H15F12746   5.554   6.872  13.341
   9423SM  H15G12747   5.686   6.838  12.993
   9423SM  C16F12748   5.668   6.687  13.443
   9423SM  H16F12749   5.778   6.695  13.392
   9423SM  H16G12750   5.637   6.584  13.362
   9423SM  C17F12751   5.644   6.715  13.887
   9423SM  H17F12752   5.639   6.825  13.920
   9423SM  H17G12753   5.730   6.677  14.061
   9423SM  C18F12754   5.518   6.652  14.061
   9423SM  H18F12755   5.526   6.544  14.007
   9423SM  H18G12756   5.427   6.687  13.896
   9423SM  C19F12757   5.501   6.683  14.511
   9423SM  H19F12758   5.591   6.661  14.688
   9423SM  H19G12759   5.420   6.616  14.616
   9423SM  C20F12760   5.455   6.828  14.568
   9423SM  H20F12761   5.344   6.824  14.583
   9423SM  H20G12762   5.478   6.882  14.283
   9423SM  C21F12763   5.513   6.914  14.913
   9423SM  H21F12764   5.623   6.918  14.895
   9423SM  H21G12765   5.494   6.870  15.210
   9423SM  C22F12766   5.456   7.057  14.871
   9423SM  H22F12767   5.352   7.057  14.982
   9423SM  H22G12768   5.453   7.078  14.541
   9423SM  C23F12769   5.526   7.177  15.066
   9423SM  H23F12770   5.482   7.271  14.946
   9423SM  H23G12771   5.634   7.179  14.997
   9423SM  H23H12772   5.514   7.178  15.396
   9523SM     N12773   1.170   1.712   6.552
   9523SM   C1512774   1.035   1.774   6.489
   9523SM  H15A12775   1.042   1.882   6.474
   9523SM  H15B12776   0.966   1.748   6.726
   9523SM  H15C12777   0.995   1.741   6.204
   9523SM   C1412778   1.160   1.564   6.516
   9523SM  H14A12779   1.258   1.520   6.558
   9523SM  H14B12780   1.125   1.538   6.216
   9523SM  H14C12781   1.089   1.527   6.735
   9523SM   C1312782   1.261   1.759   6.228
   9523SM  H13A12783   1.353   1.702   6.210
   9523SM  H13B12784   1.289   1.863   6.270
   9523SM  H13C12785   1.209   1.753   5.943
   9523SM   C1212786   1.224   1.751   6.951
   9523SM  H12A12787   1.229   1.860   6.972
   9523SM  H12B12788   1.327   1.718   6.990
   9523SM   C1112789   1.148   1.702   7.320
   9523SM  H11A12790   1.168   1.594   7.380
   9523SM  H11B12791   1.038   1.715   7.287
   9523SM     P12792   1.336   1.779   7.821
   9523SM   O1312793   1.432   1.776   7.479
   9523SM   O1412794   1.347   1.893   8.103
   9523SM   O1112795   1.334   1.638   8.043
   9523SM   O1212796   1.191   1.783   7.638
   9523SM   C1S12797   1.422   1.602   8.364
   9523SM   H1S12798   1.496   1.684   8.430
   9523SM   H1T12799   1.482   1.513   8.277
   9523SM    NF12800   1.434   1.532   9.096
   9523SM   HNF12801   1.415   1.451   9.261
   9523SM   C2S12802   1.345   1.568   8.763
   9523SM   H2S12803   1.290   1.661   8.844
   9523SM   C3S12804   1.240   1.454   8.715
   9523SM   H3S12805   1.293   1.357   8.691
   9523SM    O312806   1.157   1.461   8.367
   9523SM   HO312807   1.201   1.526   8.199
   9523SM   C4S12808   1.153   1.452   9.087
   9523SM   H4S12809   1.089   1.540   9.120
   9523SM   C5S12810   1.152   1.358   9.381
   9523SM   H5S12811   1.222   1.273   9.360
   9523SM   C6S12812   1.065   1.359   9.753
   9523SM   H6S12813   1.025   1.256   9.804
   9523SM   H6T12814   0.977   1.426   9.714
   9523SM   C7S12815   1.135   1.402  10.146
   9523SM   H7S12816   1.168   1.508  10.125
   9523SM   H7T12817   1.228   1.342  10.176
   9523SM   C8S12818   1.046   1.385  10.521
   9523SM   H8S12819   1.016   1.278  10.548
   9523SM   H8T12820   0.954   1.445  10.482
   9523SM   C9S12821   1.113   1.427  10.917
   9523SM   H9S12822   1.168   1.522  10.878
   9523SM   H9T12823   1.189   1.349  10.989
   9523SM  C10S12824   1.019   1.440  11.283
   9523SM  H10S12825   0.935   1.367  11.259
   9523SM  H10T12826   0.977   1.543  11.292
   9523SM  C11S12827   1.099   1.410  11.664
   9523SM  H11S12828   1.197   1.463  11.640
   9523SM  H11T12829   1.118   1.301  11.664
   9523SM  C12S12830   1.040   1.445  12.072
   9523SM  H12S12831   0.941   1.397  12.114
   9523SM  H12T12832   1.028   1.555  12.099
   9523SM  C13S12833   1.138   1.396  12.396
   9523SM  H13S12834   1.230   1.458  12.381
   9523SM  H13T12835   1.167   1.290  12.336
   9523SM  C14S12836   1.081   1.403  12.822
   9523SM  H14S12837   1.002   1.326  12.864
   9523SM  H14T12838   1.034   1.503  12.864
   9523SM  C15S12839   1.190   1.386  13.140
   9523SM  H15S12840   1.149   1.429  13.419
   9523SM  H15T12841   1.280   1.446  13.059
   9523SM  C16S12842   1.231   1.240  13.209
   9523SM  H16S12843   1.288   1.201  12.951
   9523SM  H16T12844   1.140   1.176  13.242
   9523SM  C17S12845   1.319   1.221  13.578
   9523SM  H17S12846   1.416   1.274  13.533
   9523SM  H17T12847   1.341   1.112  13.611
   9523SM  C18S12848   1.255   1.270  13.962
   9523SM  H18S12849   1.171   1.203  14.037
   9523SM  H18T12850   1.216   1.374  13.947
   9523SM  H18U12851   1.329   1.270  14.211
   9523SM   C1F12852   1.520   1.620   9.240
   9523SM    OF12853   1.517   1.737   9.138
   9523SM   C2F12854   1.624   1.576   9.522
   9523SM   H2F12855   1.669   1.668   9.654
   9523SM   H2G12856   1.703   1.523   9.351
   9523SM   C3F12857   1.578   1.486   9.864
   9523SM   H3F12858   1.551   1.383   9.762
   9523SM   H3G12859   1.491   1.528  10.032
   9523SM   C4F12860   1.701   1.482  10.131
   9523SM   H4F12861   1.724   1.586  10.230
   9523SM   H4G12862   1.789   1.444   9.960
   9523SM   C5F12863   1.682   1.398  10.497
   9523SM   H5F12864   1.676   1.290  10.410
   9523SM   H5G12865   1.586   1.425  10.647
   9523SM   C6F12866   1.798   1.421  10.782
   9523SM   H6F12867   1.805   1.527  10.878
   9523SM   H6G12868   1.895   1.390  10.644
   9523SM   C7F12869   1.761   1.333  11.127
   9523SM   H7F12870   1.760   1.226  11.028
   9523SM   H7G12871   1.655   1.360  11.205
   9523SM   C8F12872   1.841   1.348  11.505
   9523SM   H8F12873   1.859   1.454  11.589
   9523SM   H8G12874   1.938   1.296  11.499
   9523SM   C9F12875   1.760   1.275  11.814
   9523SM   H9F12876   1.834   1.215  11.985
   9523SM   H9G12877   1.695   1.202  11.655
   9523SM  C10F12878   1.685   1.369  12.093
   9523SM  H10F12879   1.580   1.392  12.012
   9523SM  H10G12880   1.734   1.469  12.081
   9523SM  C11F12881   1.695   1.311  12.510
   9523SM  H11F12882   1.734   1.207  12.507
   9523SM  H11G12883   1.595   1.306  12.654
   9523SM  C12F12884   1.784   1.403  12.750
   9523SM  H12F12885   1.864   1.444  12.555
   9523SM  H12G12886   1.834   1.358  13.011
   9523SM  C13F12887   1.690   1.509  12.900
   9523SM  H13F12888   1.618   1.465  13.122
   9523SM  H13G12889   1.629   1.548  12.645
   9523SM  C14F12890   1.766   1.622  13.083
   9523SM  H14F12891   1.853   1.649  12.891
   9523SM  H14G12892   1.806   1.593  13.383
   9523SM  C15F12893   1.672   1.741  13.101
   9523SM  H15F12894   1.640   1.767  12.792
   9523SM  H15G12895   1.736   1.819  13.233
   9523SM  C16F12896   1.551   1.725  13.371
   9523SM  H16F12897   1.494   1.633  13.302
   9523SM  H16G12898   1.481   1.811  13.326
   9523SM  C17F12899   1.601   1.725  13.800
   9523SM  H17F12900   1.648   1.823  13.872
   9523SM  H17G12901   1.679   1.646  13.833
   9523SM  C18F12902   1.493   1.692  14.103
   9523SM  H18F12903   1.550   1.661  14.373
   9523SM  H18G12904   1.431   1.607  14.001
   9523SM  C19F12905   1.405   1.813  14.199
   9523SM  H19F12906   1.344   1.842  13.935
   9523SM  H19G12907   1.471   1.899  14.268
   9523SM  C20F12908   1.314   1.783  14.559
   9523SM  H20F12909   1.245   1.700  14.475
   9523SM  H20G12910   1.253   1.873  14.631
   9523SM  C21F12911   1.393   1.740  14.931
   9523SM  H21F12912   1.469   1.817  15.009
   9523SM  H21G12913   1.448   1.646  14.877
   9523SM  C22F12914   1.302   1.713  15.288
   9523SM  H22F12915   1.229   1.634  15.195
   9523SM  H22G12916   1.245   1.805  15.366
   9523SM  C23F12917   1.383   1.663  15.648
   9523SM  H23F12918   1.317   1.614  15.873
   9523SM  H23G12919   1.436   1.747  15.792
   9523SM  H23H12920   1.460   1.590  15.543
   9623SM     N12921   2.629   8.060   6.798
   9623SM   C1512922   2.755   8.125   6.651
   9623SM  H15A12923   2.762   8.119   6.330
   9623SM  H15B12924   2.842   8.076   6.783
   9623SM  H15C12925   2.759   8.229   6.735
   9623SM   C1412926   2.511   8.129   6.621
   9623SM  H14A12927   2.418   8.082   6.699
   9623SM  H14B12928   2.519   8.135   6.294
   9623SM  H14C12929   2.506   8.233   6.720
   9623SM   C1312930   2.633   7.914   6.699
   9623SM  H13A12931   2.717   7.872   6.870
   9623SM  H13B12932   2.650   7.897   6.387
   9623SM  H13C12933   2.547   7.860   6.807
   9623SM   C1212934   2.623   8.066   7.251
   9623SM  H12A12935   2.548   7.994   7.344
   9623SM  H12B12936   2.587   8.164   7.347
   9623SM   C1112937   2.753   8.038   7.488
   9623SM  H11A12938   2.717   8.018   7.800
   9623SM  H11B12939   2.815   8.130   7.497
   9623SM     P12940   2.877   7.805   7.551
   9623SM   O1312941   2.779   7.698   7.461
   9623SM   O1412942   3.021   7.778   7.491
   9623SM   O1112943   2.859   7.854   7.992
   9623SM   O1212944   2.830   7.933   7.320
   9623SM   C1S12945   2.793   7.772   8.280
   9623SM   H1S12946   2.833   7.669   8.268
   9623SM   H1T12947   2.684   7.768   8.220
   9623SM    NF12948   2.764   7.742   9.021
   9623SM   HNF12949   2.685   7.776   9.174
   9623SM   C2S12950   2.813   7.831   8.706
   9623SM   H2S12951   2.922   7.849   8.751
   9623SM   C3S12952   2.741   7.970   8.715
   9623SM   H3S12953   2.639   7.962   8.592
   9623SM    O312954   2.803   8.067   8.472
   9623SM   HO312955   2.857   8.016   8.286
   9623SM   C4S12956   2.736   8.018   9.138
   9623SM   H4S12957   2.827   8.069   9.243
   9623SM   C5S12958   2.629   8.003   9.381
   9623SM   H5S12959   2.540   7.950   9.273
   9623SM   C6S12960   2.623   8.048   9.813
   9623SM   H6S12961   2.551   8.131   9.855
   9623SM   H6T12962   2.722   8.082   9.918
   9623SM   C7S12963   2.580   7.925  10.062
   9623SM   H7S12964   2.636   7.835   9.954
   9623SM   H7T12965   2.471   7.903  10.011
   9623SM   C8S12966   2.608   7.933  10.512
   9623SM   H8S12967   2.714   7.961  10.560
   9623SM   H8T12968   2.593   7.833  10.644
   9623SM   C9S12969   2.516   8.028  10.749
   9623SM   H9S12970   2.418   7.978  10.806
   9623SM   H9T12971   2.497   8.117  10.560
   9623SM  C10S12972   2.581   8.075  11.145
   9623SM  H10S12973   2.521   8.160  11.253
   9623SM  H10T12974   2.684   8.112  11.082
   9623SM  C11S12975   2.585   7.972  11.484
   9623SM  H11S12976   2.643   7.885  11.382
   9623SM  H11T12977   2.480   7.939  11.526
   9623SM  C12S12978   2.643   8.025  11.886
   9623SM  H12S12979   2.622   8.133  11.916
   9623SM  H12T12980   2.754   8.013  11.883
   9623SM  C13S12981   2.583   7.951  12.249
   9623SM  H13S12982   2.639   7.857  12.303
   9623SM  H13T12983   2.477   7.929  12.168
   9623SM  C14S12984   2.571   8.016  12.663
   9623SM  H14S12985   2.503   8.104  12.648
   9623SM  H14T12986   2.669   8.047  12.786
   9623SM  C15S12987   2.506   7.917  12.954
   9623SM  H15S12988   2.563   7.822  13.002
   9623SM  H15T12989   2.410   7.894  12.798
   9623SM  C16S12990   2.480   7.992  13.341
   9623SM  H16S12991   2.426   8.081  13.227
   9623SM  H16T12992   2.578   8.023  13.470
   9623SM  C17S12993   2.393   7.933  13.674
   9623SM  H17S12994   2.294   7.906  13.542
   9623SM  H17T12995   2.373   8.013  13.899
   9623SM  C18S12996   2.459   7.818  13.899
   9623SM  H18S12997   2.406   7.794  14.184
   9623SM  H18T12998   2.566   7.838  13.953
   9623SM  H18U12999   2.459   7.726  13.725
   9623SM   C1F13000   2.809   7.619   9.093
   9623SM    OF13001   2.879   7.559   8.850
   9623SM   C2F13002   2.758   7.550   9.465
   9623SM   H2F13003   2.689   7.470   9.363
   9623SM   H2G13004   2.700   7.621   9.651
   9623SM   C3F13005   2.872   7.487   9.720
   9623SM   H3F13006   2.920   7.564   9.909
   9623SM   H3G13007   2.952   7.451   9.513
   9623SM   C4F13008   2.829   7.365   9.972
   9623SM   H4F13009   2.889   7.278   9.873
   9623SM   H4G13010   2.722   7.342   9.915
   9623SM   C5F13011   2.856   7.373  10.428
   9623SM   H5F13012   2.829   7.474  10.545
   9623SM   H5G13013   2.965   7.361  10.479
   9623SM   C6F13014   2.777   7.259  10.635
   9623SM   H6F13015   2.814   7.162  10.518
   9623SM   H6G13016   2.671   7.271  10.545
   9623SM   C7F13017   2.781   7.252  11.097
   9623SM   H7F13018   2.797   7.354  11.223
   9623SM   H7G13019   2.869   7.192  11.193
   9623SM   C8F13020   2.651   7.196  11.280
   9623SM   H8F13021   2.627   7.095  11.160
   9623SM   H8G13022   2.567   7.262  11.196
   9623SM   C9F13023   2.661   7.196  11.742
   9623SM   H9F13024   2.738   7.274  11.805
   9623SM   H9G13025   2.702   7.099  11.844
   9623SM  C10F13026   2.536   7.237  11.985
   9623SM  H10F13027   2.481   7.147  12.090
   9623SM  H10G13028   2.466   7.291  11.778
   9623SM  C11F13029   2.567   7.334  12.339
   9623SM  H11F13030   2.515   7.427  12.276
   9623SM  H11G13031   2.675   7.360  12.345
   9623SM  C12F13032   2.524   7.286  12.762
   9623SM  H12F13033   2.560   7.182  12.798
   9623SM  H12G13034   2.414   7.280  12.765
   9623SM  C13F13035   2.574   7.372  13.125
   9623SM  H13F13036   2.561   7.480  13.083
   9623SM  H13G13037   2.683   7.367  13.146
   9623SM  C14F13038   2.511   7.338  13.539
   9623SM  H14F13039   2.476   7.232  13.545
   9623SM  H14G13040   2.419   7.400  13.569
   9623SM  C15F13041   2.603   7.361  13.905
   9623SM  H15F13042   2.704   7.390  13.806
   9623SM  H15G13043   2.613   7.266  14.076
   9623SM  C16F13044   2.548   7.470  14.187
   9623SM  H16F13045   2.454   7.432  14.328
   9623SM  H16G13046   2.520   7.557  14.001
   9623SM  C17F13047   2.639   7.518  14.529
   9623SM  H17F13048   2.683   7.433  14.697
   9623SM  H17G13049   2.573   7.573  14.739
   9623SM  C18F13050   2.751   7.616  14.406
   9623SM  H18F13051   2.710   7.697  14.211
   9623SM  H18G13052   2.825   7.562  14.223
   9623SM  C19F13053   2.818   7.679  14.775
   9623SM  H19F13054   2.906   7.741  14.688
   9623SM  H19G13055   2.856   7.598  14.973
   9623SM  C20F13056   2.728   7.773  15.018
   9623SM  H20F13057   2.785   7.800  15.291
   9623SM  H20G13058   2.637   7.721  15.117
   9623SM  C21F13059   2.689   7.902  14.799
   9623SM  H21F13060   2.657   7.880  14.487
   9623SM  H21G13061   2.779   7.966  14.775
   9623SM  C22F13062   2.574   7.977  15.006
   9623SM  H22F13063   2.479   7.924  14.931
   9623SM  H22G13064   2.566   8.080  14.880
   9623SM  C23F13065   2.585   7.984  15.465
   9623SM  H23F13066   2.686   7.955  15.567
   9623SM  H23G13067   2.513   7.912  15.603
   9623SM  H23H13068   2.564   8.086  15.582
   9723SM     N13069   4.281  -0.094   6.669
   9723SM   C1513070   4.137  -0.060   6.717
   9723SM  H15A13071   4.089  -0.023   6.450
   9723SM  H15B13072   4.128   0.016   6.951
   9723SM  H15C13073   4.083  -0.149   6.816
   9723SM   C1413074   4.292  -0.210   6.396
   9723SM  H14A13075   4.241  -0.297   6.516
   9723SM  H14B13076   4.396  -0.240   6.345
   9723SM  H14C13077   4.251  -0.188   6.102
   9723SM   C1313078   4.347   0.030   6.516
   9723SM  H13A13079   4.310   0.062   6.228
   9723SM  H13B13080   4.455   0.021   6.501
   9723SM  H13C13081   4.328   0.111   6.729
   9723SM   C1213082   4.338  -0.130   7.080
   9723SM  H12A13083   4.445  -0.105   7.098
   9723SM  H12B13084   4.332  -0.238   7.119
   9723SM   C1113085   4.267  -0.069   7.449
   9723SM  H11A13086   4.321  -0.098   7.731
   9723SM  H11B13087   4.168  -0.119   7.470
   9723SM     P13088   4.354   0.173   7.578
   9723SM   O1313089   4.485   0.135   7.407
   9723SM   O1413090   4.306   0.311   7.497
   9723SM   O1113091   4.345   0.139   8.055
   9723SM   O1213092   4.246   0.072   7.416
   9723SM   C1S13093   4.210   0.147   8.214
   9723SM   H1S13094   4.150   0.063   8.100
   9723SM   H1T13095   4.159   0.242   8.124
   9723SM    NF13096   4.245   0.261   8.874
   9723SM   HNF13097   4.333   0.254   9.006
   9723SM   C2S13098   4.198   0.138   8.682
   9723SM   H2S13099   4.089   0.126   8.751
   9723SM   C3S13100   4.273   0.015   8.853
   9723SM   H3S13101   4.382   0.024   8.796
   9723SM    O313102   4.231  -0.111   8.691
   9723SM   HO313103   4.176  -0.089   8.466
   9723SM   C4S13104   4.247   0.017   9.300
   9723SM   H4S13105   4.149  -0.025   9.384
   9723SM   C5S13106   4.331   0.065   9.582
   9723SM   H5S13107   4.429   0.103   9.483
   9723SM   C6S13108   4.307   0.070  10.029
   9723SM   H6S13109   4.247  -0.016  10.134
   9723SM   H6T13110   4.251   0.162  10.107
   9723SM   C7S13111   4.440   0.074  10.263
   9723SM   H7S13112   4.507   0.155  10.158
   9723SM   H7T13113   4.493  -0.023  10.203
   9723SM   C8S13114   4.425   0.086  10.722
   9723SM   H8S13115   4.505   0.021  10.845
   9723SM   H8T13116   4.329   0.042  10.824
   9723SM   C9S13117   4.446   0.225  10.908
   9723SM   H9S13118   4.353   0.286  10.863
   9723SM   H9T13119   4.530   0.278  10.761
   9723SM  C10S13120   4.477   0.214  11.361
   9723SM  H10S13121   4.576   0.166  11.403
   9723SM  H10T13122   4.399   0.147  11.493
   9723SM  C11S13123   4.479   0.345  11.598
   9723SM  H11S13124   4.415   0.418  11.436
   9723SM  H11T13125   4.581   0.387  11.607
   9723SM  C12S13126   4.422   0.329  12.024
   9723SM  H12S13127   4.329   0.268  12.018
   9723SM  H12T13128   4.393   0.431  12.135
   9723SM  C13S13129   4.519   0.269  12.330
   9723SM  H13S13130   4.617   0.322  12.300
   9723SM  H13T13131   4.536   0.161  12.267
   9723SM  C14S13132   4.469   0.288  12.765
   9723SM  H14S13133   4.384   0.219  12.825
   9723SM  H14T13134   4.431   0.392  12.798
   9723SM  C15S13135   4.579   0.265  13.077
   9723SM  H15S13136   4.669   0.321  12.978
   9723SM  H15T13137   4.605   0.157  13.089
   9723SM  C16S13138   4.541   0.315  13.494
   9723SM  H16S13139   4.456   0.256  13.617
   9723SM  H16T13140   4.509   0.421  13.476
   9723SM  C17S13141   4.660   0.304  13.782
   9723SM  H17S13142   4.748   0.352  13.638
   9723SM  H17T13143   4.684   0.196  13.833
   9723SM  C18S13144   4.635   0.371  14.184
   9723SM  H18S13145   4.586   0.469  14.130
   9723SM  H18T13146   4.731   0.388  14.346
   9723SM  H18U13147   4.567   0.311  14.379
   9723SM   C1F13148   4.172   0.373   8.862
   9723SM    OF13149   4.066   0.380   8.685
   9723SM   C2F13150   4.227   0.491   9.081
   9723SM   H2F13151   4.184   0.581   8.940
   9723SM   H2G13152   4.337   0.493   9.048
   9723SM   C3F13153   4.186   0.483   9.525
   9723SM   H3F13154   4.216   0.385   9.651
   9723SM   H3G13155   4.075   0.488   9.549
   9723SM   C4F13156   4.246   0.595   9.789
   9723SM   H4F13157   4.188   0.688   9.753
   9723SM   H4G13158   4.350   0.615   9.696
   9723SM   C5F13159   4.243   0.557  10.233
   9723SM   H5F13160   4.300   0.631  10.416
   9723SM   H5G13161   4.291   0.458  10.275
   9723SM   C6F13162   4.100   0.550  10.398
   9723SM   H6F13163   4.027   0.518  10.167
   9723SM   H6G13164   4.069   0.651  10.500
   9723SM   C7F13165   4.090   0.452  10.749
   9723SM   H7F13166   4.130   0.353  10.662
   9723SM   H7G13167   3.982   0.440  10.818
   9723SM   C8F13168   4.164   0.502  11.118
   9723SM   H8F13169   4.125   0.602  11.205
   9723SM   H8G13170   4.272   0.515  11.049
   9723SM   C9F13171   4.150   0.407  11.475
   9723SM   H9F13172   4.198   0.456  11.736
   9723SM   H9G13173   4.206   0.313  11.409
   9723SM  C10F13174   4.006   0.368  11.577
   9723SM  H10F13175   3.961   0.313  11.319
   9723SM  H10G13176   3.944   0.459  11.631
   9723SM  C11F13177   4.001   0.275  11.940
   9723SM  H11F13178   4.074   0.193  11.892
   9723SM  H11G13179   3.900   0.230  11.967
   9723SM  C12F13180   4.035   0.348  12.330
   9723SM  H12F13181   3.946   0.409  12.417
   9723SM  H12G13182   4.119   0.420  12.291
   9723SM  C13F13183   4.073   0.252  12.666
   9723SM  H13F13184   4.179   0.223  12.633
   9723SM  H13G13185   4.012   0.159  12.633
   9723SM  C14F13186   4.045   0.312  13.077
   9723SM  H14F13187   3.942   0.355  13.071
   9723SM  H14G13188   4.116   0.396  13.140
   9723SM  C15F13189   4.049   0.207  13.413
   9723SM  H15F13190   3.995   0.116  13.317
   9723SM  H15G13191   3.994   0.250  13.671
   9723SM  C16F13192   4.190   0.171  13.557
   9723SM  H16F13193   4.243   0.265  13.641
   9723SM  H16G13194   4.247   0.124  13.308
   9723SM  C17F13195   4.188   0.077  13.920
   9723SM  H17F13196   4.136  -0.017  13.833
   9723SM  H17G13197   4.128   0.123  14.163
   9723SM  C18F13198   4.328   0.043  14.082
   9723SM  H18F13199   4.375   0.135  14.202
   9723SM  H18G13200   4.388   0.011  13.818
   9723SM  C19F13201   4.332  -0.071  14.394
   9723SM  H19F13202   4.428  -0.124  14.343
   9723SM  H19G13203   4.250  -0.144  14.343
   9723SM  C20F13204   4.334  -0.026  14.838
   9723SM  H20F13205   4.383   0.073  14.859
   9723SM  H20G13206   4.399  -0.096  15.012
   9723SM  C21F13207   4.196  -0.028  15.039
   9723SM  H21F13208   4.187  -0.116  15.243
   9723SM  H21G13209   4.119  -0.040  14.802
   9723SM  C22F13210   4.161   0.098  15.279
   9723SM  H22F13211   4.219   0.098  15.564
   9723SM  H22G13212   4.054   0.097  15.363
   9723SM  C23F13213   4.191   0.223  15.042
   9723SM  H23F13214   4.284   0.272  15.156
   9723SM  H23G13215   4.107   0.295  15.057
   9723SM  H23H13216   4.207   0.200  14.721
   9823SM     N13217   6.556   7.505   6.966
   9823SM   C1513218   6.576   7.647   7.080
   9823SM  H15A13219   6.501   7.681   7.293
   9823SM  H15B13220   6.567   7.713   6.825
   9823SM  H15C13221   6.675   7.663   7.206
   9823SM   C1413222   6.417   7.489   6.804
   9823SM  H14A13223   6.408   7.541   6.519
   9823SM  H14B13224   6.343   7.530   7.008
   9823SM  H14C13225   6.392   7.384   6.756
   9823SM   C1313226   6.655   7.467   6.651
   9823SM  H13A13227   6.652   7.531   6.390
   9823SM  H13B13228   6.640   7.364   6.549
   9823SM  H13C13229   6.756   7.467   6.777
   9823SM   C1213230   6.578   7.418   7.335
   9823SM  H12A13231   6.554   7.314   7.260
   9823SM  H12B13232   6.512   7.447   7.575
   9823SM   C1113233   6.723   7.412   7.503
   9823SM  H11A13234   6.720   7.369   7.809
   9823SM  H11B13235   6.763   7.515   7.539
   9823SM     P13236   6.791   7.184   7.176
   9823SM   O1313237   6.653   7.162   7.017
   9823SM   O1413238   6.902   7.139   6.918
   9823SM   O1113239   6.801   7.121   7.617
   9823SM   O1213240   6.812   7.339   7.248
   9823SM   C1S13241   6.921   7.147   7.842
   9823SM   H1S13242   6.988   7.221   7.692
   9823SM   H1T13243   6.980   7.053   7.866
   9823SM    NF13244   7.015   7.258   8.427
   9823SM   HNF13245   7.060   7.211   8.646
   9823SM   C2S13246   6.893   7.200   8.277
   9823SM   H2S13247   6.816   7.280   8.271
   9823SM   C3S13248   6.840   7.079   8.535
   9823SM   H3S13249   6.909   6.994   8.499
   9823SM    O313250   6.710   7.037   8.412
   9823SM   HO313251   6.698   7.075   8.148
   9823SM   C4S13252   6.824   7.111   8.982
   9823SM   H4S13253   6.774   7.206   9.048
   9823SM   C5S13254   6.864   7.030   9.288
   9823SM   H5S13255   6.903   6.932   9.207
   9823SM   C6S13256   6.847   7.053   9.738
   9823SM   H6S13257   6.797   6.962   9.849
   9823SM   H6T13258   6.773   7.136   9.780
   9823SM   C7S13259   6.950   7.072  10.089
   9823SM   H7S13260   6.894   7.119  10.341
   9823SM   H7T13261   7.022   7.147   9.993
   9823SM   C8S13262   7.017   6.945  10.260
   9823SM   H8S13263   7.070   6.893  10.014
   9823SM   H8T13264   6.939   6.875  10.365
   9823SM   C9S13265   7.123   6.964  10.602
   9823SM   H9S13266   7.210   7.015  10.467
   9823SM   H9T13267   7.158   6.861  10.686
   9823SM  C10S13268   7.079   7.036  10.989
   9823SM  H10S13269   7.010   6.964  11.127
   9823SM  H10T13270   7.024   7.129  10.917
   9823SM  C11S13271   7.178   7.065  11.340
   9823SM  H11S13272   7.258   7.135  11.244
   9823SM  H11T13273   7.225   6.968  11.430
   9823SM  C12S13274   7.101   7.121  11.706
   9823SM  H12S13275   7.011   7.056  11.733
   9823SM  H12T13276   7.064   7.224  11.640
   9823SM  C13S13277   7.166   7.119  12.126
   9823SM  H13S13278   7.241   7.201  12.147
   9823SM  H13T13279   7.219   7.023  12.174
   9823SM  C14S13280   7.058   7.136  12.459
   9823SM  H14S13281   6.999   7.043  12.489
   9823SM  H14T13282   6.992   7.220  12.369
   9823SM  C15S13283   7.107   7.175  12.879
   9823SM  H15S13284   7.025   7.221  13.059
   9823SM  H15T13285   7.186   7.249  12.831
   9823SM  C16S13286   7.158   7.058  13.125
   9823SM  H16S13287   7.201   6.987  12.912
   9823SM  H16T13288   7.073   7.011  13.284
   9823SM  C17S13289   7.278   7.084  13.395
   9823SM  H17S13290   7.337   7.167  13.260
   9823SM  H17T13291   7.342   6.993  13.380
   9823SM  C18S13292   7.247   7.110  13.836
   9823SM  H18S13293   7.327   7.172  13.971
   9823SM  H18T13294   7.243   7.013  14.001
   9823SM  H18U13295   7.150   7.163  13.875
   9823SM   C1F13296   7.077   7.367   8.289
   9823SM    OF13297   7.028   7.446   8.052
   9823SM   C2F13298   7.213   7.383   8.466
   9823SM   H2F13299   7.281   7.307   8.334
   9823SM   H2G13300   7.197   7.358   8.787
   9823SM   C3F13301   7.278   7.522   8.454
   9823SM   H3F13302   7.230   7.585   8.220
   9823SM   H3G13303   7.385   7.510   8.364
   9823SM   C4F13304   7.273   7.595   8.859
   9823SM   H4F13305   7.322   7.694   8.823
   9823SM   H4G13306   7.332   7.538   9.084
   9823SM   C5F13307   7.130   7.614   9.009
   9823SM   H5F13308   7.086   7.517   9.105
   9823SM   H5G13309   7.068   7.653   8.757
   9823SM   C6F13310   7.116   7.714   9.354
   9823SM   H6F13311   7.149   7.814   9.249
   9823SM   H6G13312   7.186   7.685   9.597
   9823SM   C7F13313   6.970   7.726   9.498
   9823SM   H7F13314   6.904   7.714   9.231
   9823SM   H7G13315   6.954   7.829   9.612
   9823SM   C8F13316   6.928   7.623   9.822
   9823SM   H8F13317   6.932   7.522   9.684
   9823SM   H8G13318   6.823   7.643   9.915
   9823SM   C9F13319   7.020   7.624  10.194
   9823SM   H9F13320   7.018   7.726  10.323
   9823SM   H9G13321   7.123   7.601  10.092
   9823SM  C10F13322   6.989   7.519  10.521
   9823SM  H10F13323   7.080   7.505  10.707
   9823SM  H10G13324   6.961   7.421  10.389
   9823SM  C11F13325   6.884   7.570  10.812
   9823SM  H11F13326   6.788   7.573  10.644
   9823SM  H11G13327   6.915   7.675  10.884
   9823SM  C12F13328   6.868   7.498  11.217
   9823SM  H12F13329   6.879   7.575  11.457
   9823SM  H12G13330   6.950   7.425  11.262
   9823SM  C13F13331   6.733   7.429  11.277
   9823SM  H13F13332   6.722   7.347  11.055
   9823SM  H13G13333   6.648   7.498  11.223
   9823SM  C14F13334   6.713   7.377  11.706
   9823SM  H14F13335   6.796   7.309  11.784
   9823SM  H14G13336   6.618   7.320  11.712
   9823SM  C15F13337   6.706   7.490  12.021
   9823SM  H15F13338   6.666   7.581  11.868
   9823SM  H15G13339   6.809   7.513  12.126
   9823SM  C16F13340   6.617   7.458  12.384
   9823SM  H16F13341   6.523   7.411  12.270
   9823SM  H16G13342   6.588   7.550  12.546
   9823SM  C17F13343   6.688   7.360  12.666
   9823SM  H17F13344   6.750   7.298  12.459
   9823SM  H17G13345   6.615   7.294  12.819
   9823SM  C18F13346   6.784   7.421  12.981
   9823SM  H18F13347   6.842   7.504  12.846
   9823SM  H18G13348   6.856   7.341  13.065
   9823SM  C19F13349   6.718   7.467  13.374
   9823SM  H19F13350   6.671   7.378  13.521
   9823SM  H19G13351   6.636   7.540  13.311
   9823SM  C20F13352   6.816   7.530  13.677
   9823SM  H20F13353   6.866   7.618  13.539
   9823SM  H20G13354   6.895   7.457  13.755
   9823SM  C21F13355   6.745   7.577  14.064
   9823SM  H21F13356   6.692   7.491  14.205
   9823SM  H21G13357   6.667   7.652  13.980
   9823SM  C22F13358   6.838   7.640  14.379
   9823SM  H22F13359   6.776   7.691  14.610
   9823SM  H22G13360   6.900   7.718  14.232
   9823SM  C23F13361   6.928   7.538  14.592
   9823SM  H23F13362   6.866   7.463  14.754
   9823SM  H23G13363   6.995   7.587  14.811
   9823SM  H23H13364   6.990   7.483  14.370
   9923SM     N13365   0.540   7.176   6.765
   9923SM   C1513366   0.505   7.033   6.855
   9923SM  H15A13367   0.565   7.002   7.110
   9923SM  H15B13368   0.526   6.969   6.603
   9923SM  H15C13369   0.401   7.022   6.939
   9923SM   C1413370   0.684   7.189   6.663
   9923SM  H14A13371   0.711   7.293   6.624
   9923SM  H14B13372   0.706   7.135   6.390
   9923SM  H14C13373   0.744   7.151   6.912
   9923SM   C1313374   0.461   7.227   6.417
   9923SM  H13A13375   0.487   7.332   6.381
   9923SM  H13B13376   0.354   7.219   6.471
   9923SM  H13C13377   0.488   7.176   6.138
   9923SM   C1213378   0.507   7.262   7.122
   9923SM  H12A13379   0.401   7.259   7.176
   9923SM  H12B13380   0.531   7.367   7.053
   9923SM   C1113381   0.581   7.234   7.515
   9923SM  H11A13382   0.572   7.127   7.602
   9923SM  H11B13383   0.530   7.294   7.752
   9923SM     P13384   0.755   7.422   7.506
   9923SM   O1313385   0.900   7.437   7.413
   9923SM   O1413386   0.655   7.495   7.263
   9923SM   O1113387   0.737   7.462   7.962
   9923SM   O1213388   0.720   7.267   7.488
   9923SM   C1S13389   0.808   7.383   8.250
   9923SM   H1S13390   0.909   7.425   8.295
   9923SM   H1T13391   0.823   7.277   8.151
   9923SM    NF13392   0.595   7.333   8.580
   9923SM   HNF13393   0.527   7.406   8.547
   9923SM   C2S13394   0.732   7.374   8.661
   9923SM   H2S13395   0.780   7.295   8.847
   9923SM   C3S13396   0.743   7.511   8.886
   9923SM   H3S13397   0.684   7.587   8.727
   9923SM    O313398   0.878   7.558   8.883
   9923SM   HO313399   0.896   7.554   8.601
   9923SM   C4S13400   0.692   7.502   9.318
   9923SM   H4S13401   0.584   7.520   9.342
   9923SM   C5S13402   0.761   7.478   9.660
   9923SM   H5S13403   0.868   7.455   9.636
   9923SM   C6S13404   0.707   7.472  10.086
   9923SM   H6S13405   0.728   7.571  10.224
   9923SM   H6T13406   0.766   7.400  10.269
   9923SM   C7S13407   0.558   7.449  10.185
   9923SM   H7S13408   0.522   7.351  10.074
   9923SM   H7T13409   0.499   7.531  10.041
   9923SM   C8S13410   0.536   7.457  10.638
   9923SM   H8S13411   0.432   7.488  10.701
   9923SM   H8T13412   0.605   7.533  10.767
   9923SM   C9S13413   0.560   7.325  10.860
   9923SM   H9S13414   0.669   7.303  10.866
   9923SM   H9T13415   0.509   7.244  10.689
   9923SM  C10S13416   0.506   7.329  11.289
   9923SM  H10S13417   0.498   7.225  11.403
   9923SM  H10T13418   0.402   7.369  11.289
   9923SM  C11S13419   0.595   7.408  11.583
   9923SM  H11S13420   0.600   7.515  11.490
   9923SM  H11T13421   0.698   7.368  11.568
   9923SM  C12S13422   0.544   7.400  12.021
   9923SM  H12S13423   0.532   7.293  12.102
   9923SM  H12T13424   0.445   7.449  12.039
   9923SM  C13S13425   0.642   7.460  12.327
   9923SM  H13S13426   0.680   7.554  12.192
   9923SM  H13T13427   0.727   7.390  12.366
   9923SM  C14S13428   0.579   7.494  12.735
   9923SM  H14S13429   0.530   7.404  12.858
   9923SM  H14T13430   0.498   7.568  12.687
   9923SM  C15S13431   0.679   7.548  13.047
   9923SM  H15S13432   0.717   7.647  12.954
   9923SM  H15T13433   0.767   7.480  13.062
   9923SM  C16S13434   0.619   7.559  13.470
   9923SM  H16S13435   0.601   7.455  13.569
   9923SM  H16T13436   0.524   7.616  13.479
   9923SM  C17S13437   0.717   7.610  13.785
   9923SM  H17S13438   0.735   7.718  13.752
   9923SM  H17T13439   0.810   7.560  13.701
   9923SM  C18S13440   0.680   7.578  14.220
   9923SM  H18S13441   0.768   7.581  14.421
   9923SM  H18T13442   0.633   7.479  14.262
   9923SM  H18U13443   0.604   7.651  14.331
   9923SM   C1F13444   0.565   7.210   8.457
   9923SM    OF13445   0.652   7.136   8.328
   9923SM   C2F13446   0.422   7.163   8.457
   9923SM   H2F13447   0.420   7.052   8.475
   9923SM   H2G13448   0.376   7.191   8.166
   9923SM   C3F13449   0.344   7.223   8.808
   9923SM   H3F13450   0.235   7.211   8.754
   9923SM   H3G13451   0.363   7.332   8.829
   9923SM   C4F13452   0.379   7.163   9.216
   9923SM   H4F13453   0.489   7.153   9.261
   9923SM   H4G13454   0.334   7.061   9.240
   9923SM   C5F13455   0.320   7.255   9.537
   9923SM   H5F13456   0.226   7.296   9.411
   9923SM   H5G13457   0.387   7.342   9.588
   9923SM   C6F13458   0.284   7.183   9.924
   9923SM   H6F13459   0.377   7.156  10.092
   9923SM   H6G13460   0.229   7.090   9.852
   9923SM   C7F13461   0.192   7.270  10.185
   9923SM   H7F13462   0.097   7.290  10.023
   9923SM   H7G13463   0.242   7.366  10.251
   9923SM   C8F13464   0.159   7.197  10.575
   9923SM   H8F13465   0.252   7.142  10.653
   9923SM   H8G13466   0.080   7.121  10.524
   9923SM   C9F13467   0.119   7.291  10.917
   9923SM   H9F13468   0.032   7.352  10.821
   9923SM   H9G13469   0.203   7.360  10.989
   9923SM  C10F13470   0.083   7.212  11.292
   9923SM  H10F13471   0.001   7.142  11.214
   9923SM  H10G13472   0.045   7.278  11.535
   9923SM  C11F13473   0.202   7.132  11.445
   9923SM  H11F13474   0.285   7.120  11.226
   9923SM  H11G13475   0.166   7.029  11.505
   9923SM  C12F13476   0.258   7.182  11.841
   9923SM  H12F13477   0.171   7.186  12.048
   9923SM  H12G13478   0.301   7.284  11.841
   9923SM  C13F13479   0.356   7.076  11.994
   9923SM  H13F13480   0.459   7.114  12.015
   9923SM  H13G13481   0.359   6.990  11.784
   9923SM  C14F13482   0.302   7.034  12.396
   9923SM  H14F13483   0.204   6.982  12.351
   9923SM  H14G13484   0.283   7.129  12.552
   9923SM  C15F13485   0.394   6.953  12.657
   9923SM  H15F13486   0.432   6.865  12.486
   9923SM  H15G13487   0.337   6.916  12.921
   9923SM  C16F13488   0.513   7.035  12.807
   9923SM  H16F13489   0.575   7.064  12.546
   9923SM  H16G13490   0.569   6.968  13.008
   9923SM  C17F13491   0.482   7.160  13.050
   9923SM  H17F13492   0.422   7.230  12.867
   9923SM  H17G13493   0.579   7.212  13.107
   9923SM  C18F13494   0.413   7.138  13.458
   9923SM  H18F13495   0.484   7.085  13.662
   9923SM  H18G13496   0.323   7.075  13.425
   9923SM  C19F13497   0.377   7.276  13.626
   9923SM  H19F13498   0.291   7.319  13.467
   9923SM  H19G13499   0.460   7.340  13.533
   9923SM  C20F13500   0.363   7.291  14.085
   9923SM  H20F13501   0.452   7.247  14.235
   9923SM  H20G13502   0.273   7.236  14.187
   9923SM  C21F13503   0.351   7.440  14.205
   9923SM  H21F13504   0.266   7.483  14.034
   9923SM  H21G13505   0.440   7.495  14.103
   9923SM  C22F13506   0.327   7.465  14.655
   9923SM  H22F13507   0.261   7.385  14.772
   9923SM  H22G13508   0.271   7.561  14.682
   9923SM  C23F13509   0.453   7.478  14.916
   9923SM  H23F13510   0.427   7.499  15.234
   9923SM  H23G13511   0.514   7.565  14.814
   9923SM  H23H13512   0.515   7.386  14.901
  10023SM     N13513   0.287   0.485   6.660
  10023SM   C1513514   0.382   0.406   6.414
  10023SM  H15A13515   0.472   0.463   6.360
  10023SM  H15B13516   0.337   0.378   6.132
  10023SM  H15C13517   0.403   0.316   6.582
  10023SM   C1413518   0.252   0.612   6.453
  10023SM  H14A13519   0.340   0.669   6.369
  10023SM  H14B13520   0.188   0.673   6.645
  10023SM  H14C13521   0.195   0.592   6.183
  10023SM   C1313522   0.159   0.410   6.717
  10023SM  H13A13523   0.172   0.324   6.912
  10023SM  H13B13524   0.126   0.372   6.429
  10023SM  H13C13525   0.083   0.473   6.852
  10023SM   C1213526   0.351   0.510   7.071
  10023SM  H12A13527   0.273   0.547   7.269
  10023SM  H12B13528   0.427   0.586   7.041
  10023SM   C1113529   0.416   0.387   7.278
  10023SM  H11A13530   0.448   0.416   7.587
  10023SM  H11B13531   0.510   0.361   7.116
  10023SM     P13532   0.229   0.243   7.626
  10023SM   O1313533   0.153   0.367   7.695
  10023SM   O1413534   0.149   0.123   7.530
  10023SM   O1113535   0.314   0.217   8.013
  10023SM   O1213536   0.332   0.271   7.278
  10023SM   C1S13537   0.433   0.143   8.046
  10023SM   H1S13538   0.516   0.198   7.902
  10023SM   H1T13539   0.428   0.042   7.902
  10023SM    NF13540   0.348   0.060   8.691
  10023SM   HNF13541   0.295   0.122   8.856
  10023SM   C2S13542   0.461   0.124   8.499
  10023SM   H2S13543   0.550   0.058   8.529
  10023SM   C3S13544   0.491   0.257   8.709
  10023SM   H3S13545   0.404   0.325   8.700
  10023SM    O313546   0.599   0.328   8.529
  10023SM   HO313547   0.619   0.278   8.292
  10023SM   C4S13548   0.519   0.215   9.135
  10023SM   H4S13549   0.619   0.171   9.177
  10023SM   C5S13550   0.435   0.221   9.450
  10023SM   H5S13551   0.336   0.268   9.420
  10023SM   C6S13552   0.473   0.173   9.861
  10023SM   H6S13553   0.529   0.251  10.023
  10023SM   H6T13554   0.543   0.087   9.843
  10023SM   C7S13555   0.347   0.129  10.095
  10023SM   H7S13556   0.333   0.020  10.041
  10023SM   H7T13557   0.256   0.184   9.996
  10023SM   C8S13558   0.359   0.153  10.548
  10023SM   H8S13559   0.284   0.090  10.707
  10023SM   H8T13560   0.337   0.259  10.620
  10023SM   C9S13561   0.498   0.120  10.707
  10023SM   H9S13562   0.560   0.212  10.728
  10023SM   H9T13563   0.551   0.050  10.503
  10023SM  C10S13564   0.491   0.052  11.115
  10023SM  H10S13565   0.590   0.005  11.166
  10023SM  H10T13566   0.415  -0.029  11.136
  10023SM  C11S13567   0.473   0.150  11.448
  10023SM  H11S13568   0.364   0.166  11.490
  10023SM  H11T13569   0.521   0.248  11.382
  10023SM  C12S13570   0.533   0.094  11.826
  10023SM  H12S13571   0.644   0.087  11.805
  10023SM  H12T13572   0.493  -0.008  11.889
  10023SM  C13S13573   0.491   0.190  12.141
  10023SM  H13S13574   0.380   0.191  12.135
  10023SM  H13T13575   0.531   0.292  12.069
  10023SM  C14S13576   0.535   0.146  12.546
  10023SM  H14S13577   0.621   0.077  12.522
  10023SM  H14T13578   0.451   0.091  12.687
  10023SM  C15S13579   0.572   0.266  12.798
  10023SM  H15S13580   0.488   0.339  12.783
  10023SM  H15T13581   0.664   0.317  12.687
  10023SM  C16S13582   0.587   0.213  13.218
  10023SM  H16S13583   0.688   0.168  13.254
  10023SM  H16T13584   0.512   0.133  13.269
  10023SM  C17S13585   0.559   0.319  13.524
  10023SM  H17S13586   0.474   0.381  13.419
  10023SM  H17T13587   0.646   0.388  13.536
  10023SM  C18S13588   0.532   0.259  13.935
  10023SM  H18S13589   0.426   0.231  13.977
  10023SM  H18T13590   0.564   0.328  14.178
  10023SM  H18U13591   0.585   0.163  13.959
  10023SM   C1F13592   0.318  -0.067   8.646
  10023SM    OF13593   0.392  -0.142   8.457
  10023SM   C2F13594   0.195  -0.114   8.856
  10023SM   H2F13595   0.193  -0.069   9.159
  10023SM   H2G13596   0.201  -0.224   8.895
  10023SM   C3F13597   0.064  -0.083   8.622
  10023SM   H3F13598  -0.022  -0.127   8.787
  10023SM   H3G13599   0.067  -0.136   8.328
  10023SM   C4F13600   0.033   0.066   8.547
  10023SM   H4F13601  -0.049   0.074   8.325
  10023SM   H4G13602   0.120   0.119   8.412
  10023SM   C5F13603  -0.008   0.135   8.937
  10023SM   H5F13604   0.071   0.117   9.162
  10023SM   H5G13605  -0.105   0.089   9.030
  10023SM   C6F13606  -0.025   0.288   8.916
  10023SM   H6F13607  -0.094   0.314   8.667
  10023SM   H6G13608   0.074   0.333   8.838
  10023SM   C7F13609  -0.077   0.351   9.312
  10023SM   H7F13610  -0.184   0.379   9.279
  10023SM   H7G13611  -0.024   0.447   9.363
  10023SM   C8F13612  -0.061   0.261   9.681
  10023SM   H8F13613   0.047   0.251   9.756
  10023SM   H8G13614  -0.105   0.162   9.612
  10023SM   C9F13615  -0.141   0.305  10.050
  10023SM   H9F13616  -0.126   0.231  10.296
  10023SM   H9G13617  -0.249   0.303   9.975
  10023SM  C10F13618  -0.099   0.441  10.206
  10023SM  H10F13619  -0.164   0.467  10.467
  10023SM  H10G13620  -0.114   0.520   9.975
  10023SM  C11F13621   0.048   0.438  10.338
  10023SM  H11F13622   0.116   0.446  10.074
  10023SM  H11G13623   0.067   0.338  10.479
  10023SM  C12F13624   0.083   0.544  10.647
  10023SM  H12F13625  -0.009   0.594  10.761
  10023SM  H12G13626   0.146   0.623  10.503
  10023SM  C13F13627   0.159   0.484  11.004
  10023SM  H13F13628   0.244   0.424  10.890
  10023SM  H13G13629   0.092   0.414  11.166
  10023SM  C14F13630   0.213   0.592  11.283
  10023SM  H14F13631   0.128   0.638  11.442
  10023SM  H14G13632   0.265   0.670  11.103
  10023SM  C15F13633   0.308   0.540  11.607
  10023SM  H15F13634   0.330   0.623  11.817
  10023SM  H15G13635   0.404   0.508  11.466
  10023SM  C16F13636   0.245   0.423  11.832
  10023SM  H16F13637   0.277   0.331  11.679
  10023SM  H16G13638   0.134   0.426  11.811
  10023SM  C17F13639   0.284   0.419  12.273
  10023SM  H17F13640   0.393   0.437  12.306
  10023SM  H17G13641   0.259   0.317  12.390
  10023SM  C18F13642   0.207   0.513  12.549
  10023SM  H18F13643   0.098   0.501  12.486
  10023SM  H18G13644   0.234   0.619  12.492
  10023SM  C19F13645   0.236   0.472  12.981
  10023SM  H19F13646   0.341   0.496  13.053
  10023SM  H19G13647   0.226   0.361  12.999
  10023SM  C20F13648   0.139   0.534  13.284
  10023SM  H20F13649   0.041   0.552  13.137
  10023SM  H20G13650   0.182   0.632  13.377
  10023SM  C21F13651   0.116   0.446  13.659
  10023SM  H21F13652   0.073   0.348  13.569
  10023SM  H21G13653   0.047   0.496  13.869
  10023SM  C22F13654   0.249   0.420  13.866
  10023SM  H22F13655   0.303   0.517  13.851
  10023SM  H22G13656   0.300   0.346  13.677
  10023SM  C23F13657   0.247   0.375  14.304
  10023SM  H23F13658   0.350   0.376  14.430
  10023SM  H23G13659   0.208   0.271  14.334
  10023SM  H23H13660   0.186   0.444  14.490
  101CHL1    C313661   4.017   4.593  20.205
  101CHL1    H313662   4.122   4.587  20.088
  101CHL1    O313663   4.021   4.603  20.628
  101CHL1   H3'13664   3.928   4.598  20.706
  101CHL1    C413665   3.947   4.715  20.022
  101CHL1   H4A13666   3.844   4.722  20.148
  101CHL1   H4B13667   4.001   4.806  20.127
  101CHL1    C513668   3.940   4.707  19.569
  101CHL1    C613669   3.994   4.802  19.335
  101CHL1    H613670   4.041   4.890  19.476
  101CHL1    C713671   3.990   4.801  18.885
  101CHL1   H7A13672   3.958   4.900  18.768
  101CHL1   H7B13673   4.093   4.782  18.771
  101CHL1    C813674   3.897   4.692  18.711
  101CHL1    H813675   3.792   4.729  18.732
  101CHL1   C1413676   3.932   4.668  18.273
  101CHL1   H1413677   4.037   4.628  18.276
  101CHL1   C1513678   3.935   4.789  17.988
  101CHL1  H15A13679   3.843   4.850  18.033
  101CHL1  H15B13680   4.024   4.853  18.042
  101CHL1   C1613681   3.935   4.726  17.571
  101CHL1  H16A13682   3.853   4.772  17.391
  101CHL1  H16B13683   4.031   4.741  17.412
  101CHL1   C1713684   3.908   4.573  17.631
  101CHL1   H1713685   4.008   4.523  17.640
  101CHL1   C1313686   3.850   4.561  18.060
  101CHL1   C1813687   3.700   4.599  18.042
  101CHL1  H18A13688   3.639   4.516  17.919
  101CHL1  H18B13689   3.660   4.622  18.345
  101CHL1  H18C13690   3.685   4.688  17.847
  101CHL1   C1213691   3.870   4.428  18.291
  101CHL1  H12A13692   3.809   4.346  18.165
  101CHL1  H12B13693   3.977   4.399  18.273
  101CHL1   C1113694   3.831   4.444  18.735
  101CHL1  H11A13695   3.722   4.463  18.750
  101CHL1  H11B13696   3.851   4.348  18.891
  101CHL1    C913697   3.909   4.561  18.942
  101CHL1    H913698   4.017   4.532  18.921
  101CHL1   C1013699   3.880   4.576  19.398
  101CHL1   C1913700   3.726   4.581  19.458
  101CHL1  H19A13701   3.681   4.483  19.383
  101CHL1  H19B13702   3.700   4.603  19.773
  101CHL1  H19C13703   3.680   4.659  19.263
  101CHL1    C113704   3.940   4.453  19.623
  101CHL1   H1A13705   3.883   4.362  19.539
  101CHL1   H1B13706   4.045   4.439  19.518
  101CHL1    C213707   3.942   4.466  20.082
  101CHL1   H2A13708   3.990   4.377  20.217
  101CHL1   H2B13709   3.837   4.472  20.193
  101CHL1   C2013710   3.830   4.513  17.280
  101CHL1   H2013711   3.737   4.572  17.232
  101CHL1   C2113712   3.791   4.368  17.376
  101CHL1  H21A13713   3.694   4.361  17.535
  101CHL1  H21B13714   3.869   4.328  17.577
  101CHL1  H21C13715   3.788   4.304  17.106
  101CHL1   C2213716   3.908   4.513  16.884
  101CHL1  H22A13717   3.967   4.607  16.854
  101CHL1  H22B13718   3.982   4.430  16.884
  101CHL1   C2313719   3.812   4.500  16.524
  101CHL1  H23A13720   3.728   4.432  16.608
  101CHL1  H23B13721   3.767   4.600  16.464
  101CHL1   C2413722   3.873   4.445  16.137
  101CHL1  H24A13723   3.902   4.338  16.185
  101CHL1  H24B13724   3.795   4.446  15.900
  101CHL1   C2513725   3.995   4.519  15.978
  101CHL1   H2513726   4.079   4.488  16.173
  101CHL1   C2613727   4.018   4.481  15.537
  101CHL1  H26A13728   4.105   4.536  15.414
  101CHL1  H26B13729   4.037   4.372  15.510
  101CHL1  H26C13730   3.930   4.507  15.354
  101CHL1   C2713731   3.994   4.672  16.020
  101CHL1  H27A13732   3.967   4.706  16.323
  101CHL1  H27B13733   4.095   4.712  15.948
  101CHL1  H27C13734   3.920   4.709  15.807
  102CHL1    C313735   2.649   4.627  20.223
  102CHL1    H313736   2.665   4.737  20.220
  102CHL1    O313737   2.645   4.580  20.625
  102CHL1   H3'13738   2.603   4.649  20.790
  102CHL1    C413739   2.517   4.590  20.025
  102CHL1   H4A13740   2.503   4.481  20.064
  102CHL1   H4B13741   2.433   4.640  20.190
  102CHL1    C513742   2.517   4.625  19.584
  102CHL1    C613743   2.430   4.712  19.428
  102CHL1    H613744   2.352   4.758  19.617
  102CHL1    C713745   2.424   4.744  18.990
  102CHL1   H7A13746   2.318   4.744  18.894
  102CHL1   H7B13747   2.465   4.846  18.930
  102CHL1    C813748   2.501   4.640  18.738
  102CHL1    H813749   2.440   4.547  18.744
  102CHL1   C1413750   2.517   4.688  18.315
  102CHL1   H1413751   2.583   4.779  18.318
  102CHL1   C1513752   2.387   4.734  18.129
  102CHL1  H15A13753   2.311   4.660  18.231
  102CHL1  H15B13754   2.361   4.837  18.216
  102CHL1   C1613755   2.406   4.721  17.685
  102CHL1  H16A13756   2.327   4.651  17.574
  102CHL1  H16B13757   2.395   4.818  17.532
  102CHL1   C1713758   2.547   4.659  17.625
  102CHL1   H1713759   2.618   4.744  17.595
  102CHL1   C1313760   2.578   4.588  18.027
  102CHL1   C1813761   2.504   4.452  18.039
  102CHL1  H18A13762   2.506   4.406  18.342
  102CHL1  H18B13763   2.398   4.462  17.952
  102CHL1  H18C13764   2.553   4.379  17.835
  102CHL1   C1213765   2.725   4.577  18.159
  102CHL1  H12A13766   2.781   4.505  17.970
  102CHL1  H12B13767   2.774   4.676  18.129
  102CHL1   C1113768   2.732   4.532  18.606
  102CHL1  H11A13769   2.704   4.425  18.606
  102CHL1  H11B13770   2.837   4.539  18.708
  102CHL1    C913771   2.640   4.612  18.900
  102CHL1    H913772   2.688   4.713  18.921
  102CHL1   C1013773   2.629   4.558  19.335
  102CHL1   C1913774   2.599   4.406  19.314
  102CHL1  H19A13775   2.683   4.350  19.176
  102CHL1  H19B13776   2.584   4.360  19.614
  102CHL1  H19C13777   2.508   4.387  19.134
  102CHL1    C113778   2.762   4.591  19.551
  102CHL1   H1A13779   2.845   4.539  19.395
  102CHL1   H1B13780   2.778   4.700  19.515
  102CHL1    C213781   2.765   4.558  20.004
  102CHL1   H2A13782   2.863   4.591  20.130
  102CHL1   H2B13783   2.756   4.448  20.043
  102CHL1   C2013784   2.547   4.579  17.238
  102CHL1   H2013785   2.483   4.488  17.277
  102CHL1   C2113786   2.689   4.533  17.127
  102CHL1  H21A13787   2.730   4.464  17.355
  102CHL1  H21B13788   2.756   4.621  17.100
  102CHL1  H21C13789   2.688   4.480  16.833
  102CHL1   C2213790   2.483   4.660  16.893
  102CHL1  H22A13791   2.385   4.705  16.980
  102CHL1  H22B13792   2.549   4.745  16.803
  102CHL1   C2313793   2.445   4.572  16.542
  102CHL1  H23A13794   2.532   4.564  16.332
  102CHL1  H23B13795   2.423   4.470  16.659
  102CHL1   C2413796   2.321   4.625  16.329
  102CHL1  H24A13797   2.231   4.618  16.524
  102CHL1  H24B13798   2.336   4.732  16.254
  102CHL1   C2513799   2.297   4.548  15.939
  102CHL1   H2513800   2.396   4.554  15.783
  102CHL1   C2613801   2.271   4.399  15.996
  102CHL1  H26A13802   2.285   4.348  15.702
  102CHL1  H26B13803   2.344   4.352  16.203
  102CHL1  H26C13804   2.168   4.381  16.104
  102CHL1   C2713805   2.189   4.615  15.681
  102CHL1  H27A13806   2.190   4.572  15.375
  102CHL1  H27B13807   2.088   4.601  15.813
  102CHL1  H27C13808   2.209   4.724  15.654
  103CHL1    C313809   2.623   2.890  20.193
  103CHL1    H313810   2.711   2.959  20.160
  103CHL1    O313811   2.590   2.876  20.604
  103CHL1   H3'13812   2.582   2.967  20.697
  103CHL1    C413813   2.501   2.943  19.968
  103CHL1   H4A13814   2.415   2.876  20.031
  103CHL1   H4B13815   2.473   3.043  20.091
  103CHL1    C513816   2.529   2.946  19.524
  103CHL1    C613817   2.521   3.059  19.320
  103CHL1    H613818   2.490   3.151  19.476
  103CHL1    C713819   2.544   3.066  18.879
  103CHL1   H7A13820   2.463   3.126  18.738
  103CHL1   H7B13821   2.641   3.116  18.813
  103CHL1    C813822   2.543   2.931  18.669
  103CHL1    H813823   2.438   2.897  18.669
  103CHL1   C1413824   2.593   2.950  18.252
  103CHL1   H1413825   2.703   2.975  18.273
  103CHL1   C1513826   2.532   3.066  18.012
  103CHL1  H15A13827   2.424   3.074  18.081
  103CHL1  H15B13828   2.583   3.162  18.081
  103CHL1   C1613829   2.553   3.023  17.577
  103CHL1  H16A13830   2.453   3.024  17.430
  103CHL1  H16B13831   2.621   3.092  17.412
  103CHL1   C1713832   2.610   2.878  17.592
  103CHL1   H1713833   2.721   2.887  17.565
  103CHL1   C1313834   2.582   2.823  18.009
  103CHL1   C1813835   2.435   2.768  18.018
  103CHL1  H18A13836   2.422   2.680  17.820
  103CHL1  H18B13837   2.404   2.735  18.318
  103CHL1  H18C13838   2.364   2.846  17.913
  103CHL1   C1213839   2.686   2.727  18.204
  103CHL1  H12A13840   2.698   2.633  18.036
  103CHL1  H12B13841   2.786   2.775  18.195
  103CHL1   C1113842   2.650   2.700  18.648
  103CHL1  H11A13843   2.558   2.638  18.645
  103CHL1  H11B13844   2.730   2.638  18.786
  103CHL1    C913845   2.629   2.831  18.891
  103CHL1    H913846   2.731   2.878  18.912
  103CHL1   C1013847   2.578   2.816  19.326
  103CHL1   C1913848   2.458   2.720  19.308
  103CHL1  H19A13849   2.385   2.750  19.074
  103CHL1  H19B13850   2.490   2.617  19.236
  103CHL1  H19C13851   2.403   2.716  19.596
  103CHL1    C113852   2.694   2.764  19.584
  103CHL1   H1A13853   2.725   2.668  19.449
  103CHL1   H1B13854   2.782   2.832  19.551
  103CHL1    C213855   2.659   2.753  20.031
  103CHL1   H2A13856   2.741   2.708  20.208
  103CHL1   H2B13857   2.567   2.691  20.064
  103CHL1   C2013858   2.559   2.799  17.235
  103CHL1   H2013859   2.448   2.793  17.244
  103CHL1   C2113860   2.615   2.656  17.253
  103CHL1  H21A13861   2.580   2.594  16.998
  103CHL1  H21B13862   2.581   2.604  17.523
  103CHL1  H21C13863   2.725   2.660  17.259
  103CHL1   C2213864   2.596   2.870  16.845
  103CHL1  H22A13865   2.529   2.958  16.806
  103CHL1  H22B13866   2.701   2.908  16.857
  103CHL1   C2313867   2.582   2.781  16.479
  103CHL1  H23A13868   2.668   2.711  16.464
  103CHL1  H23B13869   2.488   2.721  16.503
  103CHL1   C2413870   2.578   2.866  16.104
  103CHL1  H24A13871   2.486   2.928  16.125
  103CHL1  H24B13872   2.664   2.935  16.092
  103CHL1   C2513873   2.572   2.785  15.717
  103CHL1   H2513874   2.495   2.705  15.753
  103CHL1   C2613875   2.531   2.881  15.390
  103CHL1  H26A13876   2.442   2.941  15.474
  103CHL1  H26B13877   2.610   2.957  15.357
  103CHL1  H26C13878   2.511   2.830  15.099
  103CHL1   C2713879   2.708   2.720  15.612
  103CHL1  H27A13880   2.707   2.678  15.306
  103CHL1  H27B13881   2.789   2.795  15.633
  103CHL1  H27C13882   2.730   2.638  15.819
  104CHL1    C313883   6.133   4.143  20.253
  104CHL1    H313884   6.242   4.154  20.313
  104CHL1    O313885   6.063   4.134  20.619
  104CHL1   H3'13886   6.086   4.046  20.730
  104CHL1    C413887   6.081   4.267  20.028
  104CHL1   H4A13888   5.972   4.255  19.974
  104CHL1   H4B13889   6.094   4.356  20.226
  104CHL1    C513890   6.155   4.282  19.635
  104CHL1    C613891   6.225   4.393  19.560
  104CHL1    H613892   6.221   4.476  19.776
  104CHL1    C713893   6.308   4.414  19.188
  104CHL1   H7A13894   6.286   4.513  19.053
  104CHL1   H7B13895   6.415   4.414  19.278
  104CHL1    C813896   6.289   4.306  18.861
  104CHL1    H813897   6.198   4.334  18.684
  104CHL1   C1413898   6.413   4.297  18.594
  104CHL1   H1413899   6.493   4.251  18.783
  104CHL1   C1513900   6.476   4.426  18.441
  104CHL1  H15A13901   6.397   4.484  18.291
  104CHL1  H15B13902   6.524   4.486  18.678
  104CHL1   C1613903   6.574   4.377  18.123
  104CHL1  H16A13904   6.589   4.452  17.883
  104CHL1  H16B13905   6.671   4.359  18.273
  104CHL1   C1713906   6.530   4.236  17.994
  104CHL1   H1713907   6.604   4.168  18.147
  104CHL1   C1313908   6.396   4.211  18.222
  104CHL1   C1813909   6.277   4.269  17.976
  104CHL1  H18A13910   6.262   4.376  18.027
  104CHL1  H18B13911   6.290   4.261  17.652
  104CHL1  H18C13912   6.183   4.217  18.051
  104CHL1   C1213913   6.371   4.067  18.375
  104CHL1  H12A13914   6.343   4.001  18.120
  104CHL1  H12B13915   6.465   4.028  18.510
  104CHL1   C1113916   6.259   4.059  18.696
  104CHL1  H11A13917   6.162   4.069  18.534
  104CHL1  H11B13918   6.264   3.958  18.834
  104CHL1    C913919   6.268   4.166  19.035
  104CHL1    H913920   6.363   4.145  19.197
  104CHL1   C1013921   6.156   4.157  19.359
  104CHL1   C1913922   6.018   4.154  19.149
  104CHL1  H19A13923   6.005   4.240  18.942
  104CHL1  H19B13924   6.006   4.060  18.972
  104CHL1  H19C13925   5.936   4.156  19.371
  104CHL1    C113926   6.178   4.025  19.602
  104CHL1   H1A13927   6.147   3.939  19.413
  104CHL1   H1B13928   6.287   4.013  19.662
  104CHL1    C213929   6.106   4.017  20.007
  104CHL1   H2A13930   6.143   3.928  20.175
  104CHL1   H2B13931   5.997   4.006  19.959
  104CHL1   C2013932   6.541   4.203  17.541
  104CHL1   H2013933   6.448   4.228  17.382
  104CHL1   C2113934   6.561   4.053  17.520
  104CHL1  H21A13935   6.661   4.032  17.649
  104CHL1  H21B13936   6.556   4.018  17.205
  104CHL1  H21C13937   6.487   3.996  17.697
  104CHL1   C2213938   6.654   4.276  17.298
  104CHL1  H22A13939   6.633   4.385  17.286
  104CHL1  H22B13940   6.749   4.264  17.466
  104CHL1   C2313941   6.679   4.232  16.854
  104CHL1  H23A13942   6.761   4.298  16.746
  104CHL1  H23B13943   6.715   4.127  16.848
  104CHL1   C2413944   6.563   4.243  16.554
  104CHL1  H24A13945   6.482   4.174  16.653
  104CHL1  H24B13946   6.525   4.346  16.563
  104CHL1   C2513947   6.591   4.212  16.104
  104CHL1   H2513948   6.617   4.104  16.077
  104CHL1   C2613949   6.462   4.236  15.861
  104CHL1  H26A13950   6.375   4.193  16.017
  104CHL1  H26B13951   6.444   4.345  15.825
  104CHL1  H26C13952   6.468   4.191  15.558
  104CHL1   C2713953   6.706   4.294  15.924
  104CHL1  H27A13954   6.692   4.402  15.987
  104CHL1  H27B13955   6.804   4.262  16.053
  104CHL1  H27C13956   6.711   4.280  15.594
  105CHL1    C313957   6.053   3.295  20.241
  105CHL1    H313958   6.137   3.368  20.211
  105CHL1    O313959   6.019   3.281  20.649
  105CHL1   H3'13960   6.097   3.241  20.772
  105CHL1    C413961   5.931   3.347  20.004
  105CHL1   H4A13962   5.844   3.282  20.079
  105CHL1   H4B13963   5.907   3.448  20.127
  105CHL1    C513964   5.952   3.349  19.554
  105CHL1    C613965   5.931   3.460  19.338
  105CHL1    H613966   5.895   3.551  19.488
  105CHL1    C713967   5.946   3.466  18.888
  105CHL1   H7A13968   5.857   3.514  18.747
  105CHL1   H7B13969   6.034   3.529  18.813
  105CHL1    C813970   5.965   3.326  18.696
  105CHL1    H813971   5.867   3.275  18.693
  105CHL1   C1413972   6.018   3.338  18.270
  105CHL1   H1413973   6.120   3.378  18.318
  105CHL1   C1513974   5.950   3.435  17.973
  105CHL1  H15A13975   5.840   3.435  18.015
  105CHL1  H15B13976   5.987   3.538  18.018
  105CHL1   C1613977   5.989   3.382  17.556
  105CHL1  H16A13978   5.898   3.339  17.412
  105CHL1  H16B13979   6.029   3.462  17.358
  105CHL1   C1713980   6.093   3.270  17.631
  105CHL1   H1713981   6.190   3.323  17.679
  105CHL1   C1313982   6.052   3.210  18.045
  105CHL1   C1813983   5.924   3.125  18.000
  105CHL1  H18A13984   5.850   3.172  17.796
  105CHL1  H18B13985   5.949   3.025  17.877
  105CHL1  H18C13986   5.874   3.108  18.291
  105CHL1   C1213987   6.160   3.140  18.300
  105CHL1  H12A13988   6.195   3.045  18.168
  105CHL1  H12B13989   6.248   3.207  18.327
  105CHL1   C1113990   6.107   3.111  18.723
  105CHL1  H11A13991   6.023   3.039  18.699
  105CHL1  H11B13992   6.187   3.060  18.897
  105CHL1    C913993   6.061   3.240  18.945
  105CHL1    H913994   6.154   3.301  18.975
  105CHL1   C1013995   6.009   3.218  19.377
  105CHL1   C1913996   5.893   3.114  19.371
  105CHL1  H19A13997   5.929   3.015  19.266
  105CHL1  H19B13998   5.849   3.099  19.674
  105CHL1  H19C13999   5.811   3.147  19.170
  105CHL1    C114000   6.127   3.164  19.635
  105CHL1   H1A14001   6.152   3.062  19.533
  105CHL1   H1B14002   6.216   3.229  19.587
  105CHL1    C214003   6.097   3.158  20.085
  105CHL1   H2A14004   6.188   3.125  20.244
  105CHL1   H2B14005   6.015   3.085  20.139
  105CHL1   C2014006   6.114   3.172  17.283
  105CHL1   H2014007   6.037   3.092  17.313
  105CHL1   C2114008   6.254   3.107  17.322
  105CHL1  H21A14009   6.268   3.032  17.082
  105CHL1  H21B14010   6.267   3.056  17.610
  105CHL1  H21C14011   6.334   3.184  17.301
  105CHL1   C2214012   6.092   3.228  16.851
  105CHL1  H22A14013   6.083   3.139  16.653
  105CHL1  H22B14014   5.996   3.282  16.830
  105CHL1   C2314015   6.207   3.313  16.680
  105CHL1  H23A14016   6.220   3.405  16.863
  105CHL1  H23B14017   6.301   3.256  16.701
  105CHL1   C2414018   6.190   3.348  16.233
  105CHL1  H24A14019   6.279   3.407  16.143
  105CHL1  H24B14020   6.189   3.254  16.053
  105CHL1   C2514021   6.067   3.433  16.113
  105CHL1   H2514022   5.976   3.370  16.146
  105CHL1   C2614023   6.053   3.555  16.386
  105CHL1  H26A14024   6.020   3.526  16.692
  105CHL1  H26B14025   6.152   3.603  16.419
  105CHL1  H26C14026   5.981   3.628  16.260
  105CHL1   C2714027   6.078   3.475  15.672
  105CHL1  H27A14028   5.988   3.533  15.579
  105CHL1  H27B14029   6.168   3.539  15.621
  105CHL1  H27C14030   6.086   3.386  15.477
  106CHL1    C314031   1.925   2.509  20.256
  106CHL1    H314032   1.956   2.614  20.328
  106CHL1    O314033   1.895   2.441  20.619
  106CHL1   H3'14034   1.979   2.434  20.757
  106CHL1    C414035   1.799   2.510  19.998
  106CHL1   H4A14036   1.760   2.407  19.983
  106CHL1   H4B14037   1.721   2.570  20.151
  106CHL1    C514038   1.825   2.560  19.575
  106CHL1    C614039   1.763   2.668  19.434
  106CHL1    H614040   1.692   2.723  19.623
  106CHL1    C714041   1.770   2.712  19.014
  106CHL1   H7A14042   1.667   2.737  18.921
  106CHL1   H7B14043   1.832   2.803  18.981
  106CHL1    C814044   1.826   2.601  18.741
  106CHL1    H814045   1.750   2.521  18.711
  106CHL1   C1414046   1.859   2.664  18.348
  106CHL1   H1414047   1.950   2.726  18.408
  106CHL1   C1514048   1.761   2.769  18.210
  106CHL1  H15A14049   1.661   2.748  18.327
  106CHL1  H15B14050   1.796   2.869  18.315
  106CHL1   C1614051   1.764   2.758  17.760
  106CHL1  H16A14052   1.667   2.715  17.652
  106CHL1  H16B14053   1.779   2.859  17.649
  106CHL1   C1714054   1.886   2.669  17.649
  106CHL1   H1714055   1.975   2.736  17.670
  106CHL1   C1314056   1.895   2.571  18.003
  106CHL1   C1814057   1.793   2.458  17.928
  106CHL1  H18A14058   1.837   2.385  17.712
  106CHL1  H18B14059   1.769   2.402  18.204
  106CHL1  H18C14060   1.699   2.496  17.796
  106CHL1   C1214061   2.033   2.520  18.141
  106CHL1  H12A14062   2.073   2.447  17.922
  106CHL1  H12B14063   2.104   2.605  18.156
  106CHL1   C1114064   2.024   2.456  18.570
  106CHL1  H11A14065   1.970   2.360  18.528
  106CHL1  H11B14066   2.126   2.434  18.666
  106CHL1    C914067   1.954   2.543  18.903
  106CHL1    H914068   2.022   2.630  18.948
  106CHL1   C1014069   1.929   2.482  19.329
  106CHL1   C1914070   1.885   2.336  19.263
  106CHL1  H19A14071   1.852   2.285  19.539
  106CHL1  H19B14072   1.801   2.334  19.044
  106CHL1  H19C14073   1.969   2.277  19.134
  106CHL1    C114074   2.055   2.492  19.602
  106CHL1   H1A14075   2.133   2.433  19.452
  106CHL1   H1B14076   2.091   2.597  19.614
  106CHL1    C214077   2.040   2.439  20.034
  106CHL1   H2A14078   2.135   2.454  20.202
  106CHL1   H2B14079   2.020   2.330  20.019
  106CHL1   C2014080   1.874   2.622  17.208
  106CHL1   H2014081   1.799   2.541  17.190
  106CHL1   C2114082   2.009   2.565  17.064
  106CHL1  H21A14083   1.998   2.529  16.752
  106CHL1  H21B14084   2.041   2.480  17.253
  106CHL1  H21C14085   2.088   2.644  17.070
  106CHL1   C2214086   1.822   2.738  16.935
  106CHL1  H22A14087   1.715   2.756  16.998
  106CHL1  H22B14088   1.878   2.830  17.025
  106CHL1   C2314089   1.840   2.727  16.473
  106CHL1  H23A14090   1.948   2.742  16.428
  106CHL1  H23B14091   1.818   2.626  16.356
  106CHL1   C2414092   1.756   2.834  16.233
  106CHL1  H24A14093   1.651   2.800  16.227
  106CHL1  H24B14094   1.761   2.929  16.404
  106CHL1   C2514095   1.806   2.865  15.801
  106CHL1   H2514096   1.910   2.832  15.840
  106CHL1   C2614097   1.745   2.783  15.450
  106CHL1  H26A14098   1.704   2.687  15.552
  106CHL1  H26B14099   1.669   2.836  15.270
  106CHL1  H26C14100   1.823   2.761  15.228
  106CHL1   C2714101   1.818   3.013  15.687
  106CHL1  H27A14102   1.772   3.030  15.387
  106CHL1  H27B14103   1.764   3.075  15.903
  106CHL1  H27C14104   1.921   3.055  15.675
  107CHL1    C314105   4.040   6.272  20.211
  107CHL1    H314106   4.065   6.164  20.205
  107CHL1    O314107   4.027   6.311  20.616
  107CHL1   H3'14108   4.073   6.395  20.649
  107CHL1    C414109   4.155   6.352  20.022
  107CHL1   H4A14110   4.136   6.461  20.061
  107CHL1   H4B14111   4.248   6.329  20.193
  107CHL1    C514112   4.167   6.316  19.584
  107CHL1    C614113   4.279   6.259  19.440
  107CHL1    H614114   4.367   6.243  19.635
  107CHL1    C714115   4.294   6.221  19.011
  107CHL1   H7A14116   4.399   6.231  18.915
  107CHL1   H7B14117   4.264   6.115  18.963
  107CHL1    C814118   4.202   6.309  18.750
  107CHL1    H814119   4.229   6.416  18.801
  107CHL1   C1414120   4.225   6.277  18.315
  107CHL1   H1414121   4.209   6.166  18.282
  107CHL1   C1514122   4.365   6.304  18.153
  107CHL1  H15A14123   4.396   6.408  18.228
  107CHL1  H15B14124   4.439   6.233  18.279
  107CHL1   C1614125   4.345   6.286  17.703
  107CHL1  H16A14126   4.406   6.358  17.535
  107CHL1  H16B14127   4.376   6.182  17.625
  107CHL1   C1714128   4.193   6.303  17.613
  107CHL1   H1714129   4.154   6.202  17.541
  107CHL1   C1314130   4.130   6.345  18.021
  107CHL1   C1814131   4.142   6.499  18.066
  107CHL1  H18A14132   4.130   6.532  18.378
  107CHL1  H18B14133   4.241   6.536  17.958
  107CHL1  H18C14134   4.063   6.550  17.892
  107CHL1   C1214135   3.990   6.292  18.132
  107CHL1  H12A14136   3.912   6.325  17.919
  107CHL1  H12B14137   3.993   6.180  18.123
  107CHL1   C1114138   3.953   6.334  18.567
  107CHL1  H11A14139   3.941   6.444  18.564
  107CHL1  H11B14140   3.854   6.291  18.648
  107CHL1    C914141   4.058   6.288  18.885
  107CHL1    H914142   4.046   6.177  18.897
  107CHL1   C1014143   4.040   6.339  19.323
  107CHL1   C1914144   4.009   6.491  19.311
  107CHL1  H19A14145   3.914   6.510  19.155
  107CHL1  H19B14146   3.997   6.534  19.617
  107CHL1  H19C14147   4.090   6.547  19.155
  107CHL1    C114148   3.924   6.263  19.530
  107CHL1   H1A14149   3.829   6.287  19.371
  107CHL1   H1B14150   3.942   6.154  19.497
  107CHL1    C214151   3.908   6.295  19.980
  107CHL1   H2A14152   3.828   6.231  20.112
  107CHL1   H2B14153   3.877   6.401  20.019
  107CHL1   C2014154   4.171   6.395  17.244
  107CHL1   H2014155   4.215   6.495  17.316
  107CHL1   C2114156   4.020   6.413  17.172
  107CHL1  H21A14157   3.975   6.316  17.088
  107CHL1  H21B14158   4.001   6.486  16.929
  107CHL1  H21C14159   3.968   6.450  17.442
  107CHL1   C2214160   4.242   6.350  16.851
  107CHL1  H22A14161   4.351   6.336  16.908
  107CHL1  H22B14162   4.201   6.253  16.752
  107CHL1   C2314163   4.230   6.453  16.503
  107CHL1  H23A14164   4.123   6.466  16.419
  107CHL1  H23B14165   4.268   6.551  16.614
  107CHL1   C2414166   4.308   6.416  16.119
  107CHL1  H24A14167   4.412   6.393  16.215
  107CHL1  H24B14168   4.264   6.325  15.984
  107CHL1   C2514169   4.314   6.530  15.798
  107CHL1   H2514170   4.326   6.626  15.969
  107CHL1   C2614171   4.434   6.522  15.510
  107CHL1  H26A14172   4.439   6.611  15.312
  107CHL1  H26B14173   4.530   6.514  15.678
  107CHL1  H26C14174   4.423   6.432  15.312
  107CHL1   C2714175   4.187   6.539  15.540
  107CHL1  H27A14176   4.198   6.623  15.324
  107CHL1  H27B14177   4.174   6.445  15.366
  107CHL1  H27C14178   4.097   6.557  15.726
  108CHL1    C314179   6.058   2.472  20.244
  108CHL1    H314180   5.968   2.432  20.082
  108CHL1    O314181   6.047   2.436  20.652
  108CHL1   H3'14182   5.968   2.482  20.751
  108CHL1    C414183   6.186   2.409  20.082
  108CHL1   H4A14184   6.273   2.453  20.238
  108CHL1   H4B14185   6.185   2.301  20.151
  108CHL1    C514186   6.194   2.436  19.638
  108CHL1    C614187   6.199   2.333  19.383
  108CHL1    H614188   6.204   2.230  19.494
  108CHL1    C714189   6.205   2.349  18.936
  108CHL1   H7A14190   6.280   2.280  18.804
  108CHL1   H7B14191   6.104   2.323  18.819
  108CHL1    C814192   6.231   2.494  18.801
  108CHL1    H814193   6.339   2.517  18.837
  108CHL1   C1414194   6.194   2.503  18.363
  108CHL1   H1414195   6.087   2.470  18.342
  108CHL1   C1514196   6.270   2.410  18.069
  108CHL1  H15A14197   6.379   2.417  18.129
  108CHL1  H15B14198   6.238   2.304  18.099
  108CHL1   C1614199   6.237   2.470  17.658
  108CHL1  H16A14200   6.331   2.487  17.487
  108CHL1  H16B14201   6.172   2.401  17.484
  108CHL1   C1714202   6.163   2.605  17.745
  108CHL1   H1714203   6.054   2.580  17.751
  108CHL1   C1314204   6.197   2.642  18.183
  108CHL1   C1814205   6.340   2.702  18.186
  108CHL1  H18A14206   6.336   2.807  18.084
  108CHL1  H18B14207   6.383   2.701  18.492
  108CHL1  H18C14208   6.408   2.646  17.985
  108CHL1   C1214209   6.099   2.730  18.423
  108CHL1  H12A14210   6.099   2.834  18.312
  108CHL1  H12B14211   5.996   2.690  18.390
  108CHL1   C1114212   6.137   2.733  18.870
  108CHL1  H11A14213   6.234   2.785  18.903
  108CHL1  H11B14214   6.061   2.792  19.032
  108CHL1    C914215   6.146   2.590  19.050
  108CHL1    H914216   6.041   2.550  19.023
  108CHL1   C1014217   6.181   2.584  19.506
  108CHL1   C1914218   6.318   2.651  19.578
  108CHL1  H19A14219   6.398   2.600  19.404
  108CHL1  H19B14220   6.316   2.758  19.485
  108CHL1  H19C14221   6.346   2.648  19.902
  108CHL1    C114222   6.072   2.660  19.746
  108CHL1   H1A14223   6.090   2.769  19.716
  108CHL1   H1B14224   5.973   2.639  19.608
  108CHL1    C214225   6.064   2.624  20.196
  108CHL1   H2A14226   5.975   2.673  20.331
  108CHL1   H2B14227   6.154   2.662  20.352
  108CHL1   C2014228   6.185   2.711  17.427
  108CHL1   H2014229   6.290   2.748  17.433
  108CHL1   C2114230   6.092   2.828  17.523
  108CHL1  H21A14231   6.138   2.898  17.739
  108CHL1  H21B14232   5.999   2.791  17.661
  108CHL1  H21C14233   6.069   2.885  17.247
  108CHL1   C2214234   6.159   2.663  16.992
  108CHL1  H22A14235   6.159   2.752  16.791
  108CHL1  H22B14236   6.244   2.599  16.896
  108CHL1   C2314237   6.028   2.586  16.926
  108CHL1  H23A14238   6.018   2.504  17.148
  108CHL1  H23B14239   5.941   2.654  16.971
  108CHL1   C2414240   6.027   2.523  16.509
  108CHL1  H24A14241   6.055   2.599  16.281
  108CHL1  H24B14242   6.105   2.443  16.503
  108CHL1   C2514243   5.893   2.460  16.377
  108CHL1   H2514244   5.826   2.545  16.293
  108CHL1   C2614245   5.916   2.369  16.011
  108CHL1  H26A14246   5.992   2.293  16.080
  108CHL1  H26B14247   5.822   2.316  15.930
  108CHL1  H26C14248   5.949   2.429  15.747
  108CHL1   C2714249   5.822   2.381  16.710
  108CHL1  H27A14250   5.795   2.448  16.965
  108CHL1  H27B14251   5.727   2.337  16.593
  108CHL1  H27C14252   5.887   2.300  16.821
  109CHL1    C314253   2.701   6.342  20.121
  109CHL1    H314254   2.806   6.376  20.067
  109CHL1    O314255   2.679   6.331  20.538
  109CHL1   H3'14256   2.685   6.236  20.592
  109CHL1    C414257   2.605   6.443  19.914
  109CHL1   H4A14258   2.502   6.430  20.034
  109CHL1   H4B14259   2.636   6.545  20.013
  109CHL1    C514260   2.607   6.431  19.455
  109CHL1    C614261   2.630   6.533  19.206
  109CHL1    H614262   2.642   6.634  19.326
  109CHL1    C714263   2.641   6.518  18.753
  109CHL1   H7A14264   2.599   6.606  18.597
  109CHL1   H7B14265   2.747   6.514  18.660
  109CHL1    C814266   2.578   6.388  18.591
  109CHL1    H814267   2.468   6.399  18.597
  109CHL1   C1414268   2.625   6.355  18.168
  109CHL1   H1414269   2.730   6.319  18.198
  109CHL1   C1514270   2.640   6.468  17.865
  109CHL1  H15A14271   2.549   6.530  17.868
  109CHL1  H15B14272   2.727   6.533  17.934
  109CHL1   C1614273   2.662   6.390  17.472
  109CHL1  H16A14274   2.619   6.440  17.211
  109CHL1  H16B14275   2.772   6.384  17.427
  109CHL1   C1714276   2.608   6.243  17.535
  109CHL1   H1714277   2.702   6.184  17.544
  109CHL1   C1314278   2.549   6.242  17.964
  109CHL1   C1814279   2.398   6.272  17.928
  109CHL1  H18A14280   2.343   6.183  17.820
  109CHL1  H18B14281   2.352   6.300  18.216
  109CHL1  H18C14282   2.382   6.354  17.709
  109CHL1   C1214283   2.574   6.115  18.210
  109CHL1  H12A14284   2.505   6.035  18.105
  109CHL1  H12B14285   2.677   6.079  18.159
  109CHL1   C1114286   2.553   6.138  18.663
  109CHL1  H11A14287   2.443   6.134  18.708
  109CHL1  H11B14288   2.600   6.054  18.825
  109CHL1    C914289   2.613   6.268  18.843
  109CHL1    H914290   2.724   6.258  18.813
  109CHL1   C1014291   2.589   6.287  19.296
  109CHL1   C1914292   2.442   6.251  19.401
  109CHL1  H19A14293   2.414   6.149  19.311
  109CHL1  H19B14294   2.422   6.257  19.728
  109CHL1  H19C14295   2.372   6.321  19.248
  109CHL1    C114296   2.697   6.201  19.512
  109CHL1   H1A14297   2.695   6.098  19.398
  109CHL1   H1B14298   2.798   6.241  19.434
  109CHL1    C214299   2.683   6.202  19.965
  109CHL1   H2A14300   2.757   6.132  20.103
  109CHL1   H2B14301   2.581   6.166  20.049
  109CHL1   C2014302   2.521   6.177  17.205
  109CHL1   H2014303   2.413   6.203  17.238
  109CHL1   C2114304   2.533   6.024  17.253
  109CHL1  H21A14305   2.462   5.986  17.484
  109CHL1  H21B14306   2.635   5.997  17.349
  109CHL1  H21C14307   2.512   5.971  16.968
  109CHL1   C2214308   2.547   6.214  16.761
  109CHL1  H22A14309   2.495   6.139  16.572
  109CHL1  H22B14310   2.502   6.312  16.692
  109CHL1   C2314311   2.694   6.213  16.644
  109CHL1  H23A14312   2.750   6.287  16.827
  109CHL1  H23B14313   2.734   6.112  16.710
  109CHL1   C2414314   2.718   6.245  16.203
  109CHL1  H24A14315   2.665   6.170  16.017
  109CHL1  H24B14316   2.676   6.345  16.128
  109CHL1   C2514317   2.869   6.238  16.122
  109CHL1   H2514318   2.917   6.253  16.422
  109CHL1   C2614319   2.908   6.095  16.002
  109CHL1  H26A14320   2.851   6.053  15.750
  109CHL1  H26B14321   3.015   6.084  15.939
  109CHL1  H26C14322   2.891   6.030  16.263
  109CHL1   C2714323   2.928   6.353  15.864
  109CHL1  H27A14324   2.997   6.319  15.627
  109CHL1  H27B14325   2.848   6.413  15.720
  109CHL1  H27C14326   2.986   6.421  16.065
  110CHL1    C314327   1.269   5.484  20.211
  110CHL1    H314328   1.319   5.580  20.151
  110CHL1    O314329   1.260   5.457  20.631
  110CHL1   H3'14330   1.243   5.361  20.646
  110CHL1    C414331   1.135   5.510  20.004
  110CHL1   H4A14332   1.068   5.427  20.094
  110CHL1   H4B14333   1.094   5.605  20.136
  110CHL1    C514334   1.145   5.518  19.548
  110CHL1    C614335   1.095   5.616  19.323
  110CHL1    H614336   1.047   5.702  19.470
  110CHL1    C714337   1.083   5.602  18.873
  110CHL1   H7A14338   0.977   5.589  18.807
  110CHL1   H7B14339   1.101   5.695  18.717
  110CHL1    C814340   1.147   5.483  18.651
  110CHL1    H814341   1.069   5.405  18.615
  110CHL1   C1414342   1.203   5.518  18.240
  110CHL1   H1414343   1.303   5.565  18.294
  110CHL1   C1514344   1.131   5.621  17.979
  110CHL1  H15A14345   1.025   5.603  17.970
  110CHL1  H15B14346   1.142   5.725  18.084
  110CHL1   C1614347   1.192   5.600  17.565
  110CHL1  H16A14348   1.111   5.579  17.346
  110CHL1  H16B14349   1.249   5.690  17.475
  110CHL1   C1714350   1.287   5.479  17.601
  110CHL1   H1714351   1.387   5.521  17.667
  110CHL1   C1314352   1.247   5.400  17.982
  110CHL1   C1814353   1.130   5.305  17.880
  110CHL1  H18A14354   1.167   5.216  17.712
  110CHL1  H18B14355   1.080   5.266  18.150
  110CHL1  H18C14356   1.055   5.356  17.688
  110CHL1   C1214357   1.359   5.332  18.231
  110CHL1  H12A14358   1.394   5.240  18.081
  110CHL1  H12B14359   1.445   5.402  18.246
  110CHL1   C1114360   1.314   5.298  18.666
  110CHL1  H11A14361   1.235   5.221  18.645
  110CHL1  H11B14362   1.400   5.255  18.828
  110CHL1    C914363   1.258   5.422  18.894
  110CHL1    H914364   1.341   5.496  18.897
  110CHL1   C1014365   1.218   5.405  19.344
  110CHL1   C1914366   1.118   5.290  19.377
  110CHL1  H19A14367   1.096   5.265  19.695
  110CHL1  H19B14368   1.021   5.312  19.227
  110CHL1  H19C14369   1.161   5.204  19.227
  110CHL1    C114370   1.350   5.385  19.572
  110CHL1   H1A14371   1.395   5.296  19.437
  110CHL1   H1B14372   1.417   5.472  19.515
  110CHL1    C214373   1.340   5.365  20.025
  110CHL1   H2A14374   1.442   5.350  20.157
  110CHL1   H2B14375   1.281   5.274  20.088
  110CHL1   C2014376   1.300   5.405  17.205
  110CHL1   H2014377   1.201   5.362  17.124
  110CHL1   C2114378   1.401   5.295  17.274
  110CHL1  H21A14379   1.351   5.213  17.436
  110CHL1  H21B14380   1.485   5.331  17.463
  110CHL1  H21C14381   1.443   5.257  16.989
  110CHL1   C2214382   1.345   5.493  16.845
  110CHL1  H22A14383   1.311   5.597  16.878
  110CHL1  H22B14384   1.456   5.497  16.842
  110CHL1   C2314385   1.292   5.435  16.449
  110CHL1  H23A14386   1.339   5.335  16.413
  110CHL1  H23B14387   1.182   5.421  16.473
  110CHL1   C2414388   1.321   5.521  16.080
  110CHL1  H24A14389   1.270   5.619  16.119
  110CHL1  H24B14390   1.430   5.540  16.056
  110CHL1   C2514391   1.270   5.462  15.678
  110CHL1   H2514392   1.158   5.463  15.690
  110CHL1   C2614393   1.315   5.549  15.324
  110CHL1  H26A14394   1.292   5.655  15.381
  110CHL1  H26B14395   1.425   5.538  15.279
  110CHL1  H26C14396   1.264   5.517  15.045
  110CHL1   C2714397   1.315   5.317  15.615
  110CHL1  H27A14398   1.425   5.309  15.621
  110CHL1  H27B14399   1.274   5.252  15.855
  110CHL1  H27C14400   1.278   5.278  15.324
  111CHL1    C314401   3.276   0.690  20.358
  111CHL1    H314402   3.219   0.596  20.424
  111CHL1    O314403   3.276   0.769  20.712
  111CHL1   H3'14404   3.347   0.725  20.859
  111CHL1    C414405   3.421   0.658  20.250
  111CHL1   H4A14406   3.475   0.753  20.190
  111CHL1   H4B14407   3.469   0.610  20.511
  111CHL1    C514408   3.422   0.570  19.881
  111CHL1    C614409   3.473   0.447  19.896
  111CHL1    H614410   3.517   0.410  20.175
  111CHL1    C714411   3.481   0.356  19.539
  111CHL1   H7A14412   3.580   0.306  19.527
  111CHL1   H7B14413   3.403   0.278  19.566
  111CHL1    C814414   3.457   0.434  19.143
  111CHL1    H814415   3.546   0.500  19.092
  111CHL1   C1414416   3.446   0.339  18.795
  111CHL1   H1414417   3.358   0.273  18.855
  111CHL1   C1514418   3.567   0.246  18.741
  111CHL1  H15A14419   3.660   0.299  18.834
  111CHL1  H15B14420   3.555   0.154  18.921
  111CHL1   C1614421   3.568   0.217  18.291
  111CHL1  H16A14422   3.664   0.253  18.165
  111CHL1  H16B14423   3.561   0.110  18.225
  111CHL1   C1714424   3.446   0.292  18.105
  111CHL1   H1714425   3.358   0.224  18.126
  111CHL1   C1314426   3.419   0.408  18.396
  111CHL1   C1814427   3.522   0.519  18.312
  111CHL1  H18A14428   3.505   0.560  18.009
  111CHL1  H18B14429   3.516   0.603  18.522
  111CHL1  H18C14430   3.625   0.480  18.330
  111CHL1   C1214431   3.277   0.466  18.426
  111CHL1  H12A14432   3.248   0.520  18.147
  111CHL1  H12B14433   3.204   0.384  18.474
  111CHL1   C1114434   3.268   0.567  18.777
  111CHL1  H11A14435   3.318   0.659  18.675
  111CHL1  H11B14436   3.161   0.592  18.828
  111CHL1    C914437   3.330   0.518  19.182
  111CHL1    H914438   3.255   0.446  19.302
  111CHL1   C1014439   3.350   0.628  19.506
  111CHL1   C1914440   3.437   0.743  19.332
  111CHL1  H19A14441   3.531   0.706  19.197
  111CHL1  H19B14442   3.382   0.799  19.095
  111CHL1  H19C14443   3.463   0.817  19.566
  111CHL1    C114444   3.210   0.682  19.623
  111CHL1   H1A14445   3.171   0.743  19.371
  111CHL1   H1B14446   3.141   0.595  19.659
  111CHL1    C214447   3.208   0.763  20.013
  111CHL1   H2A14448   3.102   0.780  20.097
  111CHL1   H2B14449   3.258   0.862  19.962
  111CHL1   C2014450   3.470   0.318  17.658
  111CHL1   H2014451   3.568   0.371  17.628
  111CHL1   C2114452   3.365   0.410  17.457
  111CHL1  H21A14453   3.267   0.359  17.436
  111CHL1  H21B14454   3.399   0.438  17.151
  111CHL1  H21C14455   3.354   0.506  17.619
  111CHL1   C2214456   3.481   0.185  17.421
  111CHL1  H22A14457   3.567   0.125  17.538
  111CHL1  H22B14458   3.389   0.125  17.469
  111CHL1   C2314459   3.502   0.211  16.971
  111CHL1  H23A14460   3.412   0.259  16.839
  111CHL1  H23B14461   3.587   0.281  16.950
  111CHL1   C2414462   3.536   0.090  16.710
  111CHL1  H24A14463   3.609   0.025  16.869
  111CHL1  H24B14464   3.445   0.030  16.653
  111CHL1   C2514465   3.596   0.134  16.305
  111CHL1   H2514466   3.698   0.178  16.359
  111CHL1   C2614467   3.616   0.011  16.047
  111CHL1  H26A14468   3.687  -0.053  16.212
  111CHL1  H26B14469   3.521  -0.046  16.014
  111CHL1  H26C14470   3.656   0.034  15.744
  111CHL1   C2714471   3.514   0.237  16.074
  111CHL1  H27A14472   3.522   0.221  15.744
  111CHL1  H27B14473   3.407   0.237  16.164
  111CHL1  H27C14474   3.558   0.336  16.125
  112CHL1    C314475   4.651   0.716  20.262
  112CHL1    H314476   4.635   0.607  20.307
  112CHL1    O314477   4.666   0.777  20.646
  112CHL1   H3'14478   4.630   0.866  20.607
  112CHL1    C414479   4.780   0.739  20.019
  112CHL1   H4A14480   4.813   0.844  20.073
  112CHL1   H4B14481   4.858   0.674  20.151
  112CHL1    C514482   4.771   0.720  19.569
  112CHL1    C614483   4.863   0.652  19.356
  112CHL1    H614484   4.950   0.607  19.509
  112CHL1    C714485   4.866   0.648  18.906
  112CHL1   H7A14486   4.970   0.664  18.792
  112CHL1   H7B14487   4.833   0.548  18.795
  112CHL1    C814488   4.774   0.757  18.723
  112CHL1    H814489   4.821   0.856  18.774
  112CHL1   C1414490   4.764   0.738  18.273
  112CHL1   H1414491   4.723   0.635  18.228
  112CHL1   C1514492   4.895   0.744  18.030
  112CHL1  H15A14493   4.953   0.834  18.120
  112CHL1  H15B14494   4.957   0.654  18.069
  112CHL1   C1614495   4.844   0.761  17.598
  112CHL1  H16A14496   4.893   0.850  17.457
  112CHL1  H16B14497   4.865   0.672  17.412
  112CHL1   C1714498   4.690   0.785  17.634
  112CHL1   H1714499   4.641   0.685  17.610
  112CHL1   C1314500   4.666   0.832  18.063
  112CHL1   C1814501   4.713   0.980  18.093
  112CHL1  H18A14502   4.724   1.012  18.411
  112CHL1  H18B14503   4.810   0.997  17.943
  112CHL1  H18C14504   4.639   1.048  17.952
  112CHL1   C1214505   4.527   0.809  18.246
  112CHL1  H12A14506   4.450   0.875  18.114
  112CHL1  H12B14507   4.496   0.704  18.189
  112CHL1   C1114508   4.529   0.837  18.696
  112CHL1  H11A14509   4.548   0.946  18.729
  112CHL1  H11B14510   4.428   0.817  18.822
  112CHL1    C914511   4.636   0.753  18.921
  112CHL1    H914512   4.601   0.647  18.894
  112CHL1   C1014513   4.648   0.785  19.374
  112CHL1   C1914514   4.664   0.937  19.416
  112CHL1  H19A14515   4.567   0.982  19.338
  112CHL1  H19B14516   4.688   0.970  19.725
  112CHL1  H19C14517   4.742   0.978  19.215
  112CHL1    C114518   4.520   0.744  19.605
  112CHL1   H1A14519   4.433   0.799  19.482
  112CHL1   H1B14520   4.500   0.636  19.560
  112CHL1    C214521   4.526   0.776  20.058
  112CHL1   H2A14522   4.435   0.737  20.208
  112CHL1   H2B14523   4.527   0.886  20.100
  112CHL1   C2014524   4.636   0.869  17.292
  112CHL1   H2014525   4.690   0.967  17.280
  112CHL1   C2114526   4.486   0.901  17.340
  112CHL1  H21A14527   4.426   0.809  17.382
  112CHL1  H21B14528   4.445   0.956  17.079
  112CHL1  H21C14529   4.469   0.970  17.595
  112CHL1   C2214530   4.666   0.795  16.896
  112CHL1  H22A14531   4.775   0.801  16.830
  112CHL1  H22B14532   4.637   0.688  16.917
  112CHL1   C2314533   4.588   0.858  16.557
  112CHL1  H23A14534   4.481   0.830  16.584
  112CHL1  H23B14535   4.597   0.969  16.587
  112CHL1   C2414536   4.637   0.820  16.143
  112CHL1  H24A14537   4.747   0.834  16.122
  112CHL1  H24B14538   4.614   0.714  16.071
  112CHL1   C2514539   4.571   0.915  15.846
  112CHL1   H2514540   4.590   1.020  15.945
  112CHL1   C2614541   4.637   0.895  15.441
  112CHL1  H26A14542   4.658   0.789  15.387
  112CHL1  H26B14543   4.578   0.939  15.189
  112CHL1  H26C14544   4.736   0.944  15.456
  112CHL1   C2714545   4.420   0.900  15.831
  112CHL1  H27A14546   4.383   0.972  15.606
  112CHL1  H27B14547   4.389   0.797  15.753
  112CHL1  H27C14548   4.374   0.927  16.122
  113CHL1    C314549   0.589   5.023  20.199
  113CHL1    H314550   0.588   4.912  20.169
  113CHL1    O314551   0.593   5.056  20.613
  113CHL1   H3'14552   0.552   4.981  20.751
  113CHL1    C414553   0.711   5.082  19.980
  113CHL1   H4A14554   0.713   5.192  20.013
  113CHL1   H4B14555   0.804   5.050  20.130
  113CHL1    C514556   0.705   5.036  19.548
  113CHL1    C614557   0.788   4.945  19.392
  113CHL1    H614558   0.866   4.902  19.578
  113CHL1    C714559   0.784   4.900  18.963
  113CHL1   H7A14560   0.885   4.875  18.849
  113CHL1   H7B14561   0.721   4.809  18.933
  113CHL1    C814562   0.725   5.014  18.708
  113CHL1    H814563   0.794   5.100  18.744
  113CHL1   C1414564   0.711   4.974  18.267
  113CHL1   H1414565   0.626   4.902  18.252
  113CHL1   C1514566   0.829   4.905  18.057
  113CHL1  H15A14567   0.926   4.935  18.192
  113CHL1  H15B14568   0.816   4.795  18.075
  113CHL1   C1614569   0.822   4.954  17.616
  113CHL1  H16A14570   0.906   5.024  17.556
  113CHL1  H16B14571   0.826   4.871  17.397
  113CHL1   C1714572   0.687   5.027  17.586
  113CHL1   H1714573   0.610   4.946  17.574
  113CHL1   C1314574   0.676   5.091  17.997
  113CHL1   C1814575   0.785   5.199  18.039
  113CHL1  H18A14576   0.831   5.229  17.751
  113CHL1  H18B14577   0.738   5.287  18.174
  113CHL1  H18C14578   0.869   5.166  18.231
  113CHL1   C1214579   0.537   5.137  18.120
  113CHL1  H12A14580   0.506   5.228  17.955
  113CHL1  H12B14581   0.480   5.049  18.027
  113CHL1   C1114582   0.524   5.163  18.570
  113CHL1  H11A14583   0.571   5.261  18.582
  113CHL1  H11B14584   0.421   5.182  18.666
  113CHL1    C914585   0.588   5.059  18.861
  113CHL1    H914586   0.522   4.969  18.840
  113CHL1   C1014587   0.591   5.100  19.311
  113CHL1   C1914588   0.607   5.251  19.347
  113CHL1  H19A14589   0.546   5.312  19.143
  113CHL1  H19B14590   0.581   5.289  19.647
  113CHL1  H19C14591   0.713   5.275  19.287
  113CHL1    C114592   0.466   5.052  19.542
  113CHL1   H1A14593   0.379   5.102  19.413
  113CHL1   H1B14594   0.455   4.942  19.494
  113CHL1    C214595   0.462   5.077  20.001
  113CHL1   H2A14596   0.369   5.034  20.130
  113CHL1   H2B14597   0.460   5.185  20.067
  113CHL1   C2014598   0.666   5.113  17.214
  113CHL1   H2014599   0.725   5.207  17.232
  113CHL1   C2114600   0.517   5.147  17.172
  113CHL1  H21A14601   0.490   5.172  16.860
  113CHL1  H21B14602   0.488   5.233  17.364
  113CHL1  H21C14603   0.458   5.057  17.262
  113CHL1   C2214604   0.708   5.043  16.824
  113CHL1  H22A14605   0.679   5.112  16.578
  113CHL1  H22B14606   0.819   5.032  16.809
  113CHL1   C2314607   0.641   4.906  16.761
  113CHL1  H23A14608   0.669   4.835  16.998
  113CHL1  H23B14609   0.530   4.918  16.776
  113CHL1   C2414610   0.674   4.845  16.350
  113CHL1  H24A14611   0.784   4.832  16.320
  113CHL1  H24B14612   0.628   4.744  16.347
  113CHL1   C2514613   0.616   4.931  16.008
  113CHL1   H2514614   0.540   4.999  16.146
  113CHL1   C2614615   0.721   5.020  15.801
  113CHL1  H26A14616   0.802   4.958  15.669
  113CHL1  H26B14617   0.674   5.078  15.555
  113CHL1  H26C14618   0.768   5.091  16.011
  113CHL1   C2714619   0.541   4.845  15.699
  113CHL1  H27A14620   0.449   4.897  15.594
  113CHL1  H27B14621   0.607   4.827  15.435
  113CHL1  H27C14622   0.510   4.747  15.828
  114CHL1    C314623   5.383   7.166  20.259
  114CHL1    H314624   5.486   7.207  20.238
  114CHL1    O314625   5.344   7.154  20.667
  114CHL1   H3'14626   5.258   7.110  20.655
  114CHL1    C414627   5.286   7.262  20.043
  114CHL1   H4A14628   5.181   7.231  20.109
  114CHL1   H4B14629   5.299   7.362  20.184
  114CHL1    C514630   5.307   7.267  19.596
  114CHL1    C614631   5.321   7.383  19.404
  114CHL1    H614632   5.315   7.478  19.572
  114CHL1    C714633   5.329   7.394  18.957
  114CHL1   H7A14634   5.262   7.475  18.852
  114CHL1   H7B14635   5.432   7.420  18.864
  114CHL1    C814636   5.287   7.262  18.744
  114CHL1    H814637   5.176   7.254  18.762
  114CHL1   C1414638   5.328   7.272  18.312
  114CHL1   H1414639   5.441   7.276  18.312
  114CHL1   C1514640   5.282   7.399  18.096
  114CHL1  H15A14641   5.176   7.421  18.180
  114CHL1  H15B14642   5.345   7.486  18.168
  114CHL1   C1614643   5.292   7.361  17.655
  114CHL1  H16A14644   5.192   7.372  17.511
  114CHL1  H16B14645   5.366   7.424  17.496
  114CHL1   C1714646   5.336   7.211  17.643
  114CHL1   H1714647   5.446   7.210  17.649
  114CHL1   C1314648   5.293   7.152  18.051
  114CHL1   C1814649   5.141   7.128  18.033
  114CHL1  H18A14650   5.085   7.214  17.913
  114CHL1  H18B14651   5.122   7.040  17.841
  114CHL1  H18C14652   5.099   7.105  18.333
  114CHL1   C1214653   5.367   7.031  18.231
  114CHL1  H12A14654   5.347   6.938  18.057
  114CHL1  H12B14655   5.476   7.050  18.216
  114CHL1   C1114656   5.325   7.011  18.672
  114CHL1  H11A14657   5.216   6.989  18.672
  114CHL1  H11B14658   5.372   6.920  18.801
  114CHL1    C914659   5.351   7.139  18.933
  114CHL1    H914660   5.461   7.155  18.924
  114CHL1   C1014661   5.311   7.129  19.383
  114CHL1   C1914662   5.168   7.073  19.404
  114CHL1  H19A14663   5.097   7.135  19.230
  114CHL1  H19B14664   5.168   6.970  19.284
  114CHL1  H19C14665   5.130   7.067  19.716
  114CHL1    C114666   5.409   7.035  19.608
  114CHL1   H1A14667   5.401   6.934  19.476
  114CHL1   H1B14668   5.514   7.071  19.557
  114CHL1    C214669   5.381   7.027  20.061
  114CHL1   H2A14670   5.456   6.962  20.205
  114CHL1   H2B14671   5.282   6.980  20.106
  114CHL1   C2014672   5.295   7.147  17.244
  114CHL1   H2014673   5.184   7.146  17.226
  114CHL1   C2114674   5.351   7.003  17.232
  114CHL1  H21A14675   5.342   6.959  16.929
  114CHL1  H21B14676   5.296   6.937  17.442
  114CHL1  H21C14677   5.458   7.002  17.325
  114CHL1   C2214678   5.345   7.235  16.890
  114CHL1  H22A14679   5.309   7.340  16.926
  114CHL1  H22B14680   5.455   7.237  16.920
  114CHL1   C2314681   5.304   7.199  16.458
  114CHL1  H23A14682   5.383   7.237  16.251
  114CHL1  H23B14683   5.302   7.090  16.419
  114CHL1   C2414684   5.173   7.270  16.338
  114CHL1  H24A14685   5.094   7.244  16.557
  114CHL1  H24B14686   5.189   7.380  16.365
  114CHL1   C2514687   5.120   7.245  15.909
  114CHL1   H2514688   5.010   7.229  15.930
  114CHL1   C2614689   5.145   7.366  15.633
  114CHL1  H26A14690   5.101   7.458  15.762
  114CHL1  H26B14691   5.254   7.382  15.594
  114CHL1  H26C14692   5.099   7.349  15.336
  114CHL1   C2714693   5.179   7.122  15.708
  114CHL1  H27A14694   5.135   7.107  15.408
  114CHL1  H27B14695   5.289   7.131  15.675
  114CHL1  H27C14696   5.158   7.031  15.888
  115CHL1    C314697   1.871   0.696  20.226
  115CHL1    H314698   1.764   0.674  20.148
  115CHL1    O314699   1.882   0.708  20.649
  115CHL1   H3'14700   1.880   0.617  20.751
  115CHL1    C414701   1.959   0.579  20.079
  115CHL1   H4A14702   2.061   0.592  20.199
  115CHL1   H4B14703   1.919   0.485  20.211
  115CHL1    C514704   1.964   0.571  19.623
  115CHL1    C614705   1.930   0.460  19.425
  115CHL1    H614706   1.898   0.370  19.590
  115CHL1    C714707   1.943   0.447  18.978
  115CHL1   H7A14708   1.986   0.348  18.900
  115CHL1   H7B14709   1.842   0.454  18.837
  115CHL1    C814710   2.033   0.557  18.792
  115CHL1    H814711   2.138   0.535  18.885
  115CHL1   C1414712   2.025   0.553  18.342
  115CHL1   H1414713   1.918   0.576  18.264
  115CHL1   C1514714   2.059   0.421  18.135
  115CHL1  H15A14715   2.157   0.383  18.243
  115CHL1  H15B14716   1.984   0.343  18.198
  115CHL1   C1614717   2.067   0.460  17.691
  115CHL1  H16A14718   2.154   0.410  17.550
  115CHL1  H16B14719   1.975   0.433  17.526
  115CHL1   C1714720   2.080   0.616  17.685
  115CHL1   H1714721   1.977   0.655  17.622
  115CHL1   C1314722   2.108   0.658  18.120
  115CHL1   C1814723   2.259   0.637  18.207
  115CHL1  H18A14724   2.296   0.541  18.084
  115CHL1  H18B14725   2.318   0.718  18.069
  115CHL1  H18C14726   2.281   0.639  18.531
  115CHL1   C1214727   2.059   0.797  18.255
  115CHL1  H12A14728   2.122   0.876  18.120
  115CHL1  H12B14729   1.954   0.812  18.153
  115CHL1   C1114730   2.065   0.810  18.714
  115CHL1  H11A14731   2.173   0.812  18.789
  115CHL1  H11B14732   2.022   0.908  18.804
  115CHL1    C914733   1.993   0.695  18.948
  115CHL1    H914734   1.885   0.706  18.876
  115CHL1   C1014735   2.005   0.702  19.410
  115CHL1   C1914736   2.153   0.729  19.515
  115CHL1  H19A14737   2.170   0.730  19.845
  115CHL1  H19B14738   2.221   0.655  19.374
  115CHL1  H19C14739   2.181   0.830  19.407
  115CHL1    C114740   1.915   0.816  19.572
  115CHL1   H1A14741   1.947   0.913  19.440
  115CHL1   H1B14742   1.812   0.796  19.467
  115CHL1    C214743   1.911   0.828  20.031
  115CHL1   H2A14744   1.837   0.906  20.118
  115CHL1   H2B14745   2.010   0.860  20.145
  115CHL1   C2014746   2.173   0.665  17.355
  115CHL1   H2014747   2.278   0.634  17.421
  115CHL1   C2114748   2.168   0.818  17.319
  115CHL1  H21A14749   2.064   0.855  17.304
  115CHL1  H21B14750   2.221   0.851  17.043
  115CHL1  H21C14751   2.217   0.866  17.577
  115CHL1   C2214752   2.137   0.604  16.947
  115CHL1  H22A14753   2.204   0.650  16.719
  115CHL1  H22B14754   2.157   0.495  16.935
  115CHL1   C2314755   1.991   0.630  16.830
  115CHL1  H23A14756   1.928   0.545  16.929
  115CHL1  H23B14757   1.950   0.717  16.992
  115CHL1   C2414758   1.983   0.656  16.383
  115CHL1  H24A14759   2.039   0.750  16.323
  115CHL1  H24B14760   2.034   0.574  16.218
  115CHL1   C2514761   1.842   0.671  16.215
  115CHL1   H2514762   1.791   0.571  16.209
  115CHL1   C2614763   1.751   0.767  16.449
  115CHL1  H26A14764   1.650   0.772  16.311
  115CHL1  H26B14765   1.740   0.733  16.764
  115CHL1  H26C14766   1.795   0.869  16.449
  115CHL1   C2714767   1.863   0.718  15.786
  115CHL1  H27A14768   1.932   0.806  15.777
  115CHL1  H27B14769   1.904   0.637  15.591
  115CHL1  H27C14770   1.767   0.749  15.666
  116CHL1    C314771   2.588   0.318  20.187
  116CHL1    H314772   2.515   0.240  20.091
  116CHL1    O314773   2.594   0.315  20.616
  116CHL1   H3'14774   2.621   0.225  20.676
  116CHL1    C414775   2.726   0.284  20.013
  116CHL1   H4A14776   2.801   0.351  20.154
  116CHL1   H4B14777   2.752   0.182  20.115
  116CHL1    C514778   2.734   0.298  19.560
  116CHL1    C614779   2.781   0.202  19.323
  116CHL1    H614780   2.809   0.108  19.452
  116CHL1    C714781   2.811   0.217  18.888
  116CHL1   H7A14782   2.911   0.176  18.813
  116CHL1   H7B14783   2.737   0.158  18.723
  116CHL1    C814784   2.795   0.361  18.729
  116CHL1    H814785   2.885   0.421  18.795
  116CHL1   C1414786   2.782   0.352  18.282
  116CHL1   H1414787   2.700   0.279  18.222
  116CHL1   C1514788   2.904   0.299  18.063
  116CHL1  H15A14789   2.993   0.362  18.135
  116CHL1  H15B14790   2.929   0.194  18.138
  116CHL1   C1614791   2.859   0.318  17.631
  116CHL1  H16A14792   2.948   0.347  17.454
  116CHL1  H16B14793   2.816   0.222  17.520
  116CHL1   C1714794   2.742   0.422  17.628
  116CHL1   H1714795   2.650   0.359  17.604
  116CHL1   C1314796   2.740   0.479  18.057
  116CHL1   C1814797   2.848   0.589  18.090
  116CHL1  H18A14798   2.875   0.608  18.408
  116CHL1  H18B14799   2.940   0.563  17.922
  116CHL1  H18C14800   2.809   0.684  17.961
  116CHL1   C1214801   2.606   0.525  18.237
  116CHL1  H12A14802   2.572   0.617  18.090
  116CHL1  H12B14803   2.530   0.446  18.183
  116CHL1   C1114804   2.619   0.547  18.696
  116CHL1  H11A14805   2.688   0.632  18.756
  116CHL1  H11B14806   2.519   0.577  18.813
  116CHL1    C914807   2.670   0.420  18.918
  116CHL1    H914808   2.588   0.346  18.864
  116CHL1   C1014809   2.687   0.430  19.380
  116CHL1   C1914810   2.805   0.523  19.479
  116CHL1  H19A14811   2.823   0.527  19.806
  116CHL1  H19B14812   2.901   0.488  19.350
  116CHL1  H19C14813   2.788   0.626  19.365
  116CHL1    C114814   2.550   0.467  19.575
  116CHL1   H1A14815   2.522   0.569  19.482
  116CHL1   H1B14816   2.473   0.398  19.446
  116CHL1    C214817   2.541   0.455  20.037
  116CHL1   H2A14818   2.436   0.471  20.139
  116CHL1   H2B14819   2.603   0.534  20.175
  116CHL1   C2014820   2.740   0.515  17.259
  116CHL1   H2014821   2.813   0.598  17.298
  116CHL1   C2114822   2.598   0.573  17.217
  116CHL1  H21A14823   2.586   0.626  16.926
  116CHL1  H21B14824   2.579   0.646  17.460
  116CHL1  H21C14825   2.521   0.493  17.235
  116CHL1   C2214826   2.780   0.437  16.872
  116CHL1  H22A14827   2.885   0.403  16.914
  116CHL1  H22B14828   2.715   0.348  16.845
  116CHL1   C2314829   2.788   0.509  16.464
  116CHL1  H23A14830   2.686   0.535  16.353
  116CHL1  H23B14831   2.846   0.603  16.506
  116CHL1   C2414832   2.857   0.418  16.152
  116CHL1  H24A14833   2.952   0.381  16.284
  116CHL1  H24B14834   2.791   0.331  16.095
  116CHL1   C2514835   2.896   0.483  15.753
  116CHL1   H2514836   2.807   0.537  15.633
  116CHL1   C2614837   3.010   0.581  15.825
  116CHL1  H26A14838   3.035   0.622  15.525
  116CHL1  H26B14839   2.982   0.664  16.029
  116CHL1  H26C14840   3.100   0.530  15.945
  116CHL1   C2714841   2.944   0.381  15.438
  116CHL1  H27A14842   2.893   0.284  15.480
  116CHL1  H27B14843   2.922   0.418  15.129
  116CHL1  H27C14844   3.053   0.364  15.462
  117CHL1    C314845   5.428   0.326  20.184
  117CHL1    H314846   5.537   0.306  20.148
  117CHL1    O314847   5.392   0.331  20.598
  117CHL1   H3'14848   5.428   0.414  20.709
  117CHL1    C414849   5.392   0.458  19.965
  117CHL1   H4A14850   5.288   0.486  20.049
  117CHL1   H4B14851   5.458   0.538  20.085
  117CHL1    C514852   5.404   0.447  19.515
  117CHL1    C614853   5.479   0.531  19.293
  117CHL1    H614854   5.535   0.613  19.437
  117CHL1    C714855   5.485   0.525  18.840
  117CHL1   H7A14856   5.480   0.627  18.708
  117CHL1   H7B14857   5.581   0.480  18.744
  117CHL1    C814858   5.370   0.440  18.660
  117CHL1    H814859   5.274   0.495  18.696
  117CHL1   C1414860   5.394   0.415  18.219
  117CHL1   H1414861   5.493   0.361  18.201
  117CHL1   C1514862   5.410   0.539  17.949
  117CHL1  H15A14863   5.335   0.616  18.033
  117CHL1  H15B14864   5.512   0.582  17.970
  117CHL1   C1614865   5.380   0.485  17.526
  117CHL1  H16A14866   5.290   0.537  17.403
  117CHL1  H16B14867   5.465   0.500  17.319
  117CHL1   C1714868   5.347   0.333  17.580
  117CHL1   H1714869   5.445   0.280  17.577
  117CHL1   C1314870   5.294   0.322  18.012
  117CHL1   C1814871   5.150   0.381  18.036
  117CHL1  H18A14872   5.145   0.483  17.904
  117CHL1  H18B14873   5.079   0.315  17.871
  117CHL1  H18C14874   5.116   0.388  18.351
  117CHL1   C1214875   5.301   0.185  18.219
  117CHL1  H12A14876   5.226   0.115  18.096
  117CHL1  H12B14877   5.402   0.142  18.171
  117CHL1   C1114878   5.275   0.197  18.672
  117CHL1  H11A14879   5.167   0.219  18.711
  117CHL1  H11B14880   5.294   0.098  18.813
  117CHL1    C914881   5.361   0.307  18.885
  117CHL1    H914882   5.465   0.266  18.876
  117CHL1   C1014883   5.327   0.329  19.332
  117CHL1   C1914884   5.177   0.366  19.377
  117CHL1  H19A14885   5.151   0.459  19.215
  117CHL1  H19B14886   5.112   0.284  19.260
  117CHL1  H19C14887   5.148   0.379  19.695
  117CHL1    C114888   5.358   0.197  19.560
  117CHL1   H1A14889   5.286   0.120  19.458
  117CHL1   H1B14890   5.460   0.163  19.482
  117CHL1    C214891   5.347   0.210  20.016
  117CHL1   H2A14892   5.376   0.115  20.166
  117CHL1   H2B14893   5.241   0.231  20.094
  117CHL1   C2014894   5.265   0.277  17.229
  117CHL1   H2014895   5.164   0.324  17.238
  117CHL1   C2114896   5.248   0.124  17.265
  117CHL1  H21A14897   5.345   0.075  17.319
  117CHL1  H21B14898   5.204   0.082  16.986
  117CHL1  H21C14899   5.177   0.098  17.511
  117CHL1   C2214900   5.331   0.314  16.821
  117CHL1  H22A14901   5.341   0.424  16.800
  117CHL1  H22B14902   5.433   0.271  16.809
  117CHL1   C2314903   5.251   0.273  16.449
  117CHL1  H23A14904   5.302   0.321  16.188
  117CHL1  H23B14905   5.255   0.163  16.401
  117CHL1   C2414906   5.106   0.320  16.482
  117CHL1  H24A14907   5.052   0.257  16.704
  117CHL1  H24B14908   5.107   0.424  16.599
  117CHL1   C2514909   5.025   0.320  16.092
  117CHL1   H2514910   5.015   0.215  15.981
  117CHL1   C2614911   4.884   0.374  16.182
  117CHL1  H26A14912   4.889   0.469  16.353
  117CHL1  H26B14913   4.827   0.393  15.903
  117CHL1  H26C14914   4.827   0.300  16.365
  117CHL1   C2714915   5.094   0.403  15.762
  117CHL1  H27A14916   5.176   0.343  15.627
  117CHL1  H27B14917   5.022   0.431  15.522
  117CHL1  H27C14918   5.138   0.495  15.894
  118CHL1    C314919   7.435   1.595  20.247
  118CHL1    H314920   7.479   1.694  20.175
  118CHL1    O314921   7.398   1.591  20.661
  118CHL1   H3'14922   7.338   1.665  20.706
  118CHL1    C414923   7.310   1.569  19.986
  118CHL1   H4A14924   7.260   1.480  20.109
  118CHL1   H4B14925   7.240   1.655  20.031
  118CHL1    C514926   7.340   1.545  19.548
  118CHL1    C614927   7.270   1.608  19.263
  118CHL1    H614928   7.184   1.669  19.356
  118CHL1    C714929   7.298   1.596  18.825
  118CHL1   H7A14930   7.205   1.602  18.639
  118CHL1   H7B14931   7.362   1.683  18.741
  118CHL1    C814932   7.377   1.471  18.714
  118CHL1    H814933   7.310   1.382  18.741
  118CHL1   C1414934   7.429   1.486  18.291
  118CHL1   H1414935   7.497   1.573  18.306
  118CHL1   C1514936   7.330   1.524  17.952
  118CHL1  H15A14937   7.233   1.471  17.976
  118CHL1  H15B14938   7.310   1.633  17.949
  118CHL1   C1614939   7.406   1.482  17.574
  118CHL1  H16A14940   7.346   1.405  17.415
  118CHL1  H16B14941   7.421   1.565  17.361
  118CHL1   C1714942   7.542   1.420  17.715
  118CHL1   H1714943   7.614   1.503  17.751
  118CHL1   C1314944   7.514   1.370  18.138
  118CHL1   C1814945   7.425   1.246  18.102
  118CHL1  H18A14946   7.342   1.265  17.889
  118CHL1  H18B14947   7.483   1.160  17.985
  118CHL1  H18C14948   7.382   1.216  18.393
  118CHL1   C1214949   7.634   1.346  18.414
  118CHL1  H12A14950   7.680   1.249  18.333
  118CHL1  H12B14951   7.711   1.424  18.369
  118CHL1   C1114952   7.590   1.339  18.855
  118CHL1  H11A14953   7.529   1.247  18.876
  118CHL1  H11B14954   7.679   1.329  19.050
  118CHL1    C914955   7.498   1.456  18.996
  118CHL1    H914956   7.558   1.549  18.960
  118CHL1   C1014957   7.456   1.450  19.443
  118CHL1   C1914958   7.397   1.310  19.524
  118CHL1  H19A14959   7.470   1.229  19.467
  118CHL1  H19B14960   7.369   1.302  19.842
  118CHL1  H19C14961   7.305   1.292  19.341
  118CHL1    C114962   7.577   1.475  19.725
  118CHL1   H1A14963   7.649   1.391  19.698
  118CHL1   H1B14964   7.630   1.568  19.635
  118CHL1    C214965   7.540   1.487  20.175
  118CHL1   H2A14966   7.630   1.508  20.355
  118CHL1   H2B14967   7.500   1.389  20.280
  118CHL1   C2014968   7.599   1.325  17.397
  118CHL1   H2014969   7.527   1.244  17.361
  118CHL1   C2114970   7.727   1.248  17.502
  118CHL1  H21A14971   7.759   1.185  17.244
  118CHL1  H21B14972   7.710   1.178  17.754
  118CHL1  H21C14973   7.810   1.313  17.580
  118CHL1   C2214974   7.608   1.408  17.010
  118CHL1  H22A14975   7.506   1.440  16.914
  118CHL1  H22B14976   7.667   1.499  17.076
  118CHL1   C2314977   7.668   1.349  16.638
  118CHL1  H23A14978   7.774   1.320  16.683
  118CHL1  H23B14979   7.610   1.258  16.554
  118CHL1   C2414980   7.657   1.458  16.314
  118CHL1  H24A14981   7.550   1.475  16.239
  118CHL1  H24B14982   7.698   1.554  16.425
  118CHL1   C2514983   7.733   1.420  15.939
  118CHL1   H2514984   7.840   1.408  16.029
  118CHL1   C2614985   7.674   1.289  15.795
  118CHL1  H26A14986   7.717   1.257  15.504
  118CHL1  H26B14987   7.692   1.204  16.005
  118CHL1  H26C14988   7.567   1.306  15.747
  118CHL1   C2714989   7.726   1.525  15.603
  118CHL1  H27A14990   7.772   1.484  15.324
  118CHL1  H27B14991   7.621   1.553  15.540
  118CHL1  H27C14992   7.782   1.616  15.690
  119CHL1    C314993   1.202   0.262  20.232
  119CHL1    H314994   1.136   0.172  20.208
  119CHL1    O314995   1.244   0.276  20.637
  119CHL1   H3'14996   1.162   0.275  20.799
  119CHL1    C414997   1.327   0.238  19.971
  119CHL1   H4A14998   1.411   0.300  20.079
  119CHL1   H4B14999   1.360   0.133  20.025
  119CHL1    C515000   1.301   0.265  19.530
  119CHL1    C615001   1.325   0.174  19.248
  119CHL1    H615002   1.367   0.078  19.338
  119CHL1    C715003   1.306   0.200  18.807
  119CHL1   H7A15004   1.388   0.153  18.636
  119CHL1   H7B15005   1.211   0.155  18.705
  119CHL1    C815006   1.309   0.349  18.699
  119CHL1    H815007   1.412   0.386  18.750
  119CHL1   C1415008   1.269   0.370  18.261
  119CHL1   H1415009   1.163   0.335  18.237
  119CHL1   C1515010   1.346   0.296  17.922
  119CHL1  H15A15011   1.454   0.295  17.994
  119CHL1  H15B15012   1.309   0.191  17.904
  119CHL1   C1615013   1.318   0.379  17.535
  119CHL1  H16A15014   1.413   0.409  17.394
  119CHL1  H16B15015   1.260   0.317  17.319
  119CHL1   C1715016   1.233   0.501  17.685
  119CHL1   H1715017   1.131   0.457  17.670
  119CHL1   C1315018   1.271   0.515  18.129
  119CHL1   C1815019   1.416   0.571  18.147
  119CHL1  H18A15020   1.460   0.559  18.447
  119CHL1  H18B15021   1.484   0.521  17.931
  119CHL1  H18C15022   1.416   0.679  18.078
  119CHL1   C1215023   1.175   0.594  18.402
  119CHL1  H12A15024   1.180   0.701  18.321
  119CHL1  H12B15025   1.071   0.558  18.351
  119CHL1   C1115026   1.210   0.576  18.846
  119CHL1  H11A15027   1.310   0.622  18.891
  119CHL1  H11B15028   1.138   0.632  19.032
  119CHL1    C915029   1.214   0.427  18.975
  119CHL1    H915030   1.112   0.386  18.915
  119CHL1   C1015031   1.240   0.401  19.431
  119CHL1   C1915032   1.337   0.509  19.587
  119CHL1  H19A15033   1.429   0.512  19.401
  119CHL1  H19B15034   1.286   0.608  19.575
  119CHL1  H19C15035   1.366   0.495  19.902
  119CHL1    C115036   1.106   0.405  19.662
  119CHL1   H1A15037   1.056   0.503  19.605
  119CHL1   H1B15038   1.040   0.325  19.548
  119CHL1    C215039   1.122   0.387  20.121
  119CHL1   H2A15040   1.022   0.382  20.262
  119CHL1   H2B15041   1.172   0.478  20.241
  119CHL1   C2015042   1.225   0.638  17.469
  119CHL1   H2015043   1.301   0.708  17.592
  119CHL1   C2115044   1.083   0.688  17.580
  119CHL1  H21A15045   1.088   0.783  17.748
  119CHL1  H21B15046   1.021   0.616  17.748
  119CHL1  H21C15047   1.023   0.701  17.307
  119CHL1   C2215048   1.242   0.648  17.010
  119CHL1  H22A15049   1.338   0.604  16.908
  119CHL1  H22B15050   1.161   0.584  16.887
  119CHL1   C2315051   1.231   0.790  16.809
  119CHL1  H23A15052   1.252   0.873  17.016
  119CHL1  H23B15053   1.311   0.795  16.578
  119CHL1   C2415054   1.093   0.805  16.602
  119CHL1  H24A15055   1.084   0.704  16.494
  119CHL1  H24B15056   1.019   0.816  16.836
  119CHL1   C2515057   1.057   0.882  16.209
  119CHL1   H2515058   1.000   0.973  16.284
  119CHL1   C2615059   1.179   0.932  16.011
  119CHL1  H26A15060   1.224   0.860  15.798
  119CHL1  H26B15061   1.127   1.008  15.834
  119CHL1  H26C15062   1.253   0.972  16.227
  119CHL1   C2715063   0.974   0.822  15.852
  119CHL1  H27A15064   1.037   0.759  15.657
  119CHL1  H27B15065   0.882   0.766  15.930
  119CHL1  H27C15066   0.944   0.906  15.654
  120CHL1    C315067   7.351   7.565  20.160
  120CHL1    H315068   7.245   7.531  20.175
  120CHL1    O315069   7.395   7.598  20.556
  120CHL1   H3'15070   7.342   7.671  20.649
  120CHL1    C415071   7.437   7.450  20.001
  120CHL1   H4A15072   7.541   7.484  20.040
  120CHL1   H4B15073   7.426   7.361  20.196
  120CHL1    C515074   7.423   7.418  19.560
  120CHL1    C615075   7.402   7.292  19.431
  120CHL1    H615076   7.397   7.209  19.647
  120CHL1    C715077   7.410   7.254  18.996
  120CHL1   H7A15078   7.476   7.165  18.957
  120CHL1   H7B15079   7.310   7.225  18.882
  120CHL1    C815080   7.469   7.368  18.729
  120CHL1    H815081   7.578   7.372  18.771
  120CHL1   C1415082   7.444   7.337  18.291
  120CHL1   H1415083   7.333   7.333  18.261
  120CHL1   C1515084   7.488   7.200  18.132
  120CHL1  H15A15085   7.594   7.181  18.213
  120CHL1  H15B15086   7.424   7.119  18.261
  120CHL1   C1615087   7.470   7.216  17.679
  120CHL1  H16A15088   7.562   7.183  17.517
  120CHL1  H16B15089   7.384   7.156  17.568
  120CHL1   C1715090   7.444   7.368  17.607
  120CHL1   H1715091   7.334   7.382  17.640
  120CHL1   C1315092   7.496   7.439  17.988
  120CHL1   C1815093   7.650   7.442  17.979
  120CHL1  H18A15094   7.691   7.470  18.276
  120CHL1  H18B15095   7.692   7.344  17.892
  120CHL1  H18C15096   7.685   7.517  17.757
  120CHL1   C1215097   7.437   7.577  18.087
  120CHL1  H12A15098   7.487   7.655  17.904
  120CHL1  H12B15099   7.331   7.578  18.003
  120CHL1   C1115100   7.455   7.614  18.531
  120CHL1  H11A15101   7.563   7.633  18.564
  120CHL1  H11B15102   7.401   7.709  18.594
  120CHL1    C915103   7.410   7.505  18.837
  120CHL1    H915104   7.299   7.496  18.813
  120CHL1   C1015105   7.438   7.540  19.284
  120CHL1   C1915106   7.583   7.594  19.305
  120CHL1  H19A15107   7.590   7.694  19.167
  120CHL1  H19B15108   7.618   7.606  19.617
  120CHL1  H19C15109   7.654   7.526  19.155
  120CHL1    C115110   7.339   7.650  19.437
  120CHL1   H1A15111   7.352   7.741  19.251
  120CHL1   H1B15112   7.234   7.615  19.395
  120CHL1    C215113   7.360   7.688  19.884
  120CHL1   H2A15114   7.286   7.765  19.977
  120CHL1   H2B15115   7.462   7.733  19.914
  120CHL1   C2015116   7.474   7.415  17.178
  120CHL1   H2015117   7.577   7.385  17.094
  120CHL1   C2115118   7.461   7.567  17.136
  120CHL1  H21A15119   7.469   7.597  16.815
  120CHL1  H21B15120   7.540   7.619  17.307
  120CHL1  H21C15121   7.361   7.600  17.247
  120CHL1   C2215122   7.376   7.348  16.884
  120CHL1  H22A15123   7.310   7.282  17.064
  120CHL1  H22B15124   7.313   7.423  16.728
  120CHL1   C2315125   7.429   7.244  16.593
  120CHL1  H23A15126   7.502   7.180  16.755
  120CHL1  H23B15127   7.339   7.183  16.512
  120CHL1   C2415128   7.484   7.294  16.194
  120CHL1  H24A15129   7.401   7.344  16.029
  120CHL1  H24B15130   7.561   7.371  16.248
  120CHL1   C2515131   7.534   7.177  15.930
  120CHL1   H2515132   7.443   7.115  15.870
  120CHL1   C2615133   7.582   7.223  15.519
  120CHL1  H26A15134   7.679   7.277  15.534
  120CHL1  H26B15135   7.594   7.137  15.315
  120CHL1  H26C15136   7.507   7.292  15.387
  120CHL1   C2715137   7.638   7.085  16.131
  120CHL1  H27A15138   7.728   7.141  16.233
  120CHL1  H27B15139   7.596   7.035  16.401
  120CHL1  H27C15140   7.670   7.006  15.921
  121CHL1    C315141   4.314   3.843   9.738
  121CHL1    H315142   4.286   3.950   9.753
  121CHL1    O315143   4.316   3.798   9.333
  121CHL1   H3'15144   4.365   3.866   9.180
  121CHL1    C415145   4.453   3.821   9.921
  121CHL1   H4A15146   4.488   3.720   9.840
  121CHL1   H4B15147   4.523   3.893   9.774
  121CHL1    C515148   4.457   3.832  10.374
  121CHL1    C615149   4.545   3.914  10.551
  121CHL1    H615150   4.616   3.971  10.368
  121CHL1    C715151   4.560   3.924  10.995
  121CHL1   H7A15152   4.668   3.925  11.076
  121CHL1   H7B15153   4.513   4.018  11.103
  121CHL1    C815154   4.494   3.804  11.214
  121CHL1    H815155   4.560   3.717  11.157
  121CHL1   C1415156   4.485   3.833  11.655
  121CHL1   H1415157   4.403   3.909  11.697
  121CHL1   C1515158   4.607   3.895  11.841
  121CHL1  H15A15159   4.700   3.841  11.760
  121CHL1  H15B15160   4.612   3.998  11.733
  121CHL1   C1615161   4.578   3.887  12.291
  121CHL1  H16A15162   4.672   3.856  12.438
  121CHL1  H16B15163   4.543   3.984  12.414
  121CHL1   C1715164   4.465   3.783  12.339
  121CHL1   H1715165   4.370   3.838  12.399
  121CHL1   C1315166   4.452   3.717  11.925
  121CHL1   C1815167   4.569   3.615  11.910
  121CHL1  H18A15168   4.536   3.519  12.042
  121CHL1  H18B15169   4.608   3.599  11.607
  121CHL1  H18C15170   4.658   3.649  12.081
  121CHL1   C1215171   4.313   3.668  11.796
  121CHL1  H12A15172   4.290   3.570  11.934
  121CHL1  H12B15173   4.238   3.741  11.904
  121CHL1   C1115174   4.296   3.655  11.334
  121CHL1  H11A15175   4.350   3.561  11.265
  121CHL1  H11B15176   4.189   3.640  11.262
  121CHL1    C915177   4.355   3.770  11.070
  121CHL1    H915178   4.292   3.860  11.127
  121CHL1   C1015179   4.354   3.747  10.605
  121CHL1   C1915180   4.393   3.599  10.536
  121CHL1  H19A15181   4.490   3.577  10.686
  121CHL1  H19B15182   4.316   3.532  10.668
  121CHL1  H19C15183   4.401   3.571  10.218
  121CHL1    C115184   4.214   3.778  10.425
  121CHL1   H1A15185   4.138   3.713  10.566
  121CHL1   H1B15186   4.187   3.883  10.497
  121CHL1    C215187   4.210   3.759   9.963
  121CHL1   H2A15188   4.108   3.779   9.843
  121CHL1   H2B15189   4.236   3.654   9.891
  121CHL1   C2015190   4.496   3.694  12.696
  121CHL1   H2015191   4.589   3.635  12.651
  121CHL1   C2115192   4.381   3.595  12.753
  121CHL1  H21A15193   4.367   3.531  12.486
  121CHL1  H21B15194   4.289   3.654  12.813
  121CHL1  H21C15195   4.400   3.526  13.008
  121CHL1   C2215196   4.520   3.777  13.071
  121CHL1  H22A15197   4.618   3.830  13.047
  121CHL1  H22B15198   4.441   3.855  13.110
  121CHL1   C2315199   4.525   3.688  13.440
  121CHL1  H23A15200   4.421   3.661  13.521
  121CHL1  H23B15201   4.582   3.595  13.377
  121CHL1   C2415202   4.592   3.763  13.776
  121CHL1  H24A15203   4.698   3.784  13.704
  121CHL1  H24B15204   4.541   3.862  13.785
  121CHL1   C2515205   4.580   3.695  14.184
  121CHL1   H2515206   4.622   3.772  14.385
  121CHL1   C2615207   4.435   3.661  14.301
  121CHL1  H26A15208   4.369   3.749  14.253
  121CHL1  H26B15209   4.395   3.577  14.121
  121CHL1  H26C15210   4.430   3.632  14.622
  121CHL1   C2715211   4.672   3.575  14.256
  121CHL1  H27A15212   4.645   3.490  14.061
  121CHL1  H27B15213   4.777   3.607  14.202
  121CHL1  H27C15214   4.664   3.544  14.574
  122CHL1    C315215   2.659   3.801   9.819
  122CHL1    H315216   2.745   3.739   9.930
  122CHL1    O315217   2.649   3.781   9.402
  122CHL1   H3'15218   2.571   3.829   9.312
  122CHL1    C415219   2.529   3.756  10.014
  122CHL1   H4A15220   2.445   3.818   9.903
  122CHL1   H4B15221   2.509   3.651   9.918
  122CHL1    C515222   2.541   3.770  10.464
  122CHL1    C615223   2.526   3.663  10.698
  122CHL1    H615224   2.502   3.564  10.566
  122CHL1    C715225   2.535   3.672  11.142
  122CHL1   H7A15226   2.461   3.606  11.292
  122CHL1   H7B15227   2.633   3.636  11.235
  122CHL1    C815228   2.534   3.814  11.316
  122CHL1    H815229   2.430   3.853  11.304
  122CHL1   C1415230   2.581   3.804  11.745
  122CHL1   H1415231   2.684   3.760  11.739
  122CHL1   C1515232   2.497   3.713  12.015
  122CHL1  H15A15233   2.391   3.741  11.964
  122CHL1  H15B15234   2.511   3.605  11.958
  122CHL1   C1615235   2.540   3.753  12.438
  122CHL1  H16A15236   2.449   3.775  12.615
  122CHL1  H16B15237   2.598   3.673  12.588
  122CHL1   C1715238   2.627   3.882  12.387
  122CHL1   H1715239   2.733   3.848  12.375
  122CHL1   C1315240   2.595   3.937  11.964
  122CHL1   C1815241   2.460   4.011  11.979
  122CHL1  H18A15242   2.387   3.957  12.171
  122CHL1  H18B15243   2.474   4.113  12.108
  122CHL1  H18C15244   2.415   4.022  11.679
  122CHL1   C1215245   2.701   4.018  11.730
  122CHL1  H12A15246   2.717   4.117  11.868
  122CHL1  H12B15247   2.797   3.962  11.739
  122CHL1   C1115248   2.660   4.037  11.286
  122CHL1  H11A15249   2.571   4.103  11.277
  122CHL1  H11B15250   2.742   4.089  11.124
  122CHL1    C915251   2.628   3.902  11.073
  122CHL1    H915252   2.726   3.847  11.073
  122CHL1   C1015253   2.585   3.909  10.623
  122CHL1   C1915254   2.461   4.002  10.593
  122CHL1  H19A15255   2.380   3.965  10.791
  122CHL1  H19B15256   2.486   4.105  10.683
  122CHL1  H19C15257   2.422   4.005  10.284
  122CHL1    C115258   2.703   3.965  10.368
  122CHL1   H1A15259   2.721   4.072  10.443
  122CHL1   H1B15260   2.795   3.908  10.452
  122CHL1    C215261   2.685   3.949   9.912
  122CHL1   H2A15262   2.777   3.984   9.756
  122CHL1   H2B15263   2.599   4.010   9.807
  122CHL1   C2015264   2.613   3.970  12.759
  122CHL1   H2015265   2.508   4.009  12.780
  122CHL1   C2115266   2.706   4.093  12.726
  122CHL1  H21A15267   2.676   4.156  12.468
  122CHL1  H21B15268   2.811   4.061  12.687
  122CHL1  H21C15269   2.698   4.156  12.996
  122CHL1   C2215270   2.638   3.883  13.140
  122CHL1  H22A15271   2.547   3.822  13.200
  122CHL1  H22B15272   2.722   3.813  13.080
  122CHL1   C2315273   2.673   3.959  13.527
  122CHL1  H23A15274   2.768   4.014  13.473
  122CHL1  H23B15275   2.592   4.032  13.590
  122CHL1   C2415276   2.693   3.867  13.890
  122CHL1  H24A15277   2.606   3.798  13.920
  122CHL1  H24B15278   2.784   3.804  13.842
  122CHL1   C2515279   2.710   3.943  14.292
  122CHL1   H2515280   2.614   3.993  14.355
  122CHL1   C2615281   2.738   3.850  14.646
  122CHL1  H26A15282   2.653   3.782  14.706
  122CHL1  H26B15283   2.828   3.788  14.586
  122CHL1  H26C15284   2.757   3.910  14.922
  122CHL1   C2715285   2.818   4.053  14.265
  122CHL1  H27A15286   2.814   4.117  14.535
  122CHL1  H27B15287   2.919   4.007  14.238
  122CHL1  H27C15288   2.803   4.119  14.004
  123CHL1    C315289   5.194   3.860   9.789
  123CHL1    H315290   5.192   3.749   9.789
  123CHL1    O315291   5.129   3.907   9.435
  123CHL1   H3'15292   5.098   3.995   9.504
  123CHL1    C415293   5.117   3.914  10.155
  123CHL1   H4A15294   5.063   4.007  10.074
  123CHL1   H4B15295   5.036   3.839  10.203
  123CHL1    C515296   5.195   3.938  10.542
  123CHL1    C615297   5.134   3.912  10.890
  123CHL1    H615298   5.028   3.883  10.893
  123CHL1    C715299   5.199   3.928  11.292
  123CHL1   H7A15300   5.135   3.989  11.496
  123CHL1   H7B15301   5.210   3.828  11.433
  123CHL1    C815302   5.339   3.994  11.277
  123CHL1    H815303   5.326   4.104  11.259
  123CHL1   C1415304   5.414   3.958  11.655
  123CHL1   H1415305   5.422   3.846  11.652
  123CHL1   C1515306   5.348   3.993  12.060
  123CHL1  H15A15307   5.313   4.098  12.051
  123CHL1  H15B15308   5.261   3.927  12.126
  123CHL1   C1615309   5.463   3.975  12.360
  123CHL1  H16A15310   5.473   4.068  12.540
  123CHL1  H16B15311   5.447   3.889  12.564
  123CHL1   C1715312   5.592   3.952  12.102
  123CHL1   H1715313   5.605   3.842  12.063
  123CHL1   C1315314   5.557   4.009  11.685
  123CHL1   C1815315   5.558   4.164  11.694
  123CHL1  H18A15316   5.498   4.207  11.448
  123CHL1  H18B15317   5.518   4.205  11.979
  123CHL1  H18C15318   5.661   4.202  11.655
  123CHL1   C1215319   5.635   3.955  11.319
  123CHL1  H12A15320   5.739   3.992  11.313
  123CHL1  H12B15321   5.638   3.844  11.337
  123CHL1   C1115322   5.567   3.996  10.926
  123CHL1  H11A15323   5.573   4.107  10.902
  123CHL1  H11B15324   5.626   3.953  10.677
  123CHL1    C915325   5.419   3.947  10.911
  123CHL1    H915326   5.426   3.835  10.941
  123CHL1   C1015327   5.346   3.974  10.512
  123CHL1   C1915328   5.376   4.122  10.404
  123CHL1  H19A15329   5.483   4.135  10.323
  123CHL1  H19B15330   5.320   4.152  10.134
  123CHL1  H19C15331   5.351   4.191  10.650
  123CHL1    C115332   5.407   3.886  10.179
  123CHL1   H1A15333   5.513   3.916  10.155
  123CHL1   H1B15334   5.402   3.780  10.272
  123CHL1    C215335   5.339   3.906   9.771
  123CHL1   H2A15336   5.389   3.848   9.534
  123CHL1   H2B15337   5.346   4.012   9.678
  123CHL1   C2015338   5.718   4.006  12.303
  123CHL1   H2015339   5.695   4.114  12.318
  123CHL1   C2115340   5.839   4.000  12.024
  123CHL1  H21A15341   5.935   4.016  12.183
  123CHL1  H21B15342   5.830   4.081  11.805
  123CHL1  H21C15343   5.840   3.904  11.865
  123CHL1   C2215344   5.747   3.954  12.738
  123CHL1  H22A15345   5.669   4.003  12.915
  123CHL1  H22B15346   5.720   3.848  12.759
  123CHL1   C2315347   5.891   3.975  12.918
  123CHL1  H23A15348   5.965   3.914  12.756
  123CHL1  H23B15349   5.924   4.077  12.870
  123CHL1   C2415350   5.913   3.944  13.368
  123CHL1  H24A15351   5.861   4.015  13.563
  123CHL1  H24B15352   5.869   3.847  13.422
  123CHL1   C2515353   6.056   3.935  13.542
  123CHL1   H2515354   6.117   3.870  13.344
  123CHL1   C2615355   6.121   4.073  13.581
  123CHL1  H26A15356   6.059   4.138  13.779
  123CHL1  H26B15357   6.222   4.065  13.722
  123CHL1  H26C15358   6.131   4.122  13.284
  123CHL1   C2715359   6.047   3.870  13.959
  123CHL1  H27A15360   5.982   3.930  14.160
  123CHL1  H27B15361   6.003   3.768  13.938
  123CHL1  H27C15362   6.147   3.861  14.100
  124CHL1    C315363   3.569   5.261   9.783
  124CHL1    H315364   3.512   5.344   9.924
  124CHL1    O315365   3.551   5.264   9.360
  124CHL1   H3'15366   3.455   5.256   9.309
  124CHL1    C415367   3.719   5.276   9.894
  124CHL1   H4A15368   3.773   5.190   9.759
  124CHL1   H4B15369   3.760   5.367   9.750
  124CHL1    C515370   3.737   5.276  10.347
  124CHL1    C615371   3.795   5.375  10.560
  124CHL1    H615372   3.837   5.462  10.401
  124CHL1    C715373   3.811   5.370  11.010
  124CHL1   H7A15374   3.910   5.409  11.106
  124CHL1   H7B15375   3.731   5.432  11.136
  124CHL1    C815376   3.782   5.236  11.226
  124CHL1    H815377   3.873   5.175  11.187
  124CHL1   C1415378   3.739   5.250  11.673
  124CHL1   H1415379   3.636   5.295  11.664
  124CHL1   C1515380   3.813   5.344  11.955
  124CHL1  H15A15381   3.921   5.326  11.919
  124CHL1  H15B15382   3.792   5.450  11.901
  124CHL1   C1615383   3.777   5.299  12.381
  124CHL1  H16A15384   3.869   5.303  12.555
  124CHL1  H16B15385   3.704   5.367  12.525
  124CHL1   C1715386   3.719   5.155  12.360
  124CHL1   H1715387   3.610   5.169  12.411
  124CHL1   C1315388   3.728   5.117  11.901
  124CHL1   C1815389   3.857   5.036  11.832
  124CHL1  H18A15390   3.871   5.007  11.517
  124CHL1  H18B15391   3.945   5.095  11.931
  124CHL1  H18C15392   3.854   4.941  12.000
  124CHL1   C1215393   3.604   5.050  11.709
  124CHL1  H12A15394   3.591   4.948  11.832
  124CHL1  H12B15395   3.513   5.109  11.781
  124CHL1   C1115396   3.616   5.043  11.247
  124CHL1  H11A15397   3.687   4.962  11.184
  124CHL1  H11B15398   3.516   5.015  11.127
  124CHL1    C915399   3.664   5.170  11.016
  124CHL1    H915400   3.580   5.244  11.049
  124CHL1   C1015401   3.682   5.151  10.557
  124CHL1   C1915402   3.793   5.047  10.464
  124CHL1  H19A15403   3.795   4.966  10.686
  124CHL1  H19B15404   3.777   5.002  10.164
  124CHL1  H19C15405   3.895   5.091  10.470
  124CHL1    C115406   3.542   5.108  10.386
  124CHL1   H1A15407   3.527   5.001  10.464
  124CHL1   H1B15408   3.464   5.167  10.545
  124CHL1    C215409   3.518   5.126   9.933
  124CHL1   H2A15410   3.410   5.119   9.864
  124CHL1   H2B15411   3.570   5.045   9.765
  124CHL1   C2015412   3.770   5.054  12.696
  124CHL1   H2015413   3.841   4.984  12.561
  124CHL1   C2115414   3.644   4.978  12.834
  124CHL1  H21A15415   3.605   4.914  12.588
  124CHL1  H21B15416   3.563   5.048  12.924
  124CHL1  H21C15417   3.666   4.914  13.098
  124CHL1   C2215418   3.851   5.104  13.077
  124CHL1  H22A15419   3.911   5.192  13.002
  124CHL1  H22B15420   3.779   5.140  13.305
  124CHL1   C2315421   3.958   5.013  13.293
  124CHL1  H23A15422   3.902   4.949  13.506
  124CHL1  H23B15423   4.014   4.950  13.077
  124CHL1   C2415424   4.058   5.103  13.527
  124CHL1  H24A15425   4.130   5.150  13.326
  124CHL1  H24B15426   3.991   5.180  13.653
  124CHL1   C2515427   4.158   5.074  13.869
  124CHL1   H2515428   4.247   5.019  13.755
  124CHL1   C2615429   4.202   5.214  14.022
  124CHL1  H26A15430   4.272   5.209  14.280
  124CHL1  H26B15431   4.249   5.273  13.779
  124CHL1  H26C15432   4.112   5.270  14.124
  124CHL1   C2715433   4.094   5.000  14.211
  124CHL1  H27A15434   4.006   5.061  14.289
  124CHL1  H27B15435   4.060   4.899  14.118
  124CHL1  H27C15436   4.161   4.992  14.478
  125CHL1    C315437   4.296   5.257   9.666
  125CHL1    H315438   4.188   5.268   9.597
  125CHL1    O315439   4.368   5.234   9.303
  125CHL1   H3'15440   4.330   5.153   9.183
  125CHL1    C415441   4.350   5.386   9.858
  125CHL1   H4A15442   4.461   5.377   9.870
  125CHL1   H4B15443   4.330   5.470   9.648
  125CHL1    C515444   4.296   5.414  10.275
  125CHL1    C615445   4.237   5.531  10.374
  125CHL1    H615446   4.228   5.610  10.149
  125CHL1    C715447   4.192   5.566  10.794
  125CHL1   H7A15448   4.224   5.669  10.881
  125CHL1   H7B15449   4.081   5.561  10.812
  125CHL1    C815450   4.249   5.470  11.115
  125CHL1    H815451   4.358   5.490  11.148
  125CHL1   C1415452   4.185   5.499  11.526
  125CHL1   H1415453   4.074   5.495  11.475
  125CHL1   C1515454   4.212   5.637  11.721
  125CHL1  H15A15455   4.316   5.672  11.673
  125CHL1  H15B15456   4.141   5.713  11.604
  125CHL1   C1615457   4.187   5.617  12.171
  125CHL1  H16A15458   4.277   5.632  12.360
  125CHL1  H16B15459   4.112   5.690  12.267
  125CHL1   C1715460   4.137   5.471  12.207
  125CHL1   H1715461   4.030   5.480  12.126
  125CHL1   C1315462   4.211   5.396  11.853
  125CHL1   C1815463   4.362   5.393  11.943
  125CHL1  H18A15464   4.419   5.381  11.661
  125CHL1  H18B15465   4.400   5.484  12.093
  125CHL1  H18C15466   4.387   5.305  12.135
  125CHL1   C1215467   4.168   5.258  11.679
  125CHL1  H12A15468   4.184   5.175  11.895
  125CHL1  H12B15469   4.063   5.258  11.583
  125CHL1   C1115470   4.248   5.219  11.301
  125CHL1  H11A15471   4.354   5.205  11.379
  125CHL1  H11B15472   4.211   5.121  11.190
  125CHL1    C915473   4.230   5.325  10.965
  125CHL1    H915474   4.122   5.318  10.884
  125CHL1   C1015475   4.310   5.296  10.572
  125CHL1   C1915476   4.460   5.279  10.671
  125CHL1  H19A15477   4.500   5.367  10.836
  125CHL1  H19B15478   4.477   5.189  10.854
  125CHL1  H19C15479   4.521   5.267  10.395
  125CHL1    C115480   4.257   5.166  10.365
  125CHL1   H1A15481   4.280   5.079  10.560
  125CHL1   H1B15482   4.146   5.172  10.335
  125CHL1    C215483   4.317   5.137   9.945
  125CHL1   H2A15484   4.270   5.047   9.813
  125CHL1   H2B15485   4.426   5.117   9.975
  125CHL1   C2015486   4.138   5.419  12.642
  125CHL1   H2015487   4.234   5.448  12.792
  125CHL1   C2115488   4.136   5.269  12.594
  125CHL1  H21A15489   4.239   5.230  12.537
  125CHL1  H21B15490   4.067   5.239  12.354
  125CHL1  H21C15491   4.096   5.222  12.855
  125CHL1   C2215492   4.022   5.477  12.912
  125CHL1  H22A15493   4.060   5.578  12.960
  125CHL1  H22B15494   3.928   5.489  12.741
  125CHL1   C2315495   3.998   5.437  13.359
  125CHL1  H23A15496   4.059   5.350  13.437
  125CHL1  H23B15497   4.042   5.517  13.548
  125CHL1   C2415498   3.849   5.426  13.497
  125CHL1  H24A15499   3.801   5.525  13.467
  125CHL1  H24B15500   3.796   5.358  13.287
  125CHL1   C2515501   3.822   5.375  13.935
  125CHL1   H2515502   3.885   5.285  13.986
  125CHL1   C2615503   3.862   5.474  14.265
  125CHL1  H26A15504   3.774   5.533  14.364
  125CHL1  H26B15505   3.901   5.418  14.526
  125CHL1  H26C15506   3.941   5.543  14.163
  125CHL1   C2715507   3.677   5.329  14.010
  125CHL1  H27A15508   3.672   5.264  14.277
  125CHL1  H27B15509   3.611   5.417  14.064
  125CHL1  H27C15510   3.637   5.272  13.752
  126CHL1    C315511   2.575   5.163   9.708
  126CHL1    H315512   2.590   5.054   9.654
  126CHL1    O315513   2.580   5.234   9.339
  126CHL1   H3'15514   2.567   5.164   9.141
  126CHL1    C415515   2.438   5.186   9.906
  126CHL1   H4A15516   2.405   5.291   9.855
  126CHL1   H4B15517   2.365   5.123   9.741
  126CHL1    C515518   2.436   5.156  10.353
  126CHL1    C615519   2.348   5.074  10.524
  126CHL1    H615520   2.269   5.028  10.341
  126CHL1    C715521   2.348   5.043  10.962
  126CHL1   H7A15522   2.243   5.035  11.070
  126CHL1   H7B15523   2.394   4.944  11.013
  126CHL1    C815524   2.424   5.146  11.226
  126CHL1    H815525   2.360   5.236  11.259
  126CHL1   C1415526   2.457   5.087  11.634
  126CHL1   H1415527   2.540   5.014  11.580
  126CHL1   C1515528   2.349   5.001  11.832
  126CHL1  H15A15529   2.252   5.050  11.787
  126CHL1  H15B15530   2.346   4.899  11.703
  126CHL1   C1615531   2.386   5.004  12.273
  126CHL1  H16A15532   2.313   5.069  12.420
  126CHL1  H16B15533   2.386   4.903  12.414
  126CHL1   C1715534   2.520   5.080  12.306
  126CHL1   H1715535   2.592   5.001  12.222
  126CHL1   C1315536   2.514   5.181  11.952
  126CHL1   C1815537   2.416   5.297  12.054
  126CHL1  H18A15538   2.401   5.364  11.790
  126CHL1  H18B15539   2.316   5.260  12.144
  126CHL1  H18C15540   2.456   5.361  12.300
  126CHL1   C1215541   2.645   5.237  11.778
  126CHL1  H12A15542   2.683   5.320  11.967
  126CHL1  H12B15543   2.721   5.157  11.787
  126CHL1   C1115544   2.629   5.286  11.337
  126CHL1  H11A15545   2.570   5.380  11.352
  126CHL1  H11B15546   2.729   5.313  11.217
  126CHL1    C915547   2.557   5.186  11.049
  126CHL1    H915548   2.619   5.093  11.049
  126CHL1   C1015549   2.547   5.223  10.596
  126CHL1   C1915550   2.517   5.373  10.563
  126CHL1  H19A15551   2.526   5.409  10.248
  126CHL1  H19B15552   2.415   5.397  10.671
  126CHL1  H19C15553   2.589   5.434  10.740
  126CHL1    C115554   2.679   5.176  10.395
  126CHL1   H1A15555   2.764   5.216  10.566
  126CHL1   H1B15556   2.686   5.065  10.413
  126CHL1    C215557   2.692   5.216   9.954
  126CHL1   H2A15558   2.787   5.178   9.825
  126CHL1   H2B15559   2.693   5.327   9.930
  126CHL1   C2015560   2.558   5.125  12.732
  126CHL1   H2015561   2.512   5.225  12.789
  126CHL1   C2115562   2.712   5.136  12.753
  126CHL1  H21A15563   2.759   5.037  12.705
  126CHL1  H21B15564   2.747   5.168  13.053
  126CHL1  H21C15565   2.753   5.205  12.522
  126CHL1   C2215566   2.512   5.031  13.083
  126CHL1  H22A15567   2.409   4.994  13.035
  126CHL1  H22B15568   2.579   4.943  13.086
  126CHL1   C2315569   2.512   5.100  13.500
  126CHL1  H23A15570   2.598   5.171  13.512
  126CHL1  H23B15571   2.420   5.161  13.530
  126CHL1   C2415572   2.522   5.005  13.863
  126CHL1  H24A15573   2.437   4.934  13.869
  126CHL1  H24B15574   2.614   4.943  13.821
  126CHL1   C2515575   2.535   5.074  14.277
  126CHL1   H2515576   2.546   4.994  14.511
  126CHL1   C2615577   2.662   5.159  14.292
  126CHL1  H26A15578   2.642   5.256  14.145
  126CHL1  H26B15579   2.694   5.178  14.607
  126CHL1  H26C15580   2.745   5.108  14.133
  126CHL1   C2715581   2.418   5.165  14.400
  126CHL1  H27A15582   2.385   5.228  14.145
  126CHL1  H27B15583   2.332   5.107  14.511
  126CHL1  H27C15584   2.449   5.232  14.649
  127CHL1    C315585   3.420   6.466   9.774
  127CHL1    H315586   3.528   6.441   9.783
  127CHL1    O315587   3.380   6.475   9.366
  127CHL1   H3'15588   3.346   6.388   9.291
  127CHL1    C415589   3.336   6.358   9.993
  127CHL1   H4A15590   3.229   6.376   9.918
  127CHL1   H4B15591   3.362   6.260   9.855
  127CHL1    C515592   3.355   6.356  10.446
  127CHL1    C615593   3.388   6.245  10.647
  127CHL1    H615594   3.399   6.151  10.485
  127CHL1    C715595   3.404   6.240  11.097
  127CHL1   H7A15596   3.352   6.150  11.220
  127CHL1   H7B15597   3.512   6.230  11.172
  127CHL1    C815598   3.349   6.365  11.316
  127CHL1    H815599   3.238   6.357  11.325
  127CHL1   C1415600   3.403   6.373  11.742
  127CHL1   H1415601   3.514   6.387  11.703
  127CHL1   C1515602   3.391   6.249  12.009
  127CHL1  H15A15603   3.290   6.206  11.970
  127CHL1  H15B15604   3.470   6.176  11.931
  127CHL1   C1615605   3.402   6.299  12.441
  127CHL1  H16A15606   3.306   6.282  12.600
  127CHL1  H16B15607   3.482   6.247  12.612
  127CHL1   C1715608   3.430   6.450  12.387
  127CHL1   H1715609   3.539   6.458  12.318
  127CHL1   C1315610   3.357   6.490  11.997
  127CHL1   C1815611   3.203   6.487  12.066
  127CHL1  H18A15612   3.173   6.573  12.258
  127CHL1  H18B15613   3.148   6.494  11.781
  127CHL1  H18C15614   3.170   6.394  12.219
  127CHL1   C1215615   3.400   6.618  11.775
  127CHL1  H12A15616   3.359   6.708  11.928
  127CHL1  H12B15617   3.511   6.625  11.775
  127CHL1   C1115618   3.350   6.620  11.337
  127CHL1  H11A15619   3.240   6.632  11.349
  127CHL1  H11B15620   3.393   6.710  11.193
  127CHL1    C915621   3.389   6.492  11.097
  127CHL1    H915622   3.501   6.491  11.091
  127CHL1   C1015623   3.344   6.493  10.653
  127CHL1   C1915624   3.194   6.531  10.638
  127CHL1  H19A15625   3.136   6.461  10.827
  127CHL1  H19B15626   3.177   6.633  10.752
  127CHL1  H19C15627   3.153   6.528  10.329
  127CHL1    C115628   3.433   6.594  10.422
  127CHL1   H1A15629   3.424   6.695  10.560
  127CHL1   H1B15630   3.540   6.564  10.458
  127CHL1    C215631   3.402   6.603   9.972
  127CHL1   H2A15632   3.467   6.678   9.822
  127CHL1   H2B15633   3.297   6.633   9.927
  127CHL1   C2015634   3.410   6.529  12.771
  127CHL1   H2015635   3.303   6.527  12.864
  127CHL1   C2115636   3.449   6.670  12.666
  127CHL1  H21A15637   3.486   6.730  12.921
  127CHL1  H21B15638   3.355   6.718  12.555
  127CHL1  H21C15639   3.527   6.676  12.432
  127CHL1   C2215640   3.496   6.478  13.122
  127CHL1  H22A15641   3.576   6.411  13.008
  127CHL1  H22B15642   3.548   6.562  13.272
  127CHL1   C2315643   3.411   6.405  13.431
  127CHL1  H23A15644   3.348   6.478  13.599
  127CHL1  H23B15645   3.342   6.339  13.266
  127CHL1   C2415646   3.498   6.325  13.722
  127CHL1  H24A15647   3.582   6.279  13.554
  127CHL1  H24B15648   3.541   6.393  13.950
  127CHL1   C2515649   3.422   6.211  13.932
  127CHL1   H2515650   3.331   6.252  14.079
  127CHL1   C2615651   3.379   6.104  13.626
  127CHL1  H26A15652   3.305   6.145  13.416
  127CHL1  H26B15653   3.467   6.068  13.452
  127CHL1  H26C15654   3.334   6.018  13.785
  127CHL1   C2715655   3.509   6.146  14.253
  127CHL1  H27A15656   3.453   6.069  14.421
  127CHL1  H27B15657   3.599   6.100  14.118
  127CHL1  H27C15658   3.542   6.224  14.472
  128CHL1    C315659   2.058   1.737   9.777
  128CHL1    H315660   1.954   1.757   9.885
  128CHL1    O315661   2.057   1.737   9.348
  128CHL1   H3'15662   2.000   1.661   9.279
  128CHL1    C415663   2.152   1.847   9.930
  128CHL1   H4A15664   2.254   1.829   9.813
  128CHL1   H4B15665   2.118   1.944   9.801
  128CHL1    C515666   2.150   1.850  10.383
  128CHL1    C615667   2.112   1.960  10.581
  128CHL1    H615668   2.095   2.052  10.413
  128CHL1    C715669   2.094   1.967  11.025
  128CHL1   H7A15670   2.121   2.066  11.151
  128CHL1   H7B15671   1.988   1.947  11.094
  128CHL1    C815672   2.176   1.860  11.241
  128CHL1    H815673   2.283   1.889  11.217
  128CHL1   C1415674   2.131   1.853  11.676
  128CHL1   H1415675   2.026   1.815  11.673
  128CHL1   C1515676   2.125   1.983  11.928
  128CHL1  H15A15677   2.213   2.048  11.865
  128CHL1  H15B15678   2.033   2.041  11.865
  128CHL1   C1615679   2.130   1.931  12.363
  128CHL1  H16A15680   2.216   1.977  12.519
  128CHL1  H16B15681   2.037   1.956  12.531
  128CHL1   C1715682   2.148   1.776  12.327
  128CHL1   H1715683   2.045   1.733  12.312
  128CHL1   C1315684   2.212   1.756  11.919
  128CHL1   C1815685   2.358   1.806  11.940
  128CHL1  H18A15686   2.405   1.804  11.640
  128CHL1  H18B15687   2.369   1.909  12.057
  128CHL1  H18C15688   2.418   1.740  12.138
  128CHL1   C1215689   2.202   1.614  11.739
  128CHL1  H12A15690   2.278   1.547  11.877
  128CHL1  H12B15691   2.101   1.574  11.796
  128CHL1   C1115692   2.232   1.613  11.289
  128CHL1  H11A15693   2.342   1.630  11.268
  128CHL1  H11B15694   2.210   1.512  11.169
  128CHL1    C915695   2.156   1.722  11.052
  128CHL1    H915696   2.047   1.699  11.091
  128CHL1   C1015697   2.183   1.718  10.593
  128CHL1   C1915698   2.333   1.697  10.527
  128CHL1  H19A15699   2.391   1.780  10.665
  128CHL1  H19B15700   2.369   1.601  10.656
  128CHL1  H19C15701   2.358   1.693  10.206
  128CHL1    C115702   2.104   1.601  10.401
  128CHL1   H1A15703   2.147   1.507  10.518
  128CHL1   H1B15704   1.998   1.606  10.509
  128CHL1    C215705   2.103   1.600   9.939
  128CHL1   H2A15706   2.034   1.520   9.834
  128CHL1   H2B15707   2.204   1.578   9.822
  128CHL1   C2015708   2.220   1.710  12.672
  128CHL1   H2015709   2.326   1.744  12.681
  128CHL1   C2115710   2.220   1.557  12.636
  128CHL1  H21A15711   2.225   1.514  12.939
  128CHL1  H21B15712   2.309   1.522  12.471
  128CHL1  H21C15713   2.128   1.520  12.489
  128CHL1   C2215714   2.159   1.748  13.074
  128CHL1  H22A15715   2.085   1.830  13.053
  128CHL1  H22B15716   2.106   1.661  13.209
  128CHL1   C2315717   2.272   1.793  13.347
  128CHL1  H23A15718   2.349   1.714  13.380
  128CHL1  H23B15719   2.323   1.882  13.212
  128CHL1   C2415720   2.214   1.828  13.746
  128CHL1  H24A15721   2.131   1.900  13.692
  128CHL1  H24B15722   2.171   1.739  13.899
  128CHL1   C2515723   2.320   1.895  14.007
  128CHL1   H2515724   2.411   1.918  13.824
  128CHL1   C2615725   2.261   2.027  14.136
  128CHL1  H26A15726   2.255   2.100  13.887
  128CHL1  H26B15727   2.158   2.011  14.253
  128CHL1  H26C15728   2.324   2.068  14.376
  128CHL1   C2715729   2.360   1.805  14.358
  128CHL1  H27A15730   2.411   1.714  14.247
  128CHL1  H27B15731   2.428   1.859  14.568
  128CHL1  H27C15732   2.269   1.774  14.526
  129CHL1    C315733   5.724   6.004   9.780
  129CHL1    H315734   5.781   5.911   9.720
  129CHL1    O315735   5.642   6.030   9.444
  129CHL1   H3'15736   5.697   6.018   9.207
  129CHL1    C415737   5.633   5.986  10.143
  129CHL1   H4A15738   5.562   6.071  10.161
  129CHL1   H4B15739   5.569   5.896  10.080
  129CHL1    C515740   5.711   5.972  10.527
  129CHL1    C615741   5.697   5.863  10.755
  129CHL1    H615742   5.626   5.784  10.674
  129CHL1    C715743   5.777   5.844  11.127
  129CHL1   H7A15744   5.722   5.782  11.352
  129CHL1   H7B15745   5.867   5.790  11.040
  129CHL1    C815746   5.833   5.973  11.307
  129CHL1    H815747   5.747   6.029  11.436
  129CHL1   C1415748   5.937   5.938  11.622
  129CHL1   H1415749   6.027   5.902  11.457
  129CHL1   C1515750   5.906   5.825  11.919
  129CHL1  H15A15751   5.799   5.820  11.997
  129CHL1  H15B15752   5.937   5.728  11.784
  129CHL1   C1615753   5.991   5.860  12.285
  129CHL1  H16A15754   5.925   5.869  12.552
  129CHL1  H16B15755   6.069   5.783  12.336
  129CHL1   C1715756   6.064   5.992  12.198
  129CHL1   H1715757   6.156   5.966  12.048
  129CHL1   C1315758   5.985   6.057  11.859
  129CHL1   C1815759   5.867   6.121  12.066
  129CHL1  H18A15760   5.802   6.050  12.231
  129CHL1  H18B15761   5.911   6.190  12.288
  129CHL1  H18C15762   5.806   6.178  11.850
  129CHL1   C1215763   6.061   6.147  11.559
  129CHL1  H12A15764   6.097   6.240  11.700
  129CHL1  H12B15765   6.149   6.088  11.457
  129CHL1   C1115766   5.976   6.180  11.181
  129CHL1  H11A15767   5.902   6.256  11.280
  129CHL1  H11B15768   6.042   6.228  10.956
  129CHL1    C915769   5.903   6.057  10.989
  129CHL1    H915770   5.985   5.992  10.872
  129CHL1   C1015771   5.813   6.085  10.617
  129CHL1   C1915772   5.735   6.217  10.686
  129CHL1  H19A15773   5.664   6.238  10.440
  129CHL1  H19B15774   5.678   6.212  10.971
  129CHL1  H19C15775   5.804   6.303  10.701
  129CHL1    C115776   5.903   6.097  10.236
  129CHL1   H1A15777   5.974   6.181  10.281
  129CHL1   H1B15778   5.962   6.003  10.206
  129CHL1    C215779   5.825   6.118   9.843
  129CHL1   H2A15780   5.895   6.123   9.588
  129CHL1   H2B15781   5.770   6.215   9.855
  129CHL1   C2015782   6.111   6.061  12.588
  129CHL1   H2015783   6.025   6.082  12.786
  129CHL1   C2115784   6.188   6.190  12.498
  129CHL1  H21A15785   6.278   6.163  12.321
  129CHL1  H21B15786   6.221   6.239  12.780
  129CHL1  H21C15787   6.126   6.263  12.327
  129CHL1   C2215788   6.211   5.965  12.798
  129CHL1  H22A15789   6.168   5.863  12.831
  129CHL1  H22B15790   6.298   5.958  12.591
  129CHL1   C2315791   6.267   6.003  13.212
  129CHL1  H23A15792   6.330   5.917  13.308
  129CHL1  H23B15793   6.333   6.091  13.188
  129CHL1   C2415794   6.159   6.031  13.524
  129CHL1  H24A15795   6.100   6.120  13.428
  129CHL1  H24B15796   6.089   5.944  13.536
  129CHL1   C2515797   6.216   6.058  13.944
  129CHL1   H2515798   6.282   6.147  13.932
  129CHL1   C2615799   6.101   6.086  14.229
  129CHL1  H26A15800   6.039   5.994  14.259
  129CHL1  H26B15801   6.134   6.116  14.532
  129CHL1  H26C15802   6.035   6.165  14.103
  129CHL1   C2715803   6.293   5.939  14.109
  129CHL1  H27A15804   6.228   5.849  14.121
  129CHL1  H27B15805   6.384   5.917  13.932
  129CHL1  H27C15806   6.326   5.961  14.418
  130CHL1    C315807   2.597   6.526   9.804
  130CHL1    H315808   2.505   6.566   9.954
  130CHL1    O315809   2.573   6.533   9.384
  130CHL1   H3'15810   2.659   6.545   9.258
  130CHL1    C415811   2.720   6.609   9.930
  130CHL1   H4A15812   2.812   6.559   9.822
  130CHL1   H4B15813   2.716   6.709   9.786
  130CHL1    C515814   2.720   6.618  10.386
  130CHL1    C615815   2.709   6.737  10.566
  130CHL1    H615816   2.710   6.829  10.383
  130CHL1    C715817   2.695   6.756  11.010
  130CHL1   H7A15818   2.762   6.837  11.124
  130CHL1   H7B15819   2.591   6.787  11.073
  130CHL1    C815820   2.722   6.627  11.253
  130CHL1    H815821   2.832   6.615  11.289
  130CHL1   C1415822   2.655   6.639  11.661
  130CHL1   H1415823   2.545   6.641  11.598
  130CHL1   C1515824   2.682   6.765  11.907
  130CHL1  H15A15825   2.790   6.785  11.892
  130CHL1  H15B15826   2.626   6.854  11.796
  130CHL1   C1615827   2.641   6.725  12.336
  130CHL1  H16A15828   2.727   6.743  12.537
  130CHL1  H16B15829   2.555   6.785  12.444
  130CHL1   C1715830   2.605   6.573  12.321
  130CHL1   H1715831   2.496   6.567  12.258
  130CHL1   C1315832   2.677   6.521  11.943
  130CHL1   C1815833   2.828   6.504  12.042
  130CHL1  H18A15834   2.843   6.419  12.249
  130CHL1  H18B15835   2.888   6.482  11.769
  130CHL1  H18C15836   2.870   6.593  12.186
  130CHL1   C1215837   2.616   6.399  11.733
  130CHL1  H12A15838   2.632   6.309  11.916
  130CHL1  H12B15839   2.507   6.414  11.700
  130CHL1   C1115840   2.678   6.376  11.316
  130CHL1  H11A15841   2.785   6.350  11.355
  130CHL1  H11B15842   2.628   6.289  11.175
  130CHL1    C915843   2.666   6.502  11.046
  130CHL1    H915844   2.556   6.521  11.025
  130CHL1   C1015845   2.714   6.482  10.608
  130CHL1   C1915846   2.858   6.425  10.617
  130CHL1  H19A15847   2.859   6.323  10.749
  130CHL1  H19B15848   2.900   6.415  10.308
  130CHL1  H19C15849   2.925   6.489  10.797
  130CHL1    C115850   2.620   6.379  10.404
  130CHL1   H1A15851   2.645   6.276  10.506
  130CHL1   H1B15852   2.516   6.400  10.500
  130CHL1    C215853   2.619   6.382   9.942
  130CHL1   H2A15854   2.538   6.316   9.825
  130CHL1   H2B15855   2.715   6.343   9.825
  130CHL1   C2015856   2.631   6.501  12.717
  130CHL1   H2015857   2.741   6.494  12.762
  130CHL1   C2115858   2.572   6.359  12.717
  130CHL1  H21A15859   2.576   6.315  13.026
  130CHL1  H21B15860   2.630   6.292  12.522
  130CHL1  H21C15861   2.466   6.360  12.621
  130CHL1   C2215862   2.578   6.575  13.089
  130CHL1  H22A15863   2.573   6.685  13.050
  130CHL1  H22B15864   2.474   6.541  13.155
  130CHL1   C2315865   2.669   6.548  13.449
  130CHL1  H23A15866   2.696   6.440  13.458
  130CHL1  H23B15867   2.764   6.605  13.404
  130CHL1   C2415868   2.605   6.589  13.845
  130CHL1  H24A15869   2.568   6.693  13.821
  130CHL1  H24B15870   2.516   6.524  13.902
  130CHL1   C2515871   2.704   6.579  14.196
  130CHL1   H2515872   2.794   6.637  14.115
  130CHL1   C2615873   2.642   6.640  14.568
  130CHL1  H26A15874   2.550   6.585  14.652
  130CHL1  H26B15875   2.712   6.640  14.826
  130CHL1  H26C15876   2.613   6.745  14.502
  130CHL1   C2715877   2.749   6.435  14.280
  130CHL1  H27A15878   2.799   6.431  14.577
  130CHL1  H27B15879   2.663   6.367  14.283
  130CHL1  H27C15880   2.820   6.401  14.046
  131CHL1    C315881   0.896   5.124   9.831
  131CHL1    H315882   0.928   5.018   9.816
  131CHL1    O315883   0.860   5.169   9.444
  131CHL1   H3'15884   0.941   5.166   9.291
  131CHL1    C415885   0.775   5.132  10.113
  131CHL1   H4A15886   0.725   5.231  10.086
  131CHL1   H4B15887   0.699   5.059  10.008
  131CHL1    C515888   0.815   5.107  10.542
  131CHL1    C615889   0.760   5.011  10.767
  131CHL1    H615890   0.681   4.946  10.641
  131CHL1    C715891   0.795   4.992  11.199
  131CHL1   H7A15892   0.705   4.961  11.370
  131CHL1   H7B15893   0.870   4.910  11.220
  131CHL1    C815894   0.857   5.121  11.385
  131CHL1    H815895   0.778   5.199  11.391
  131CHL1   C1415896   0.908   5.095  11.802
  131CHL1   H1415897   0.990   5.019  11.772
  131CHL1   C1515898   0.805   5.032  12.069
  131CHL1  H15A15899   0.704   5.079  12.036
  131CHL1  H15B15900   0.801   4.932  11.943
  131CHL1   C1615901   0.861   5.047  12.489
  131CHL1  H16A15902   0.781   5.091  12.681
  131CHL1  H16B15903   0.896   4.952  12.621
  131CHL1   C1715904   0.982   5.143  12.459
  131CHL1   H1715905   1.073   5.079  12.438
  131CHL1   C1315906   0.967   5.209  12.039
  131CHL1   C1815907   0.860   5.320  12.072
  131CHL1  H18A15908   0.762   5.283  12.177
  131CHL1  H18B15909   0.892   5.393  12.297
  131CHL1  H18C15910   0.845   5.371  11.778
  131CHL1   C1215911   1.094   5.249  11.805
  131CHL1  H12A15912   1.138   5.341  11.934
  131CHL1  H12B15913   1.169   5.167  11.832
  131CHL1   C1115914   1.064   5.272  11.352
  131CHL1  H11A15915   1.014   5.369  11.343
  131CHL1  H11B15916   1.160   5.282  11.187
  131CHL1    C915917   0.974   5.166  11.133
  131CHL1    H915918   1.039   5.075  11.106
  131CHL1   C1015919   0.926   5.199  10.701
  131CHL1   C1915920   0.859   5.339  10.686
  131CHL1  H19A15921   0.915   5.414  10.857
  131CHL1  H19B15922   0.852   5.377  10.374
  131CHL1  H19C15923   0.757   5.337  10.815
  131CHL1    C115924   1.047   5.181  10.413
  131CHL1   H1A15925   1.132   5.245  10.515
  131CHL1   H1B15926   1.081   5.075  10.437
  131CHL1    C215927   1.016   5.208   9.972
  131CHL1   H2A15928   1.105   5.182   9.789
  131CHL1   H2B15929   0.994   5.315   9.921
  131CHL1   C2015930   0.993   5.226  12.846
  131CHL1   H2015931   0.902   5.290  12.876
  131CHL1   C2115932   1.115   5.320  12.819
  131CHL1  H21A15933   1.105   5.391  12.567
  131CHL1  H21B15934   1.208   5.261  12.780
  131CHL1  H21C15935   1.124   5.379  13.101
  131CHL1   C2215936   1.004   5.140  13.233
  131CHL1  H22A15937   1.054   5.043  13.164
  131CHL1  H22B15938   1.070   5.194  13.446
  131CHL1   C2315939   0.872   5.114  13.461
  131CHL1  H23A15940   0.813   5.208  13.482
  131CHL1  H23B15941   0.812   5.040  13.293
  131CHL1   C2415942   0.896   5.061  13.890
  131CHL1  H24A15943   0.957   4.969  13.866
  131CHL1  H24B15944   0.954   5.135  14.067
  131CHL1   C2515945   0.767   5.023  14.115
  131CHL1   H2515946   0.696   5.110  14.106
  131CHL1   C2615947   0.704   4.904  13.899
  131CHL1  H26A15948   0.636   4.939  13.656
  131CHL1  H26B15949   0.782   4.839  13.770
  131CHL1  H26C15950   0.647   4.840  14.109
  131CHL1   C2715951   0.792   4.988  14.559
  131CHL1  H27A15952   0.849   4.893  14.583
  131CHL1  H27B15953   0.848   5.068  14.712
  131CHL1  H27C15954   0.695   4.975  14.718
  132CHL1    C315955   3.812   7.098   9.795
  132CHL1    H315956   3.783   7.204   9.849
  132CHL1    O315957   3.809   7.071   9.372
  132CHL1   H3'15958   3.745   7.131   9.246
  132CHL1    C415959   3.955   7.074   9.954
  132CHL1   H4A15960   3.988   6.974   9.843
  132CHL1   H4B15961   4.022   7.148   9.804
  132CHL1    C515962   3.969   7.079  10.407
  132CHL1    C615963   4.058   7.159  10.590
  132CHL1    H615964   4.125   7.221  10.407
  132CHL1    C715965   4.080   7.165  11.037
  132CHL1   H7A15966   4.188   7.163  11.109
  132CHL1   H7B15967   4.039   7.261  11.154
  132CHL1    C815968   4.011   7.050  11.271
  132CHL1    H815969   4.072   6.958  11.232
  132CHL1   C1415970   4.002   7.084  11.718
  132CHL1   H1415971   3.934   7.174  11.730
  132CHL1   C1515972   4.128   7.129  11.940
  132CHL1  H15A15973   4.211   7.058  11.883
  132CHL1  H15B15974   4.160   7.231  11.850
  132CHL1   C1615975   4.086   7.123  12.384
  132CHL1  H16A15976   4.164   7.069  12.558
  132CHL1  H16B15977   4.075   7.225  12.513
  132CHL1   C1715978   3.949   7.049  12.402
  132CHL1   H1715979   3.871   7.128  12.405
  132CHL1   C1315980   3.935   6.980  11.988
  132CHL1   C1815981   4.012   6.846  11.988
  132CHL1  H18A15982   4.022   6.805  11.679
  132CHL1  H18B15983   4.114   6.858  12.117
  132CHL1  H18C15984   3.957   6.771  12.171
  132CHL1   C1215985   3.793   6.963  11.823
  132CHL1  H12A15986   3.734   6.888  11.994
  132CHL1  H12B15987   3.745   7.062  11.859
  132CHL1   C1115988   3.789   6.926  11.373
  132CHL1  H11A15989   3.829   6.823  11.343
  132CHL1  H11B15990   3.683   6.926  11.274
  132CHL1    C915991   3.870   7.025  11.103
  132CHL1    H915992   3.817   7.123  11.133
  132CHL1   C1015993   3.868   6.993  10.644
  132CHL1   C1915994   3.907   6.845  10.590
  132CHL1  H19A15995   3.830   6.778  10.719
  132CHL1  H19B15996   3.915   6.818  10.266
  132CHL1  H19C15997   4.004   6.823  10.737
  132CHL1    C115998   3.725   7.019  10.470
  132CHL1   H1A15999   3.655   6.947  10.611
  132CHL1   H1B16000   3.693   7.121  10.560
  132CHL1    C216001   3.712   7.006  10.011
  132CHL1   H2A16002   3.609   7.032   9.915
  132CHL1   H2B16003   3.731   6.901   9.921
  132CHL1   C2016004   3.932   6.968  12.792
  132CHL1   H2016005   4.009   6.887  12.795
  132CHL1   C2116006   3.794   6.901  12.822
  132CHL1  H21A16007   3.784   6.843  13.104
  132CHL1  H21B16008   3.775   6.831  12.570
  132CHL1  H21C16009   3.717   6.980  12.819
  132CHL1   C2216010   3.955   7.053  13.176
  132CHL1  H22A16011   3.963   6.983  13.437
  132CHL1  H22B16012   4.053   7.105  13.155
  132CHL1   C2316013   3.846   7.158  13.275
  132CHL1  H23A16014   3.821   7.214  12.999
  132CHL1  H23B16015   3.753   7.107  13.377
  132CHL1   C2416016   3.891   7.261  13.593
  132CHL1  H24A16017   3.984   7.310  13.479
  132CHL1  H24B16018   3.815   7.341  13.617
  132CHL1   C2516019   3.920   7.205  14.016
  132CHL1   H2516020   3.987   7.117  13.983
  132CHL1   C2616021   3.994   7.312  14.262
  132CHL1  H26A16022   4.021   7.271  14.562
  132CHL1  H26B16023   4.087   7.343  14.109
  132CHL1  H26C16024   3.930   7.401  14.307
  132CHL1   C2716025   3.793   7.159  14.241
  132CHL1  H27A16026   3.736   7.085  14.061
  132CHL1  H27B16027   3.820   7.112  14.529
  132CHL1  H27C16028   3.727   7.246  14.307
  133CHL1    C316029   0.896   2.436   9.729
  133CHL1    H316030   0.971   2.354   9.690
  133CHL1    O316031   0.848   2.477   9.348
  133CHL1   H3'16032   0.911   2.440   9.153
  133CHL1    C416033   0.776   2.384   9.972
  133CHL1   H4A16034   0.698   2.462   9.951
  133CHL1   H4B16035   0.737   2.295   9.813
  133CHL1    C516036   0.801   2.358  10.413
  133CHL1    C616037   0.767   2.241  10.581
  133CHL1    H616038   0.719   2.163  10.398
  133CHL1    C716039   0.780   2.213  11.019
  133CHL1   H7A16040   0.685   2.169  11.139
  133CHL1   H7B16041   0.861   2.139  11.073
  133CHL1    C816042   0.810   2.341  11.265
  133CHL1    H816043   0.715   2.398  11.292
  133CHL1   C1416044   0.856   2.301  11.676
  133CHL1   H1416045   0.954   2.248  11.634
  133CHL1   C1516046   0.767   2.203  11.910
  133CHL1  H15A16047   0.662   2.238  11.904
  133CHL1  H15B16048   0.771   2.099  11.790
  133CHL1   C1616049   0.824   2.212  12.333
  133CHL1  H16A16050   0.741   2.223  12.549
  133CHL1  H16B16051   0.883   2.122  12.411
  133CHL1   C1716052   0.918   2.337  12.333
  133CHL1   H1716053   1.022   2.299  12.288
  133CHL1   C1316054   0.885   2.417  11.958
  133CHL1   C1816055   0.758   2.503  12.042
  133CHL1  H18A16056   0.679   2.443  12.192
  133CHL1  H18B16057   0.782   2.588  12.240
  133CHL1  H18C16058   0.717   2.544  11.760
  133CHL1   C1216059   0.999   2.499  11.772
  133CHL1  H12A16060   1.024   2.587  11.958
  133CHL1  H12B16061   1.089   2.435  11.760
  133CHL1   C1116062   0.963   2.545  11.343
  133CHL1  H11A16063   0.884   2.622  11.379
  133CHL1  H11B16064   1.051   2.595  11.208
  133CHL1    C916065   0.916   2.429  11.064
  133CHL1    H916066   1.005   2.363  11.025
  133CHL1   C1016067   0.873   2.472  10.638
  133CHL1   C1916068   0.777   2.593  10.683
  133CHL1  H19A16069   0.699   2.566  10.902
  133CHL1  H19B16070   0.829   2.683  10.794
  133CHL1  H19C16071   0.727   2.621  10.401
  133CHL1    C116072   0.995   2.515  10.383
  133CHL1   H1A16073   1.047   2.600  10.533
  133CHL1   H1B16074   1.065   2.428  10.371
  133CHL1    C216075   0.961   2.554   9.945
  133CHL1   H2A16076   1.053   2.586   9.783
  133CHL1   H2B16077   0.891   2.639   9.951
  133CHL1   C2016078   0.915   2.406  12.738
  133CHL1   H2016079   0.811   2.438  12.813
  133CHL1   C2116080   1.006   2.530  12.753
  133CHL1  H21A16081   1.010   2.575  13.056
  133CHL1  H21B16082   0.967   2.609  12.549
  133CHL1  H21C16083   1.109   2.504  12.660
  133CHL1   C2216084   0.960   2.304  13.047
  133CHL1  H22A16085   0.889   2.218  13.056
  133CHL1  H22B16086   1.061   2.263  12.975
  133CHL1   C2316087   0.959   2.362  13.464
  133CHL1  H23A16088   1.052   2.422  13.512
  133CHL1  H23B16089   0.872   2.430  13.494
  133CHL1   C2416090   0.948   2.246  13.758
  133CHL1  H24A16091   0.846   2.203  13.734
  133CHL1  H24B16092   1.022   2.167  13.680
  133CHL1   C2516093   0.972   2.293  14.184
  133CHL1   H2516094   0.957   2.204  14.376
  133CHL1   C2616095   1.119   2.339  14.229
  133CHL1  H26A16096   1.131   2.445  14.151
  133CHL1  H26B16097   1.156   2.323  14.538
  133CHL1  H26C16098   1.184   2.281  14.019
  133CHL1   C2716099   0.864   2.399  14.277
  133CHL1  H27A16100   0.881   2.493  14.109
  133CHL1  H27B16101   0.763   2.362  14.190
  133CHL1  H27C16102   0.861   2.424  14.598
  134CHL1    C316103   6.921   2.518   9.726
  134CHL1    H316104   7.007   2.446   9.741
  134CHL1    O316105   6.874   2.523   9.327
  134CHL1   H3'16106   6.839   2.433   9.276
  134CHL1    C416107   6.806   2.471   9.993
  134CHL1   H4A16108   6.724   2.546   9.981
  134CHL1   H4B16109   6.764   2.376   9.873
  134CHL1    C516110   6.858   2.456  10.416
  134CHL1    C616111   6.860   2.335  10.584
  134CHL1    H616112   6.817   2.248  10.425
  134CHL1    C716113   6.911   2.313  10.998
  134CHL1   H7A16114   6.844   2.245  11.157
  134CHL1   H7B16115   7.013   2.267  10.989
  134CHL1    C816116   6.916   2.443  11.247
  134CHL1    H816117   6.810   2.472  11.307
  134CHL1   C1416118   6.987   2.417  11.637
  134CHL1   H1416119   7.093   2.392  11.559
  134CHL1   C1516120   6.936   2.297  11.874
  134CHL1  H15A16121   6.825   2.298  11.877
  134CHL1  H15B16122   6.971   2.203  11.733
  134CHL1   C1616123   6.991   2.320  12.294
  134CHL1  H16A16124   6.906   2.310  12.507
  134CHL1  H16B16125   7.071   2.250  12.381
  134CHL1   C1716126   7.051   2.464  12.297
  134CHL1   H1716127   7.160   2.452  12.234
  134CHL1   C1316128   6.991   2.534  11.925
  134CHL1   C1816129   6.849   2.583  12.039
  134CHL1  H18A16130   6.790   2.503  12.189
  134CHL1  H18B16131   6.855   2.670  12.243
  134CHL1  H18C16132   6.792   2.616  11.772
  134CHL1   C1216133   7.074   2.643  11.712
  134CHL1  H12A16134   7.078   2.735  11.898
  134CHL1  H12B16135   7.177   2.606  11.670
  134CHL1   C1116136   7.013   2.678  11.298
  134CHL1  H11A16137   6.917   2.730  11.364
  134CHL1  H11B16138   7.078   2.751  11.142
  134CHL1    C916139   6.986   2.555  11.019
  134CHL1    H916140   7.087   2.514  10.944
  134CHL1   C1016141   6.916   2.584  10.614
  134CHL1   C1916142   6.797   2.679  10.698
  134CHL1  H19A16143   6.736   2.698  10.425
  134CHL1  H19B16144   6.731   2.636  10.932
  134CHL1  H19C16145   6.833   2.779  10.797
  134CHL1    C116146   7.017   2.649  10.317
  134CHL1   H1A16147   7.040   2.751  10.425
  134CHL1   H1B16148   7.112   2.590  10.323
  134CHL1    C216149   6.969   2.656   9.876
  134CHL1   H2A16150   7.051   2.695   9.681
  134CHL1   H2B16151   6.884   2.727   9.861
  134CHL1   C2016152   7.037   2.527  12.714
  134CHL1   H2016153   6.930   2.552  12.771
  134CHL1   C2116154   7.120   2.656  12.738
  134CHL1  H21A16155   7.113   2.702  13.038
  134CHL1  H21B16156   7.085   2.732  12.519
  134CHL1  H21C16157   7.227   2.632  12.681
  134CHL1   C2216158   7.080   2.429  13.047
  134CHL1  H22A16159   7.016   2.338  13.038
  134CHL1  H22B16160   7.185   2.396  12.996
  134CHL1   C2316161   7.065   2.484  13.470
  134CHL1  H23A16162   7.146   2.557  13.536
  134CHL1  H23B16163   6.967   2.537  13.497
  134CHL1   C2416164   7.068   2.370  13.776
  134CHL1  H24A16165   6.984   2.299  13.722
  134CHL1  H24B16166   7.163   2.314  13.731
  134CHL1   C2516167   7.062   2.419  14.211
  134CHL1   H2516168   7.142   2.497  14.244
  134CHL1   C2616169   6.927   2.479  14.331
  134CHL1  H26A16170   6.931   2.516  14.646
  134CHL1  H26B16171   6.900   2.564  14.133
  134CHL1  H26C16172   6.847   2.402  14.310
  134CHL1   C2716173   7.095   2.304  14.496
  134CHL1  H27A16174   7.125   2.346  14.790
  134CHL1  H27B16175   7.009   2.236  14.538
  134CHL1  H27C16176   7.180   2.245  14.373
  135CHL1    C316177   7.205   3.220   9.798
  135CHL1    H316178   7.265   3.128   9.846
  135CHL1    O316179   7.182   3.233   9.381
  135CHL1   H3'16180   7.126   3.158   9.318
  135CHL1    C416181   7.070   3.208  10.017
  135CHL1   H4A16182   7.010   3.298   9.942
  135CHL1   H4B16183   7.014   3.121   9.891
  135CHL1    C516184   7.086   3.197  10.467
  135CHL1    C616185   7.038   3.092  10.671
  135CHL1    H616186   6.984   3.013  10.512
  135CHL1    C716187   7.048   3.077  11.121
  135CHL1   H7A16188   6.949   3.050  11.247
  135CHL1   H7B16189   7.118   2.994  11.190
  135CHL1    C816190   7.099   3.205  11.337
  135CHL1    H816191   7.013   3.276  11.364
  135CHL1   C1416192   7.150   3.169  11.754
  135CHL1   H1416193   7.237   3.101  11.703
  135CHL1   C1516194   7.056   3.088  12.030
  135CHL1  H15A16195   6.953   3.132  12.018
  135CHL1  H15B16196   7.051   2.982  11.943
  135CHL1   C1616197   7.115   3.109  12.450
  135CHL1  H16A16198   7.037   3.154  12.642
  135CHL1  H16B16199   7.148   3.013  12.588
  135CHL1   C1716200   7.235   3.208  12.402
  135CHL1   H1716201   7.324   3.144  12.333
  135CHL1   C1316202   7.204   3.284  12.009
  135CHL1   C1816203   7.093   3.389  12.099
  135CHL1  H18A16204   7.135   3.472  12.276
  135CHL1  H18B16205   7.052   3.431  11.817
  135CHL1  H18C16206   7.008   3.344  12.267
  135CHL1   C1216207   7.321   3.346  11.769
  135CHL1  H12A16208   7.360   3.437  11.922
  135CHL1  H12B16209   7.403   3.272  11.748
  135CHL1   C1116210   7.278   3.387  11.340
  135CHL1  H11A16211   7.208   3.473  11.370
  135CHL1  H11B16212   7.368   3.424  11.178
  135CHL1    C916213   7.211   3.273  11.097
  135CHL1    H916214   7.289   3.194  11.064
  135CHL1   C1016215   7.168   3.310  10.662
  135CHL1   C1916216   7.078   3.435  10.671
  135CHL1  H19A16217   6.990   3.421  10.866
  135CHL1  H19B16218   7.138   3.519  10.785
  135CHL1  H19C16219   7.044   3.463  10.365
  135CHL1    C116220   7.295   3.344  10.407
  135CHL1   H1A16221   7.331   3.445  10.497
  135CHL1   H1B16222   7.374   3.272  10.479
  135CHL1    C216223   7.280   3.343   9.948
  135CHL1   H2A16224   7.381   3.345   9.804
  135CHL1   H2B16225   7.226   3.435   9.849
  135CHL1   C2016226   7.269   3.285  12.789
  135CHL1   H2016227   7.186   3.354  12.867
  135CHL1   C2116228   7.397   3.368  12.729
  135CHL1  H21A16229   7.432   3.410  13.017
  135CHL1  H21B16230   7.377   3.455  12.528
  135CHL1  H21C16231   7.478   3.306  12.597
  135CHL1   C2216232   7.290   3.191  13.158
  135CHL1  H22A16233   7.321   3.091  13.053
  135CHL1  H22B16234   7.373   3.230  13.344
  135CHL1   C2316235   7.167   3.178  13.434
  135CHL1  H23A16236   7.157   3.271  13.617
  135CHL1  H23B16237   7.076   3.171  13.248
  135CHL1   C2416238   7.174   3.055  13.713
  135CHL1  H24A16239   7.196   2.965  13.530
  135CHL1  H24B16240   7.259   3.069  13.926
  135CHL1   C2516241   7.045   3.030  13.956
  135CHL1   H2516242   7.019   3.125  14.115
  135CHL1   C2616243   6.927   2.991  13.683
  135CHL1  H26A16244   6.903   3.073  13.470
  135CHL1  H26B16245   6.952   2.900  13.509
  135CHL1  H26C16246   6.836   2.971  13.866
  135CHL1   C2716247   7.066   2.921  14.274
  135CHL1  H27A16248   6.973   2.906  14.451
  135CHL1  H27B16249   7.092   2.824  14.130
  135CHL1  H27C16250   7.148   2.949  14.484
  136CHL1    C316251   5.528   0.469   9.819
  136CHL1    H316252   5.422   0.485   9.912
  136CHL1    O316253   5.534   0.451   9.399
  136CHL1   H3'16254   5.537   0.541   9.297
  136CHL1    C416255   5.612   0.592   9.918
  136CHL1   H4A16256   5.717   0.574   9.816
  136CHL1   H4B16257   5.574   0.678   9.738
  136CHL1    C516258   5.609   0.622  10.362
  136CHL1    C616259   5.570   0.742  10.497
  136CHL1    H616260   5.548   0.823  10.284
  136CHL1    C716261   5.559   0.776  10.935
  136CHL1   H7A16262   5.608   0.874  10.998
  136CHL1   H7B16263   5.452   0.787  11.010
  136CHL1    C816264   5.621   0.669  11.214
  136CHL1    H816265   5.730   0.687  11.226
  136CHL1   C1416266   5.560   0.682  11.625
  136CHL1   H1416267   5.450   0.660  11.586
  136CHL1   C1516268   5.564   0.819  11.829
  136CHL1  H15A16269   5.669   0.853  11.844
  136CHL1  H15B16270   5.503   0.896  11.676
  136CHL1   C1616271   5.512   0.786  12.249
  136CHL1  H16A16272   5.560   0.852  12.471
  136CHL1  H16B16273   5.402   0.803  12.261
  136CHL1   C1716274   5.537   0.632  12.312
  136CHL1   H1716275   5.436   0.585  12.306
  136CHL1   C1316276   5.611   0.582  11.934
  136CHL1   C1816277   5.764   0.595  11.985
  136CHL1  H18A16278   5.803   0.521  12.201
  136CHL1  H18B16279   5.819   0.580  11.700
  136CHL1  H18C16280   5.791   0.696  12.093
  136CHL1   C1216281   5.573   0.441  11.787
  136CHL1  H12A16282   5.611   0.363  11.994
  136CHL1  H12B16283   5.463   0.433  11.772
  136CHL1   C1116284   5.631   0.415  11.367
  136CHL1  H11A16285   5.741   0.406  11.391
  136CHL1  H11B16286   5.593   0.317  11.265
  136CHL1    C916287   5.592   0.527  11.064
  136CHL1    H916288   5.480   0.521  11.046
  136CHL1   C1016289   5.642   0.502  10.632
  136CHL1   C1916290   5.797   0.492  10.641
  136CHL1  H19A16291   5.841   0.581  10.785
  136CHL1  H19B16292   5.831   0.402  10.806
  136CHL1  H19C16293   5.839   0.485  10.332
  136CHL1    C116294   5.580   0.367  10.485
  136CHL1   H1A16295   5.631   0.283  10.638
  136CHL1   H1B16296   5.473   0.366  10.575
  136CHL1    C216297   5.583   0.345  10.029
  136CHL1   H2A16298   5.522   0.256   9.954
  136CHL1   H2B16299   5.687   0.326   9.930
  136CHL1   C2016300   5.600   0.596  12.711
  136CHL1   H2016301   5.707   0.627  12.714
  136CHL1   C2116302   5.592   0.442  12.774
  136CHL1  H21A16303   5.614   0.414  13.089
  136CHL1  H21B16304   5.667   0.390  12.588
  136CHL1  H21C16305   5.491   0.405  12.699
  136CHL1   C2216306   5.536   0.667  13.074
  136CHL1  H22A16307   5.511   0.773  13.014
  136CHL1  H22B16308   5.442   0.615  13.155
  136CHL1   C2316309   5.639   0.668  13.410
  136CHL1  H23A16310   5.676   0.565  13.470
  136CHL1  H23B16311   5.724   0.727  13.287
  136CHL1   C2416312   5.594   0.731  13.806
  136CHL1  H24A16313   5.675   0.717  14.031
  136CHL1  H24B16314   5.580   0.840  13.764
  136CHL1   C2516315   5.465   0.668  13.971
  136CHL1   H2516316   5.385   0.676  13.740
  136CHL1   C2616317   5.484   0.520  14.082
  136CHL1  H26A16318   5.565   0.509  14.307
  136CHL1  H26B16319   5.390   0.479  14.211
  136CHL1  H26C16320   5.510   0.459  13.815
  136CHL1   C2716321   5.420   0.748  14.334
  136CHL1  H27A16322   5.334   0.700  14.487
  136CHL1  H27B16323   5.506   0.754  14.547
  136CHL1  H27C16324   5.392   0.852  14.250
  137CHL1    C316325   0.402   1.714   9.816
  137CHL1    H316326   0.366   1.609   9.822
  137CHL1    O316327   0.402   1.755   9.414
  137CHL1   H3'16328   0.457   1.834   9.420
  137CHL1    C416329   0.309   1.807  10.053
  137CHL1   H4A16330   0.340   1.913  10.005
  137CHL1   H4B16331   0.206   1.797   9.930
  137CHL1    C516332   0.315   1.774  10.494
  137CHL1    C616333   0.203   1.743  10.698
  137CHL1    H616334   0.106   1.744  10.542
  137CHL1    C716335   0.200   1.709  11.136
  137CHL1   H7A16336   0.112   1.757  11.283
  137CHL1   H7B16337   0.191   1.599  11.178
  137CHL1    C816338   0.330   1.757  11.340
  137CHL1    H816339   0.324   1.866  11.358
  137CHL1   C1416340   0.341   1.702  11.760
  137CHL1   H1416341   0.367   1.594  11.715
  137CHL1   C1516342   0.216   1.695  12.030
  137CHL1  H15A16343   0.149   1.782  11.991
  137CHL1  H15B16344   0.159   1.602  11.964
  137CHL1   C1616345   0.274   1.692  12.456
  137CHL1  H16A16346   0.238   1.780  12.627
  137CHL1  H16B16347   0.245   1.599  12.618
  137CHL1   C1716348   0.429   1.697  12.405
  137CHL1   H1716349   0.458   1.597  12.312
  137CHL1   C1316350   0.458   1.761  12.000
  137CHL1   C1816351   0.448   1.913  12.054
  137CHL1  H18A16352   0.349   1.940  12.177
  137CHL1  H18B16353   0.527   1.952  12.255
  137CHL1  H18C16354   0.463   1.961  11.760
  137CHL1   C1216355   0.588   1.717  11.790
  137CHL1  H12A16356   0.676   1.765  11.928
  137CHL1  H12B16357   0.599   1.606  11.814
  137CHL1   C1116358   0.588   1.756  11.346
  137CHL1  H11A16359   0.605   1.865  11.355
  137CHL1  H11B16360   0.675   1.709  11.193
  137CHL1    C916361   0.457   1.718  11.112
  137CHL1    H916362   0.454   1.607  11.094
  137CHL1   C1016363   0.458   1.768  10.674
  137CHL1   C1916364   0.522   1.907  10.677
  137CHL1  H19A16365   0.502   1.963  10.398
  137CHL1  H19B16366   0.483   1.962  10.941
  137CHL1  H19C16367   0.632   1.901  10.707
  137CHL1    C116368   0.552   1.681  10.413
  137CHL1   H1A16369   0.656   1.694  10.521
  137CHL1   H1B16370   0.525   1.575  10.449
  137CHL1    C216371   0.547   1.721   9.966
  137CHL1   H2A16372   0.611   1.653   9.786
  137CHL1   H2B16373   0.585   1.824   9.927
  137CHL1   C2016374   0.507   1.737  12.786
  137CHL1   H2016375   0.504   1.847  12.819
  137CHL1   C2116376   0.654   1.692  12.750
  137CHL1  H21A16377   0.661   1.583  12.687
  137CHL1  H21B16378   0.710   1.714  13.026
  137CHL1  H21C16379   0.706   1.747  12.510
  137CHL1   C2216380   0.442   1.679  13.176
  137CHL1  H22A16381   0.347   1.734  13.233
  137CHL1  H22B16382   0.414   1.573  13.125
  137CHL1   C2316383   0.526   1.684  13.566
  137CHL1  H23A16384   0.620   1.626  13.524
  137CHL1  H23B16385   0.551   1.788  13.641
  137CHL1   C2416386   0.448   1.616  13.905
  137CHL1  H24A16387   0.347   1.662  13.923
  137CHL1  H24B16388   0.438   1.512  13.797
  137CHL1   C2516389   0.510   1.615  14.334
  137CHL1   H2516390   0.563   1.712  14.376
  137CHL1   C2616391   0.401   1.603  14.658
  137CHL1  H26A16392   0.322   1.679  14.613
  137CHL1  H26B16393   0.355   1.503  14.652
  137CHL1  H26C16394   0.445   1.618  14.961
  137CHL1   C2716395   0.609   1.500  14.394
  137CHL1  H27A16396   0.686   1.497  14.154
  137CHL1  H27B16397   0.660   1.510  14.691
  137CHL1  H27C16398   0.556   1.402  14.397
  138CHL1    C316399   6.846   1.076   9.702
  138CHL1    H316400   6.878   0.969   9.714
  138CHL1    O316401   6.804   1.106   9.309
  138CHL1   H3'16402   6.767   1.023   9.198
  138CHL1    C416403   6.726   1.099   9.975
  138CHL1   H4A16404   6.691   1.204   9.942
  138CHL1   H4B16405   6.642   1.036   9.864
  138CHL1    C516406   6.763   1.067  10.401
  138CHL1    C616407   6.691   0.977  10.602
  138CHL1    H616408   6.603   0.933  10.455
  138CHL1    C716409   6.714   0.945  11.034
  138CHL1   H7A16410   6.621   0.980  11.178
  138CHL1   H7B16411   6.726   0.836  11.079
  138CHL1    C816412   6.824   1.026  11.250
  138CHL1    H816413   6.766   1.115  11.334
  138CHL1   C1416414   6.894   0.959  11.613
  138CHL1   H1416415   6.980   0.899  11.487
  138CHL1   C1516416   6.824   0.855  11.883
  138CHL1  H15A16417   6.718   0.881  11.892
  138CHL1  H15B16418   6.833   0.751  11.766
  138CHL1   C1616419   6.887   0.872  12.303
  138CHL1  H16A16420   6.804   0.901  12.507
  138CHL1  H16B16421   6.931   0.778  12.417
  138CHL1   C1716422   6.995   0.985  12.279
  138CHL1   H1716423   7.091   0.933  12.213
  138CHL1   C1316424   6.956   1.063  11.892
  138CHL1   C1816425   6.843   1.163  12.018
  138CHL1  H18A16426   6.757   1.108  12.129
  138CHL1  H18B16427   6.872   1.232  12.258
  138CHL1  H18C16428   6.807   1.229  11.775
  138CHL1   C1216429   7.072   1.123  11.643
  138CHL1  H12A16430   7.127   1.202  11.802
  138CHL1  H12B16431   7.148   1.043  11.586
  138CHL1   C1116432   7.024   1.178  11.235
  138CHL1  H11A16433   6.963   1.268  11.313
  138CHL1  H11B16434   7.111   1.212  11.055
  138CHL1    C916435   6.935   1.081  10.983
  138CHL1    H916436   7.000   0.994  10.902
  138CHL1   C1016437   6.885   1.139  10.575
  138CHL1   C1916438   6.839   1.284  10.626
  138CHL1  H19A16439   6.753   1.293  10.833
  138CHL1  H19B16440   6.919   1.347  10.746
  138CHL1  H19C16441   6.814   1.328  10.332
  138CHL1    C116442   7.003   1.131  10.269
  138CHL1   H1A16443   7.084   1.199  10.371
  138CHL1   H1B16444   7.043   1.027  10.278
  138CHL1    C216445   6.964   1.163   9.831
  138CHL1   H2A16446   7.052   1.143   9.636
  138CHL1   H2B16447   6.938   1.270   9.804
  138CHL1   C2016448   7.016   1.073  12.663
  138CHL1   H2016449   6.920   1.124  12.732
  138CHL1   C2116450   7.122   1.179  12.573
  138CHL1  H21A16451   7.207   1.140  12.390
  138CHL1  H21B16452   7.162   1.226  12.849
  138CHL1  H21C16453   7.075   1.260  12.405
  138CHL1   C2216454   7.055   1.008  13.068
  138CHL1  H22A16455   7.001   0.913  13.107
  138CHL1  H22B16456   7.163   0.983  13.065
  138CHL1   C2316457   7.026   1.099  13.440
  138CHL1  H23A16458   7.113   1.166  13.497
  138CHL1  H23B16459   6.939   1.166  13.374
  138CHL1   C2416460   6.999   1.010  13.809
  138CHL1  H24A16461   6.916   0.939  13.746
  138CHL1  H24B16462   7.094   0.952  13.836
  138CHL1   C2516463   6.973   1.068  14.229
  138CHL1   H2516464   6.970   0.979  14.436
  138CHL1   C2616465   7.090   1.154  14.376
  138CHL1  H26A16466   7.187   1.103  14.325
  138CHL1  H26B16467   7.096   1.252  14.223
  138CHL1  H26C16468   7.081   1.171  14.703
  138CHL1   C2716469   6.835   1.134  14.280
  138CHL1  H27A16470   6.753   1.062  14.256
  138CHL1  H27B16471   6.828   1.182  14.583
  138CHL1  H27C16472   6.819   1.213  14.052
  139CHL1    C316473   0.147   6.574   9.840
  139CHL1    H316474   0.037   6.572   9.909
  139CHL1    O316475   0.165   6.600   9.429
  139CHL1   H3'16476   0.165   6.510   9.303
  139CHL1    C416477   0.213   6.690  10.068
  139CHL1   H4A16478   0.315   6.709   9.948
  139CHL1   H4B16479   0.156   6.782   9.993
  139CHL1    C516480   0.214   6.664  10.515
  139CHL1    C616481   0.171   6.757  10.767
  139CHL1    H616482   0.147   6.856  10.650
  139CHL1    C716483   0.160   6.734  11.208
  139CHL1   H7A16484   0.177   6.829  11.373
  139CHL1   H7B16485   0.058   6.697  11.283
  139CHL1    C816486   0.264   6.630  11.343
  139CHL1    H816487   0.361   6.681  11.289
  139CHL1   C1416488   0.246   6.593  11.778
  139CHL1   H1416489   0.159   6.523  11.799
  139CHL1   C1516490   0.211   6.705  12.066
  139CHL1  H15A16491   0.280   6.791  12.015
  139CHL1  H15B16492   0.107   6.739  12.033
  139CHL1   C1616493   0.235   6.641  12.474
  139CHL1  H16A16494   0.275   6.719  12.675
  139CHL1  H16B16495   0.140   6.602  12.603
  139CHL1   C1716496   0.333   6.522  12.408
  139CHL1   H1716497   0.276   6.429  12.471
  139CHL1   C1316498   0.366   6.520  11.955
  139CHL1   C1816499   0.494   6.602  11.883
  139CHL1  H18A16500   0.520   6.611  11.562
  139CHL1  H18B16501   0.481   6.703  12.012
  139CHL1  H18C16502   0.584   6.555  12.018
  139CHL1   C1216503   0.371   6.383  11.742
  139CHL1  H12A16504   0.462   6.328  11.835
  139CHL1  H12B16505   0.283   6.323  11.832
  139CHL1   C1116506   0.370   6.400  11.280
  139CHL1  H11A16507   0.472   6.437  11.208
  139CHL1  H11B16508   0.359   6.302  11.133
  139CHL1    C916509   0.261   6.499  11.109
  139CHL1    H916510   0.162   6.452  11.169
  139CHL1   C1016511   0.266   6.526  10.653
  139CHL1   C1916512   0.412   6.541  10.548
  139CHL1  H19A16513   0.463   6.623  10.713
  139CHL1  H19B16514   0.469   6.450  10.599
  139CHL1  H19C16515   0.420   6.557  10.224
  139CHL1    C116516   0.204   6.411  10.404
  139CHL1   H1A16517   0.260   6.318  10.470
  139CHL1   H1B16518   0.099   6.395  10.503
  139CHL1    C216519   0.207   6.437   9.948
  139CHL1   H2A16520   0.152   6.356   9.789
  139CHL1   H2B16521   0.312   6.434   9.840
  139CHL1   C2016522   0.449   6.528  12.711
  139CHL1   H2016523   0.507   6.621  12.663
  139CHL1   C2116524   0.542   6.406  12.672
  139CHL1  H21A16525   0.616   6.406  12.921
  139CHL1  H21B16526   0.600   6.404  12.390
  139CHL1  H21C16527   0.484   6.312  12.687
  139CHL1   C2216528   0.393   6.534  13.146
  139CHL1  H22A16529   0.312   6.610  13.173
  139CHL1  H22B16530   0.348   6.436  13.221
  139CHL1   C2316531   0.496   6.575  13.461
  139CHL1  H23A16532   0.568   6.492  13.506
  139CHL1  H23B16533   0.552   6.664  13.353
  139CHL1   C2416534   0.424   6.609  13.854
  139CHL1  H24A16535   0.363   6.701  13.809
  139CHL1  H24B16536   0.354   6.526  13.926
  139CHL1   C2516537   0.517   6.628  14.217
  139CHL1   H2516538   0.453   6.655  14.481
  139CHL1   C2616539   0.588   6.496  14.316
  139CHL1  H26A16540   0.665   6.474  14.088
  139CHL1  H26B16541   0.636   6.500  14.616
  139CHL1  H26C16542   0.515   6.412  14.316
  139CHL1   C2716543   0.617   6.742  14.151
  139CHL1  H27A16544   0.688   6.748  14.406
  139CHL1  H27B16545   0.677   6.725  13.875
  139CHL1  H27C16546   0.565   6.839  14.118
  140CHL1    C316547   7.207   0.459   9.828
  140CHL1    H316548   7.316   0.466   9.888
  140CHL1    O316549   7.188   0.464   9.402
  140CHL1   H3'16550   7.234   0.386   9.285
  140CHL1    C416551   7.149   0.328   9.996
  140CHL1   H4A16552   7.043   0.321   9.888
  140CHL1   H4B16553   7.202   0.242   9.852
  140CHL1    C516554   7.149   0.317  10.449
  140CHL1    C616555   7.202   0.210  10.635
  140CHL1    H616556   7.244   0.128  10.458
  140CHL1    C716557   7.195   0.188  11.079
  140CHL1   H7A16558   7.159   0.085  11.142
  140CHL1   H7B16559   7.296   0.197  11.214
  140CHL1    C816560   7.099   0.287  11.292
  140CHL1    H816561   6.995   0.253  11.235
  140CHL1   C1416562   7.127   0.284  11.739
  140CHL1   H1416563   7.235   0.314  11.763
  140CHL1   C1516564   7.116   0.148  11.940
  140CHL1  H15A16565   7.023   0.094  11.844
  140CHL1  H15B16566   7.204   0.092  11.838
  140CHL1   C1616567   7.113   0.179  12.390
  140CHL1  H16A16568   7.018   0.137  12.510
  140CHL1  H16B16569   7.196   0.132  12.561
  140CHL1   C1716570   7.119   0.335  12.411
  140CHL1   H1716571   7.227   0.359  12.372
  140CHL1   C1316572   7.050   0.379  12.006
  140CHL1   C1816573   6.899   0.341  11.970
  140CHL1  H18A16574   6.867   0.331  11.652
  140CHL1  H18B16575   6.873   0.246  12.120
  140CHL1  H18C16576   6.837   0.422  12.093
  140CHL1   C1216577   7.073   0.522  11.859
  140CHL1  H12A16578   7.009   0.591  12.036
  140CHL1  H12B16579   7.179   0.550  11.913
  140CHL1   C1116580   7.042   0.535  11.406
  140CHL1  H11A16581   6.932   0.522  11.370
  140CHL1  H11B16582   7.066   0.638  11.310
  140CHL1    C916583   7.117   0.430  11.139
  140CHL1    H916584   7.226   0.454  11.181
  140CHL1   C1016585   7.090   0.438  10.677
  140CHL1   C1916586   6.936   0.437  10.614
  140CHL1  H19A16587   6.889   0.352  10.776
  140CHL1  H19B16588   6.892   0.531  10.725
  140CHL1  H19C16589   6.908   0.427  10.296
  140CHL1    C116590   7.153   0.567  10.497
  140CHL1   H1A16591   7.103   0.654  10.638
  140CHL1   H1B16592   7.260   0.570  10.584
  140CHL1    C216593   7.141   0.579  10.035
  140CHL1   H2A16594   7.189   0.673   9.933
  140CHL1   H2B16595   7.034   0.582   9.948
  140CHL1   C2016596   7.088   0.398  12.822
  140CHL1   H2016597   7.148   0.343  13.053
  140CHL1   C2116598   6.940   0.365  12.885
  140CHL1  H21A16599   6.917   0.257  12.870
  140CHL1  H21B16600   6.875   0.419  12.672
  140CHL1  H21C16601   6.908   0.398  13.173
  140CHL1   C2216602   7.128   0.550  12.876
  140CHL1  H22A16603   7.212   0.566  12.660
  140CHL1  H22B16604   7.048   0.611  12.741
  140CHL1   C2316605   7.182   0.615  13.287
  140CHL1  H23A16606   7.288   0.641  13.218
  140CHL1  H23B16607   7.130   0.713  13.320
  140CHL1   C2416608   7.186   0.538  13.701
  140CHL1  H24A16609   7.087   0.487  13.722
  140CHL1  H24B16610   7.263   0.460  13.665
  140CHL1   C2516611   7.202   0.608  14.139
  140CHL1   H2516612   7.187   0.529  14.373
  140CHL1   C2616613   7.090   0.709  14.196
  140CHL1  H26A16614   6.996   0.663  14.298
  140CHL1  H26B16615   7.113   0.795  14.391
  140CHL1  H26C16616   7.081   0.751  13.893
  140CHL1   C2716617   7.329   0.687  14.265
  140CHL1  H27A16618   7.373   0.739  14.004
  140CHL1  H27B16619   7.300   0.767  14.478
  140CHL1  H27C16620   7.406   0.631  14.439
  141DOPC     N16621   3.843   2.883  21.144
  141DOPC   C1216622   3.948   2.772  21.156
  141DOPC  H12A16623   3.898   2.679  21.231
  141DOPC  H12B16624   4.019   2.791  21.393
  141DOPC   C1316625   3.767   2.879  20.754
  141DOPC  H13A16626   3.694   2.958  20.739
  141DOPC  H13B16627   3.838   2.899  20.511
  141DOPC  H13C16628   3.724   2.781  20.700
  141DOPC   C1416629   3.909   3.017  21.162
  141DOPC  H14A16630   3.965   3.031  20.883
  141DOPC  H14B16631   3.836   3.096  21.186
  141DOPC  H14C16632   3.981   3.023  21.402
  141DOPC   C1516633   3.750   2.870  21.492
  141DOPC  H15A16634   3.677   2.951  21.495
  141DOPC  H15B16635   3.805   2.880  21.771
  141DOPC  H15C16636   3.697   2.776  21.492
  141DOPC   C1116637   4.029   2.746  20.769
  141DOPC  H11A16638   4.086   2.652  20.796
  141DOPC  H11B16639   3.954   2.730  20.529
  141DOPC     P16640   4.113   2.926  20.268
  141DOPC   O1316641   4.236   3.007  20.217
  141DOPC   O1416642   3.983   2.997  20.247
  141DOPC   O1216643   4.119   2.853  20.688
  141DOPC   O1116644   4.113   2.801  19.968
  141DOPC    C116645   4.237   2.766  19.785
  141DOPC    HA16646   4.313   2.743  20.016
  141DOPC    HB16647   4.278   2.857  19.638
  141DOPC    C216648   4.232   2.651  19.461
  141DOPC    HS16649   4.334   2.605  19.458
  141DOPC   O2116650   4.206   2.703  19.080
  141DOPC   C2116651   4.291   2.785  18.933
  141DOPC   O2216652   4.402   2.812  19.065
  141DOPC   C2216653   4.225   2.833  18.561
  141DOPC   H2R16654   4.117   2.802  18.561
  141DOPC   H2S16655   4.271   2.781  18.306
  141DOPC    C316656   4.132   2.532  19.464
  141DOPC    HX16657   4.142   2.461  19.713
  141DOPC    HY16658   4.166   2.475  19.191
  141DOPC   O3116659   3.995   2.568  19.380
  141DOPC   C3116660   3.925   2.593  19.707
  141DOPC   O3216661   3.967   2.572  20.046
  141DOPC   C3216662   3.783   2.637  19.611
  141DOPC   H2X16663   3.731   2.645  19.905
  141DOPC   H2Y16664   3.783   2.739  19.479
  141DOPC   C2316665   4.230   2.985  18.531
  141DOPC   H3R16666   4.334   3.021  18.486
  141DOPC   H3S16667   4.191   3.031  18.813
  141DOPC   C2416668   4.138   3.019  18.189
  141DOPC   H4R16669   4.041   2.968  18.246
  141DOPC   H4S16670   4.178   2.978  17.904
  141DOPC   C2516671   4.105   3.167  18.150
  141DOPC   H5R16672   4.197   3.222  18.063
  141DOPC   H5S16673   4.071   3.205  18.444
  141DOPC   C2616674   3.993   3.184  17.841
  141DOPC   H6R16675   3.949   3.285  17.874
  141DOPC   H6S16676   3.913   3.108  17.895
  141DOPC   C2716677   4.042   3.167  17.406
  141DOPC   H7R16678   4.071   3.063  17.334
  141DOPC   H7S16679   4.136   3.222  17.388
  141DOPC   C2816680   3.951   3.232  17.094
  141DOPC   H8R16681   4.003   3.237  16.800
  141DOPC   H8S16682   3.928   3.337  17.184
  141DOPC   C2916683   3.829   3.146  17.088
  141DOPC   H9R16684   3.766   3.153  17.361
  141DOPC  C21016685   3.797   3.060  16.797
  141DOPC  H10R16686   3.706   2.998  16.833
  141DOPC  C21116687   3.877   3.035  16.419
  141DOPC  H11R16688   3.884   3.131  16.254
  141DOPC  H11S16689   3.819   2.966  16.224
  141DOPC  C21216690   4.022   2.978  16.446
  141DOPC  H12R16691   4.089   3.051  16.596
  141DOPC  H12S16692   4.057   2.967  16.128
  141DOPC  C21316693   4.034   2.842  16.659
  141DOPC  H13R16694   3.967   2.771  16.509
  141DOPC  H13S16695   3.997   2.858  16.968
  141DOPC  C21416696   4.170   2.771  16.689
  141DOPC  H14R16697   4.156   2.664  16.758
  141DOPC  H14S16698   4.225   2.816  16.947
  141DOPC  C21516699   4.256   2.783  16.311
  141DOPC  H15R16700   4.361   2.752  16.368
  141DOPC  H15S16701   4.252   2.889  16.224
  141DOPC  C21616702   4.219   2.711  15.930
  141DOPC  H16R16703   4.114   2.734  15.867
  141DOPC  H16S16704   4.233   2.603  15.987
  141DOPC  C21716705   4.312   2.748  15.582
  141DOPC  H17R16706   4.265   2.714  15.300
  141DOPC  H17S16707   4.405   2.688  15.615
  141DOPC  C21816708   4.358   2.893  15.534
  141DOPC  H18R16709   4.271   2.961  15.504
  141DOPC  H18S16710   4.424   2.902  15.267
  141DOPC  H18T16711   4.417   2.924  15.798
  141DOPC   C3316712   3.705   2.533  19.353
  141DOPC   H3X16713   3.596   2.553  19.380
  141DOPC   H3Y16714   3.726   2.432  19.476
  141DOPC   C3416715   3.740   2.530  18.906
  141DOPC   H4X16716   3.657   2.481  18.735
  141DOPC   H4Y16717   3.832   2.470  18.855
  141DOPC   C3516718   3.764   2.670  18.735
  141DOPC   H5X16719   3.864   2.706  18.834
  141DOPC   H5Y16720   3.688   2.741  18.858
  141DOPC   C3616721   3.757   2.675  18.282
  141DOPC   H6X16722   3.831   2.604  18.156
  141DOPC   H6Y16723   3.656   2.644  18.177
  141DOPC   C3716724   3.786   2.817  18.138
  141DOPC   H7X16725   3.724   2.890  18.312
  141DOPC   H7Y16726   3.892   2.839  18.213
  141DOPC   C3816727   3.761   2.837  17.691
  141DOPC   H8X16728   3.788   2.942  17.613
  141DOPC   H8Y16729   3.653   2.824  17.628
  141DOPC   C3916730   3.849   2.741  17.466
  141DOPC   H9X16731   3.955   2.745  17.556
  141DOPC  C31016732   3.814   2.655  17.175
  141DOPC  H10X16733   3.891   2.590  17.046
  141DOPC  C31116734   3.676   2.635  17.007
  141DOPC  H11X16735   3.598   2.685  17.187
  141DOPC  H11Y16736   3.656   2.527  17.037
  141DOPC  C31216737   3.660   2.680  16.563
  141DOPC  H12X16738   3.667   2.791  16.548
  141DOPC  H12Y16739   3.557   2.653  16.467
  141DOPC  C31316740   3.759   2.619  16.257
  141DOPC  H13X16741   3.830   2.698  16.170
  141DOPC  H13Y16742   3.816   2.538  16.407
  141DOPC  C31416743   3.692   2.568  15.873
  141DOPC  H14X16744   3.621   2.490  15.960
  141DOPC  H14Y16745   3.636   2.651  15.735
  141DOPC  C31516746   3.773   2.494  15.546
  141DOPC  H15X16747   3.701   2.485  15.291
  141DOPC  H15Y16748   3.794   2.389  15.636
  141DOPC  C31616749   3.901   2.560  15.393
  141DOPC  H16X16750   3.987   2.531  15.585
  141DOPC  H16Y16751   3.925   2.518  15.093
  141DOPC  C31716752   3.894   2.713  15.366
  141DOPC  H17X16753   3.790   2.745  15.309
  141DOPC  H17Y16754   3.923   2.755  15.660
  141DOPC  C31816755   3.985   2.771  15.042
  141DOPC  H18X16756   3.939   2.757  14.739
  141DOPC  H18Y16757   4.002   2.879  15.093
  141DOPC  H18Z16758   4.083   2.719  15.045
  142DOPC     N16759   4.441   3.283  20.979
  142DOPC   C1216760   4.491   3.301  20.550
  142DOPC  H12A16761   4.503   3.406  20.481
  142DOPC  H12B16762   4.419   3.263  20.337
  142DOPC   C1316763   4.318   3.363  21.069
  142DOPC  H13A16764   4.242   3.355  20.835
  142DOPC  H13B16765   4.271   3.334  21.348
  142DOPC  H13C16766   4.340   3.469  21.105
  142DOPC   C1416767   4.547   3.330  21.258
  142DOPC  H14A16768   4.640   3.275  21.216
  142DOPC  H14B16769   4.573   3.434  21.204
  142DOPC  H14C16770   4.519   3.325  21.573
  142DOPC   C1516771   4.415   3.137  21.036
  142DOPC  H15A16772   4.339   3.102  20.826
  142DOPC  H15B16773   4.384   3.112  21.336
  142DOPC  H15C16774   4.507   3.082  20.970
  142DOPC   C1116775   4.628   3.244  20.442
  142DOPC  H11A16776   4.635   3.139  20.550
  142DOPC  H11B16777   4.642   3.244  20.109
  142DOPC     P16778   4.871   3.276  20.646
  142DOPC   O1316779   4.859   3.130  20.715
  142DOPC   O1416780   4.939   3.360  20.946
  142DOPC   O1216781   4.723   3.332  20.616
  142DOPC   O1116782   4.920   3.317  20.205
  142DOPC    C116783   4.931   3.460  20.166
  142DOPC    HA16784   5.029   3.493  20.292
  142DOPC    HB16785   4.852   3.518  20.331
  142DOPC    C216786   4.926   3.503  19.722
  142DOPC    HS16787   4.950   3.612  19.713
  142DOPC   O2116788   4.799   3.485  19.536
  142DOPC   C2116789   4.696   3.546  19.683
  142DOPC   O2216790   4.692   3.632  19.938
  142DOPC   C2216791   4.578   3.487  19.458
  142DOPC   H2R16792   4.486   3.543  19.524
  142DOPC   H2S16793   4.569   3.381  19.563
  142DOPC    C316794   5.030   3.424  19.473
  142DOPC    HX16795   4.990   3.322  19.410
  142DOPC    HY16796   5.122   3.413  19.662
  142DOPC   O3116797   5.061   3.500  19.116
  142DOPC   C3116798   5.045   3.449  18.750
  142DOPC   O3216799   5.027   3.333  18.663
  142DOPC   C3216800   5.067   3.568  18.459
  142DOPC   H2X16801   5.053   3.660  18.639
  142DOPC   H2Y16802   5.174   3.565  18.375
  142DOPC   C2316803   4.594   3.489  19.002
  142DOPC   H3R16804   4.692   3.443  18.909
  142DOPC   H3S16805   4.592   3.594  18.888
  142DOPC   C2416806   4.482   3.407  18.819
  142DOPC   H4R16807   4.461   3.449  18.519
  142DOPC   H4S16808   4.390   3.415  19.005
  142DOPC   C2516809   4.524   3.261  18.771
  142DOPC   H5R16810   4.436   3.194  18.768
  142DOPC   H5S16811   4.592   3.231  19.017
  142DOPC   C2616812   4.596   3.251  18.372
  142DOPC   H6R16813   4.654   3.344  18.309
  142DOPC   H6S16814   4.515   3.238  18.156
  142DOPC   C2716815   4.686   3.131  18.306
  142DOPC   H7R16816   4.632   3.040  18.399
  142DOPC   H7S16817   4.775   3.144  18.504
  142DOPC   C2816818   4.728   3.127  17.862
  142DOPC   H8R16819   4.759   3.228  17.760
  142DOPC   H8S16820   4.640   3.095  17.682
  142DOPC   C2916821   4.839   3.030  17.814
  142DOPC   H9R16822   4.810   2.936  17.943
  142DOPC  C21016823   4.967   3.044  17.709
  142DOPC  H10R16824   5.032   2.956  17.712
  142DOPC  C21116825   5.034   3.173  17.613
  142DOPC  H11R16826   5.144   3.158  17.643
  142DOPC  H11S16827   5.007   3.246  17.853
  142DOPC  C21216828   5.006   3.239  17.205
  142DOPC  H12R16829   4.896   3.247  17.151
  142DOPC  H12S16830   5.049   3.182  16.956
  142DOPC  C21316831   5.067   3.379  17.238
  142DOPC  H13R16832   5.172   3.374  17.343
  142DOPC  H13S16833   5.012   3.418  17.496
  142DOPC  C21416834   5.053   3.482  16.905
  142DOPC  H14R16835   5.133   3.559  16.956
  142DOPC  H14S16836   4.956   3.534  16.935
  142DOPC  C21516837   5.060   3.433  16.473
  142DOPC  H15R16838   4.977   3.364  16.404
  142DOPC  H15S16839   5.155   3.378  16.428
  142DOPC  C21616840   5.058   3.555  16.197
  142DOPC  H16R16841   5.088   3.643  16.380
  142DOPC  H16S16842   4.956   3.574  16.080
  142DOPC  C21716843   5.161   3.545  15.858
  142DOPC  H17R16844   5.249   3.486  15.960
  142DOPC  H17S16845   5.200   3.646  15.792
  142DOPC  C21816846   5.102   3.486  15.477
  142DOPC  H18R16847   5.177   3.495  15.231
  142DOPC  H18S16848   5.010   3.542  15.390
  142DOPC  H18T16849   5.077   3.379  15.522
  142DOPC   C3316850   4.980   3.586  18.066
  142DOPC   H3X16851   5.050   3.563  17.820
  142DOPC   H3Y16852   4.959   3.694  18.027
  142DOPC   C3416853   4.845   3.509  18.045
  142DOPC   H4X16854   4.776   3.558  18.261
  142DOPC   H4Y16855   4.863   3.406  18.159
  142DOPC   C3516856   4.766   3.487  17.643
  142DOPC   H5X16857   4.665   3.453  17.730
  142DOPC   H5Y16858   4.811   3.404  17.472
  142DOPC   C3616859   4.750   3.601  17.334
  142DOPC   H6X16860   4.689   3.678  17.475
  142DOPC   H6Y16861   4.848   3.649  17.283
  142DOPC   C3716862   4.681   3.563  16.923
  142DOPC   H7X16863   4.695   3.650  16.722
  142DOPC   H7Y16864   4.743   3.487  16.770
  142DOPC   C3816865   4.523   3.530  16.962
  142DOPC   H8X16866   4.486   3.607  17.157
  142DOPC   H8Y16867   4.530   3.464  17.229
  142DOPC   C3916868   4.388   3.516  16.701
  142DOPC   H9X16869   4.348   3.616  16.635
  142DOPC  C31016870   4.306   3.418  16.527
  142DOPC  H10X16871   4.212   3.459  16.404
  142DOPC  C31116872   4.291   3.261  16.521
  142DOPC  H11X16873   4.216   3.263  16.272
  142DOPC  H11Y16874   4.230   3.225  16.770
  142DOPC  C31216875   4.369   3.130  16.332
  142DOPC  H12X16876   4.411   3.148  16.041
  142DOPC  H12Y16877   4.275   3.074  16.269
  142DOPC  C31316878   4.473   3.024  16.512
  142DOPC  H13X16879   4.486   3.008  16.830
  142DOPC  H13Y16880   4.415   2.933  16.497
  142DOPC  C31416881   4.616   2.988  16.317
  142DOPC  H14X16882   4.650   2.926  16.575
  142DOPC  H14Y16883   4.605   2.925  16.050
  142DOPC  C31516884   4.756   3.064  16.335
  142DOPC  H15X16885   4.804   3.050  16.635
  142DOPC  H15Y16886   4.748   3.173  16.332
  142DOPC  C31616887   4.859   3.051  15.993
  142DOPC  H16X16888   4.900   3.152  15.924
  142DOPC  H16Y16889   4.943   2.992  16.113
  142DOPC  C31716890   4.816   2.981  15.603
  142DOPC  H17X16891   4.909   2.965  15.429
  142DOPC  H17Y16892   4.778   2.882  15.696
  142DOPC  C31816893   4.714   3.044  15.318
  142DOPC  H18X16894   4.698   2.975  15.066
  142DOPC  H18Y16895   4.614   3.057  15.459
  142DOPC  H18Z16896   4.749   3.141  15.198
  143DOPC     N16897   2.540   3.781  21.279
  143DOPC   C1216898   2.675   3.715  21.201
  143DOPC  H12A16899   2.663   3.608  21.237
  143DOPC  H12B16900   2.747   3.747  21.423
  143DOPC   C1316901   2.431   3.694  21.117
  143DOPC  H13A16902   2.333   3.737  21.156
  143DOPC  H13B16903   2.451   3.681  20.799
  143DOPC  H13C16904   2.432   3.596  21.255
  143DOPC   C1416905   2.533   3.916  21.081
  143DOPC  H14A16906   2.606   3.983  21.219
  143DOPC  H14B16907   2.559   3.908  20.763
  143DOPC  H14C16908   2.436   3.962  21.108
  143DOPC   C1516909   2.515   3.800  21.711
  143DOPC  H15A16910   2.431   3.866  21.753
  143DOPC  H15B16911   2.599   3.850  21.852
  143DOPC  H15C16912   2.496   3.706  21.858
  143DOPC   C1116913   2.742   3.739  20.790
  143DOPC  H11A16914   2.755   3.849  20.742
  143DOPC  H11B16915   2.844   3.697  20.793
  143DOPC     P16916   2.650   3.753  20.067
  143DOPC   O1316917   2.777   3.755  19.845
  143DOPC   O1416918   2.589   3.881  20.178
  143DOPC   O1216919   2.668   3.674  20.478
  143DOPC   O1116920   2.545   3.668  19.827
  143DOPC    C116921   2.443   3.596  20.040
  143DOPC    HA16922   2.423   3.636  20.340
  143DOPC    HB16923   2.479   3.492  20.082
  143DOPC    C216924   2.305   3.597  19.824
  143DOPC    HS16925   2.236   3.538  20.016
  143DOPC   O2116926   2.312   3.538  19.437
  143DOPC   C2116927   2.352   3.415  19.422
  143DOPC   O2216928   2.371   3.337  19.695
  143DOPC   C2216929   2.376   3.385  18.978
  143DOPC   H2R16930   2.332   3.466  18.792
  143DOPC   H2S16931   2.323   3.290  18.912
  143DOPC    C316932   2.240   3.739  19.773
  143DOPC    HX16933   2.221   3.778  20.079
  143DOPC    HY16934   2.141   3.725  19.626
  143DOPC   O3116935   2.322   3.834  19.560
  143DOPC   C3116936   2.332   3.818  19.164
  143DOPC   O3216937   2.252   3.759  18.951
  143DOPC   C3216938   2.466   3.875  19.014
  143DOPC   H2X16939   2.539   3.868  19.260
  143DOPC   H2Y16940   2.498   3.806  18.780
  143DOPC   C2316941   2.526   3.367  18.879
  143DOPC   H3R16942   2.539   3.335  18.561
  143DOPC   H3S16943   2.563   3.289  19.083
  143DOPC   C2416944   2.628   3.472  18.990
  143DOPC   H4R16945   2.724   3.418  18.966
  143DOPC   H4S16946   2.617   3.507  19.305
  143DOPC   C2516947   2.640   3.588  18.699
  143DOPC   H5R16948   2.538   3.630  18.675
  143DOPC   H5S16949   2.664   3.547  18.399
  143DOPC   C2616950   2.748   3.685  18.855
  143DOPC   H6R16951   2.835   3.625  18.954
  143DOPC   H6S16952   2.710   3.733  19.134
  143DOPC   C2716953   2.801   3.792  18.564
  143DOPC   H7R16954   2.878   3.851  18.726
  143DOPC   H7S16955   2.718   3.861  18.492
  143DOPC   C2816956   2.865   3.729  18.186
  143DOPC   H8R16957   2.807   3.638  18.111
  143DOPC   H8S16958   2.965   3.692  18.282
  143DOPC   C2916959   2.875   3.815  17.817
  143DOPC   H9R16960   2.938   3.905  17.853
  143DOPC  C21016961   2.815   3.793  17.460
  143DOPC  H10R16962   2.833   3.864  17.214
  143DOPC  C21116963   2.724   3.677  17.352
  143DOPC  H11R16964   2.641   3.668  17.571
  143DOPC  H11S16965   2.780   3.581  17.367
  143DOPC  C21216966   2.664   3.691  16.926
  143DOPC  H12R16967   2.745   3.717  16.710
  143DOPC  H12S16968   2.590   3.773  16.914
  143DOPC  C21316969   2.597   3.562  16.767
  143DOPC  H13R16970   2.500   3.546  16.920
  143DOPC  H13S16971   2.661   3.475  16.839
  143DOPC  C21416972   2.575   3.568  16.311
  143DOPC  H14R16973   2.670   3.600  16.164
  143DOPC  H14S16974   2.498   3.646  16.245
  143DOPC  C21516975   2.532   3.433  16.128
  143DOPC  H15R16976   2.447   3.395  16.308
  143DOPC  H15S16977   2.615   3.359  16.155
  143DOPC  C21616978   2.489   3.446  15.690
  143DOPC  H16R16979   2.436   3.543  15.645
  143DOPC  H16S16980   2.416   3.364  15.621
  143DOPC  C21716981   2.605   3.434  15.390
  143DOPC  H17R16982   2.648   3.332  15.414
  143DOPC  H17S16983   2.685   3.506  15.477
  143DOPC  C21816984   2.563   3.461  14.958
  143DOPC  H18R16985   2.647   3.443  14.751
  143DOPC  H18S16986   2.529   3.566  14.919
  143DOPC  H18T16987   2.478   3.394  14.871
  143DOPC   C3316988   2.468   4.013  18.807
  143DOPC   H3X16989   2.573   4.049  18.798
  143DOPC   H3Y16990   2.412   4.086  18.990
  143DOPC   C3416991   2.416   4.007  18.372
  143DOPC   H4X16992   2.404   4.111  18.258
  143DOPC   H4Y16993   2.313   3.963  18.387
  143DOPC   C3516994   2.505   3.927  18.078
  143DOPC   H5X16995   2.531   3.828  18.204
  143DOPC   H5Y16996   2.599   3.983  18.030
  143DOPC   C3616997   2.443   3.897  17.664
  143DOPC   H6X16998   2.418   3.993  17.523
  143DOPC   H6Y16999   2.519   3.849  17.472
  143DOPC   C3717000   2.321   3.803  17.682
  143DOPC   H7X17001   2.251   3.842  17.913
  143DOPC   H7Y17002   2.268   3.806  17.388
  143DOPC   C3817003   2.356   3.657  17.781
  143DOPC   H8X17004   2.419   3.652  18.057
  143DOPC   H8Y17005   2.419   3.616  17.532
  143DOPC   C3917006   2.226   3.584  17.841
  143DOPC   H9X17007   2.179   3.604  18.135
  143DOPC  C31017008   2.164   3.507  17.571
  143DOPC  H10X17009   2.067   3.462  17.652
  143DOPC  C31117010   2.213   3.478  17.151
  143DOPC  H11X17011   2.229   3.369  17.118
  143DOPC  H11Y17012   2.311   3.523  17.091
  143DOPC  C31217013   2.120   3.525  16.812
  143DOPC  H12X17014   2.121   3.637  16.800
  143DOPC  H12Y17015   2.016   3.492  16.872
  143DOPC  C31317016   2.167   3.468  16.410
  143DOPC  H13X17017   2.268   3.508  16.341
  143DOPC  H13Y17018   2.177   3.358  16.443
  143DOPC  C31417019   2.073   3.495  16.056
  143DOPC  H14X17020   2.095   3.420  15.819
  143DOPC  H14Y17021   1.967   3.479  16.152
  143DOPC  C31517022   2.089   3.634  15.876
  143DOPC  H15X17023   2.195   3.652  15.789
  143DOPC  H15Y17024   2.063   3.710  16.107
  143DOPC  C31617025   2.000   3.651  15.507
  143DOPC  H16X17026   2.042   3.597  15.246
  143DOPC  H16Y17027   1.902   3.604  15.582
  143DOPC  C31717028   1.970   3.796  15.402
  143DOPC  H17X17029   1.974   3.854  15.684
  143DOPC  H17Y17030   2.049   3.837  15.204
  143DOPC  C31817031   1.832   3.812  15.213
  143DOPC  H18X17032   1.821   3.749  14.940
  143DOPC  H18Y17033   1.753   3.785  15.432
  143DOPC  H18Z17034   1.814   3.917  15.123
  144DOPC     N17035   3.176   2.599  20.331
  144DOPC   C1217036   3.302   2.519  20.277
  144DOPC  H12A17037   3.379   2.578  20.136
  144DOPC  H12B17038   3.282   2.435  20.082
  144DOPC   C1317039   3.200   2.690  20.682
  144DOPC  H13A17040   3.226   2.625  20.940
  144DOPC  H13B17041   3.282   2.757  20.637
  144DOPC  H13C17042   3.110   2.740  20.778
  144DOPC   C1417043   3.066   2.506  20.454
  144DOPC  H14A17044   3.038   2.436  20.223
  144DOPC  H14B17045   3.103   2.449  20.712
  144DOPC  H14C17046   2.980   2.559  20.568
  144DOPC   C1517047   3.136   2.677  19.974
  144DOPC  H15A17048   3.053   2.743  20.049
  144DOPC  H15B17049   3.105   2.615  19.725
  144DOPC  H15C17050   3.217   2.740  19.869
  144DOPC   C1117051   3.366   2.463  20.670
  144DOPC  H11A17052   3.419   2.375  20.550
  144DOPC  H11B17053   3.442   2.532  20.796
  144DOPC     P17054   3.298   2.296  21.237
  144DOPC   O1317055   3.168   2.258  21.414
  144DOPC   O1417056   3.408   2.332  21.513
  144DOPC   O1217057   3.273   2.427  20.976
  144DOPC   O1117058   3.347   2.189  20.901
  144DOPC    C117059   3.260   2.169  20.568
  144DOPC    HA17060   3.254   2.259  20.379
  144DOPC    HB17061   3.157   2.147  20.682
  144DOPC    C217062   3.294   2.051  20.283
  144DOPC    HS17063   3.284   1.958  20.466
  144DOPC   O2117064   3.422   2.056  20.079
  144DOPC   C2117065   3.461   1.932  19.965
  144DOPC   O2217066   3.447   1.832  20.169
  144DOPC   C2217067   3.521   1.933  19.548
  144DOPC   H2R17068   3.531   1.829  19.434
  144DOPC   H2S17069   3.623   1.974  19.572
  144DOPC    C317070   3.183   2.055  19.956
  144DOPC    HX17071   3.085   2.049  20.112
  144DOPC    HY17072   3.196   1.964  19.767
  144DOPC   O3117073   3.192   2.180  19.728
  144DOPC   C3117074   3.145   2.168  19.356
  144DOPC   O3217075   3.087   2.069  19.239
  144DOPC   C3217076   3.181   2.291  19.101
  144DOPC   H2X17077   3.147   2.380  19.266
  144DOPC   H2Y17078   3.292   2.293  19.080
  144DOPC   C2317079   3.442   2.018  19.245
  144DOPC   H3R17080   3.519   2.069  19.065
  144DOPC   H3S17081   3.386   2.100  19.383
  144DOPC   C2417082   3.354   1.928  18.984
  144DOPC   H4R17083   3.270   1.885  19.158
  144DOPC   H4S17084   3.417   1.843  18.879
  144DOPC   C2517085   3.298   1.994  18.606
  144DOPC   H5R17086   3.198   2.037  18.660
  144DOPC   H5S17087   3.276   1.911  18.393
  144DOPC   C2617088   3.388   2.100  18.423
  144DOPC   H6R17089   3.495   2.082  18.492
  144DOPC   H6S17090   3.366   2.202  18.534
  144DOPC   C2717091   3.374   2.093  17.973
  144DOPC   H7R17092   3.282   2.144  17.874
  144DOPC   H7S17093   3.360   1.985  17.907
  144DOPC   C2817094   3.499   2.144  17.760
  144DOPC   H8R17095   3.590   2.121  17.934
  144DOPC   H8S17096   3.491   2.255  17.745
  144DOPC   C2917097   3.502   2.074  17.361
  144DOPC   H9R17098   3.562   1.982  17.346
  144DOPC  C21017099   3.437   2.119  17.037
  144DOPC  H10R17100   3.442   2.062  16.755
  144DOPC  C21117101   3.355   2.245  17.037
  144DOPC  H11R17102   3.298   2.261  17.319
  144DOPC  H11S17103   3.280   2.244  16.791
  144DOPC  C21217104   3.455   2.361  16.986
  144DOPC  H12R17105   3.535   2.357  17.217
  144DOPC  H12S17106   3.404   2.458  17.022
  144DOPC  C21317107   3.520   2.357  16.569
  144DOPC  H13R17108   3.559   2.256  16.497
  144DOPC  H13S17109   3.609   2.422  16.554
  144DOPC  C21417110   3.417   2.401  16.263
  144DOPC  H14R17111   3.439   2.500  16.128
  144DOPC  H14S17112   3.321   2.420  16.425
  144DOPC  C21517113   3.394   2.295  15.945
  144DOPC  H15R17114   3.392   2.195  16.092
  144DOPC  H15S17115   3.473   2.294  15.711
  144DOPC  C21617116   3.256   2.320  15.774
  144DOPC  H16R17117   3.192   2.314  16.041
  144DOPC  H16S17118   3.223   2.239  15.576
  144DOPC  C21717119   3.237   2.457  15.576
  144DOPC  H17R17120   3.241   2.538  15.804
  144DOPC  H17S17121   3.135   2.461  15.444
  144DOPC  C21817122   3.342   2.486  15.252
  144DOPC  H18R17123   3.436   2.526  15.387
  144DOPC  H18S17124   3.305   2.559  15.030
  144DOPC  H18T17125   3.368   2.392  15.087
  144DOPC   C3317126   3.124   2.299  18.666
  144DOPC   H3X17127   3.014   2.293  18.657
  144DOPC   H3Y17128   3.159   2.218  18.468
  144DOPC   C3417129   3.167   2.429  18.459
  144DOPC   H4X17130   3.278   2.431  18.447
  144DOPC   H4Y17131   3.132   2.516  18.642
  144DOPC   C3517132   3.114   2.444  18.030
  144DOPC   H5X17133   3.003   2.447  18.027
  144DOPC   H5Y17134   3.146   2.356  17.850
  144DOPC   C3617135   3.171   2.571  17.841
  144DOPC   H6X17136   3.125   2.660  17.982
  144DOPC   H6Y17137   3.280   2.573  17.907
  144DOPC   C3717138   3.155   2.578  17.382
  144DOPC   H7X17139   3.234   2.649  17.277
  144DOPC   H7Y17140   3.178   2.479  17.247
  144DOPC   C3817141   3.017   2.626  17.247
  144DOPC   H8X17142   2.985   2.712  17.439
  144DOPC   H8Y17143   2.943   2.545  17.295
  144DOPC   C3917144   3.025   2.671  16.815
  144DOPC   H9X17145   3.102   2.748  16.758
  144DOPC  C31017146   2.952   2.627  16.506
  144DOPC  H10X17147   2.968   2.670  16.206
  144DOPC  C31117148   2.845   2.521  16.530
  144DOPC  H11X17149   2.780   2.522  16.263
  144DOPC  H11Y17150   2.779   2.541  16.788
  144DOPC  C31217151   2.893   2.377  16.584
  144DOPC  H12X17152   2.806   2.315  16.671
  144DOPC  H12Y17153   2.966   2.373  16.836
  144DOPC  C31317154   2.958   2.319  16.206
  144DOPC  H13X17155   3.013   2.400  16.050
  144DOPC  H13Y17156   3.029   2.239  16.305
  144DOPC  C31417157   2.860   2.253  15.915
  144DOPC  H14X17158   2.788   2.197  16.098
  144DOPC  H14Y17159   2.807   2.333  15.747
  144DOPC  C31517160   2.920   2.153  15.612
  144DOPC  H15X17161   2.960   2.065  15.774
  144DOPC  H15Y17162   3.008   2.201  15.480
  144DOPC  C31617163   2.814   2.112  15.297
  144DOPC  H16X17164   2.729   2.067  15.465
  144DOPC  H16Y17165   2.775   2.204  15.153
  144DOPC  C31717166   2.855   2.013  14.961
  144DOPC  H17X17167   2.929   2.059  14.763
  144DOPC  H17Y17168   2.907   1.925  15.090
  144DOPC  C31817169   2.740   1.968  14.688
  144DOPC  H18X17170   2.667   1.905  14.853
  144DOPC  H18Y17171   2.685   2.056  14.568
  144DOPC  H18Z17172   2.779   1.909  14.430
  145DOPC     N17173   3.935   5.501  21.285
  145DOPC   C1217174   4.029   5.578  21.006
  145DOPC  H12A17175   4.124   5.524  20.991
  145DOPC  H12B17176   4.049   5.676  21.132
  145DOPC   C1317177   3.956   5.355  21.195
  145DOPC  H13A17178   4.062   5.328  21.195
  145DOPC  H13B17179   3.903   5.291  21.396
  145DOPC  H13C17180   3.924   5.337  20.889
  145DOPC   C1417181   3.793   5.537  21.195
  145DOPC  H14A17182   3.779   5.543  20.871
  145DOPC  H14B17183   3.724   5.462  21.309
  145DOPC  H14C17184   3.762   5.631  21.333
  145DOPC   C1517185   3.958   5.528  21.720
  145DOPC  H15A17186   3.949   5.633  21.792
  145DOPC  H15B17187   4.054   5.494  21.831
  145DOPC  H15C17188   3.879   5.480  21.897
  145DOPC   C1117189   3.984   5.596  20.559
  145DOPC  H11A17190   3.899   5.668  20.550
  145DOPC  H11B17191   4.067   5.644  20.385
  145DOPC     P17192   4.052   5.369  20.220
  145DOPC   O1317193   3.975   5.246  20.130
  145DOPC   O1417194   4.159   5.363  20.529
  145DOPC   O1217195   3.943   5.473  20.373
  145DOPC   O1117196   4.107   5.434  19.818
  145DOPC    C117197   4.022   5.506  19.548
  145DOPC    HA17198   3.978   5.595  19.701
  145DOPC    HB17199   3.938   5.442  19.443
  145DOPC    C217200   4.101   5.557  19.173
  145DOPC    HS17201   4.033   5.622  18.993
  145DOPC   O2117202   4.147   5.446  18.936
  145DOPC   C2117203   4.058   5.393  18.693
  145DOPC   O2217204   3.950   5.439  18.603
  145DOPC   C2217205   4.110   5.257  18.555
  145DOPC   H2R17206   4.038   5.181  18.663
  145DOPC   H2S17207   4.208   5.237  18.699
  145DOPC    C317208   4.222   5.646  19.296
  145DOPC    HX17209   4.258   5.611  19.593
  145DOPC    HY17210   4.186   5.751  19.341
  145DOPC   O3117211   4.330   5.634  19.005
  145DOPC   C3117212   4.343   5.733  18.747
  145DOPC   O3217213   4.294   5.844  18.780
  145DOPC   C3217214   4.423   5.685  18.378
  145DOPC   H2X17215   4.531   5.694  18.441
  145DOPC   H2Y17216   4.398   5.578  18.327
  145DOPC   C2317217   4.125   5.244  18.096
  145DOPC   H3R17218   4.030   5.273  17.943
  145DOPC   H3S17219   4.144   5.137  18.018
  145DOPC   C2417220   4.241   5.327  17.931
  145DOPC   H4R17221   4.337   5.290  18.060
  145DOPC   H4S17222   4.231   5.433  18.024
  145DOPC   C2517223   4.251   5.320  17.475
  145DOPC   H5R17224   4.230   5.217  17.364
  145DOPC   H5S17225   4.355   5.346  17.382
  145DOPC   C2617226   4.155   5.420  17.274
  145DOPC   H6R17227   4.171   5.520  17.412
  145DOPC   H6S17228   4.050   5.390  17.331
  145DOPC   C2717229   4.186   5.434  16.830
  145DOPC   H7R17230   4.295   5.443  16.827
  145DOPC   H7S17231   4.148   5.530  16.704
  145DOPC   C2817232   4.143   5.315  16.566
  145DOPC   H8R17233   4.197   5.225  16.683
  145DOPC   H8S17234   4.184   5.331  16.257
  145DOPC   C2917235   3.996   5.284  16.536
  145DOPC   H9R17236   3.974   5.179  16.455
  145DOPC  C21017237   3.891   5.365  16.602
  145DOPC  H10R17238   3.791   5.322  16.545
  145DOPC  C21117239   3.890   5.511  16.719
  145DOPC  H11R17240   3.961   5.568  16.527
  145DOPC  H11S17241   3.924   5.523  17.037
  145DOPC  C21217242   3.754   5.581  16.692
  145DOPC  H12R17243   3.768   5.687  16.782
  145DOPC  H12S17244   3.684   5.536  16.914
  145DOPC  C21317245   3.691   5.578  16.272
  145DOPC  H13R17246   3.589   5.619  16.296
  145DOPC  H13S17247   3.684   5.472  16.170
  145DOPC  C21417248   3.770   5.658  15.960
  145DOPC  H14R17249   3.867   5.608  15.924
  145DOPC  H14S17250   3.788   5.761  16.077
  145DOPC  C21517251   3.705   5.667  15.543
  145DOPC  H15R17252   3.777   5.717  15.333
  145DOPC  H15S17253   3.616   5.734  15.564
  145DOPC  C21617254   3.664   5.531  15.366
  145DOPC  H16R17255   3.613   5.549  15.072
  145DOPC  H16S17256   3.594   5.478  15.567
  145DOPC  C21717257   3.779   5.434  15.303
  145DOPC  H17R17258   3.835   5.417  15.588
  145DOPC  H17S17259   3.843   5.487  15.087
  145DOPC  C21817260   3.738   5.300  15.126
  145DOPC  H18R17261   3.651   5.311  14.922
  145DOPC  H18S17262   3.711   5.228  15.369
  145DOPC  H18T17263   3.822   5.257  14.952
  145DOPC   C3317264   4.387   5.766  17.997
  145DOPC   H3X17265   4.447   5.727  17.742
  145DOPC   H3Y17266   4.412   5.873  18.039
  145DOPC   C3417267   4.238   5.750  17.904
  145DOPC   H4X17268   4.179   5.793  18.156
  145DOPC   H4Y17269   4.214   5.641  17.892
  145DOPC   C3517270   4.182   5.816  17.523
  145DOPC   H5X17271   4.224   5.769  17.247
  145DOPC   H5Y17272   4.210   5.924  17.523
  145DOPC   C3617273   4.029   5.800  17.532
  145DOPC   H6X17274   4.004   5.692  17.550
  145DOPC   H6Y17275   3.991   5.848  17.808
  145DOPC   C3717276   3.957   5.862  17.172
  145DOPC   H7X17277   3.994   5.812  16.896
  145DOPC   H7Y17278   3.848   5.840  17.199
  145DOPC   C3817279   3.977   6.014  17.154
  145DOPC   H8X17280   4.086   6.032  17.106
  145DOPC   H8Y17281   3.955   6.055  17.457
  145DOPC   C3917282   3.896   6.087  16.845
  145DOPC   H9X17283   3.797   6.121  16.944
  145DOPC  C31017284   3.933   6.109  16.464
  145DOPC  H10X17285   3.866   6.162  16.257
  145DOPC  C31117286   4.063   6.063  16.284
  145DOPC  H11X17287   4.144   6.046  16.509
  145DOPC  H11Y17288   4.102   6.134  16.056
  145DOPC  C31217289   4.025   5.930  16.089
  145DOPC  H12X17290   3.950   5.946  15.846
  145DOPC  H12Y17291   3.980   5.860  16.308
  145DOPC  C31317292   4.143   5.858  15.903
  145DOPC  H13X17293   4.191   5.926  15.681
  145DOPC  H13Y17294   4.218   5.832  16.140
  145DOPC  C31417295   4.091   5.731  15.711
  145DOPC  H14X17296   4.052   5.666  15.954
  145DOPC  H14Y17297   4.011   5.752  15.489
  145DOPC  C31517298   4.203   5.656  15.510
  145DOPC  H15X17299   4.292   5.682  15.690
  145DOPC  H15Y17300   4.214   5.704  15.213
  145DOPC  C31617301   4.191   5.502  15.513
  145DOPC  H16X17302   4.293   5.458  15.537
  145DOPC  H16Y17303   4.136   5.471  15.786
  145DOPC  C31717304   4.125   5.442  15.141
  145DOPC  H17X17305   4.027   5.490  15.132
  145DOPC  H17Y17306   4.174   5.471  14.853
  145DOPC  C31817307   4.112   5.289  15.147
  145DOPC  H18X17308   4.067   5.255  15.432
  145DOPC  H18Y17309   4.048   5.254  14.895
  145DOPC  H18Z17310   4.212   5.242  15.114
  146DOPC     N17311   5.366   2.709  21.129
  146DOPC   C1217312   5.484   2.740  20.850
  146DOPC  H12A17313   5.486   2.665  20.616
  146DOPC  H12B17314   5.575   2.734  21.021
  146DOPC   C1317315   5.404   2.607  21.435
  146DOPC  H13A17316   5.476   2.650  21.642
  146DOPC  H13B17317   5.315   2.575  21.597
  146DOPC  H13C17318   5.446   2.519  21.297
  146DOPC   C1417319   5.245   2.663  20.901
  146DOPC  H14A17320   5.204   2.744  20.718
  146DOPC  H14B17321   5.266   2.580  20.700
  146DOPC  H14C17322   5.165   2.627  21.099
  146DOPC   C1517323   5.329   2.837  21.336
  146DOPC  H15A17324   5.411   2.880  21.501
  146DOPC  H15B17325   5.245   2.822  21.531
  146DOPC  H15C17326   5.301   2.913  21.114
  146DOPC   C1117327   5.481   2.877  20.637
  146DOPC  H11A17328   5.496   2.960  20.856
  146DOPC  H11B17329   5.564   2.884  20.412
  146DOPC     P17330   5.278   3.017  20.358
  146DOPC   O1317331   5.304   3.114  20.679
  146DOPC   O1417332   5.140   2.973  20.280
  146DOPC   O1217333   5.358   2.884  20.436
  146DOPC   O1117334   5.347   3.056  19.938
  146DOPC    C117335   5.316   2.963  19.614
  146DOPC    HA17336   5.221   2.995  19.467
  146DOPC    HB17337   5.300   2.858  19.725
  146DOPC    C217338   5.425   2.948  19.278
  146DOPC    HS17339   5.523   2.936  19.434
  146DOPC   O2117340   5.423   3.066  19.029
  146DOPC   C2117341   5.527   3.085  18.795
  146DOPC   O2217342   5.627   3.015  18.774
  146DOPC   C2217343   5.503   3.213  18.555
  146DOPC   H2R17344   5.501   3.298  18.771
  146DOPC   H2S17345   5.404   3.204  18.411
  146DOPC    C317346   5.399   2.819  19.023
  146DOPC    HX17347   5.317   2.845  18.810
  146DOPC    HY17348   5.360   2.739  19.224
  146DOPC   O3117349   5.518   2.769  18.828
  146DOPC   C3117350   5.501   2.715  18.468
  146DOPC   O3217351   5.394   2.693  18.309
  146DOPC   C3217352   5.639   2.683  18.288
  146DOPC   H2X17353   5.716   2.744  18.447
  146DOPC   H2Y17354   5.660   2.576  18.345
  146DOPC   C2317355   5.614   3.233  18.243
  146DOPC   H3R17356   5.649   3.135  18.120
  146DOPC   H3S17357   5.701   3.280  18.393
  146DOPC   C2417358   5.573   3.319  17.892
  146DOPC   H4R17359   5.663   3.364  17.751
  146DOPC   H4S17360   5.507   3.402  17.997
  146DOPC   C2517361   5.503   3.234  17.574
  146DOPC   H5R17362   5.412   3.188  17.709
  146DOPC   H5S17363   5.571   3.152  17.481
  146DOPC   C2617364   5.465   3.317  17.208
  146DOPC   H6R17365   5.553   3.339  17.016
  146DOPC   H6S17366   5.425   3.415  17.322
  146DOPC   C2717367   5.352   3.252  16.968
  146DOPC   H7R17368   5.303   3.336  16.806
  146DOPC   H7S17369   5.282   3.210  17.193
  146DOPC   C2817370   5.387   3.142  16.668
  146DOPC   H8R17371   5.441   3.060  16.821
  146DOPC   H8S17372   5.452   3.182  16.428
  146DOPC   C2917373   5.253   3.097  16.506
  146DOPC   H9R17374   5.202   3.171  16.317
  146DOPC  C21017375   5.194   2.978  16.569
  146DOPC  H10R17376   5.094   2.961  16.449
  146DOPC  C21117377   5.247   2.864  16.815
  146DOPC  H11R17378   5.166   2.809  16.971
  146DOPC  H11S17379   5.319   2.898  17.049
  146DOPC  C21217380   5.320   2.774  16.509
  146DOPC  H12R17381   5.395   2.838  16.350
  146DOPC  H12S17382   5.249   2.735  16.281
  146DOPC  C21317383   5.400   2.656  16.680
  146DOPC  H13R17384   5.336   2.566  16.701
  146DOPC  H13S17385   5.432   2.683  16.992
  146DOPC  C21417386   5.527   2.628  16.431
  146DOPC  H14R17387   5.586   2.548  16.581
  146DOPC  H14S17388   5.590   2.720  16.434
  146DOPC  C21517389   5.503   2.589  15.987
  146DOPC  H15R17390   5.449   2.671  15.837
  146DOPC  H15S17391   5.437   2.502  15.981
  146DOPC  C21617392   5.637   2.562  15.768
  146DOPC  H16R17393   5.676   2.469  15.903
  146DOPC  H16S17394   5.707   2.645  15.846
  146DOPC  C21717395   5.645   2.544  15.309
  146DOPC  H17R17396   5.615   2.441  15.225
  146DOPC  H17S17397   5.752   2.550  15.216
  146DOPC  C21817398   5.563   2.639  15.048
  146DOPC  H18R17399   5.535   2.590  14.763
  146DOPC  H18S17400   5.619   2.732  14.982
  146DOPC  H18T17401   5.467   2.664  15.201
  146DOPC   C3317402   5.646   2.711  17.832
  146DOPC   H3X17403   5.572   2.648  17.670
  146DOPC   H3Y17404   5.747   2.680  17.727
  146DOPC   C3417405   5.622   2.859  17.724
  146DOPC   H4X17406   5.689   2.924  17.904
  146DOPC   H4Y17407   5.517   2.885  17.796
  146DOPC   C3517408   5.647   2.885  17.277
  146DOPC   H5X17409   5.592   2.975  17.172
  146DOPC   H5Y17410   5.608   2.799  17.103
  146DOPC   C3617411   5.795   2.902  17.184
  146DOPC   H6X17412   5.836   2.995  17.319
  146DOPC   H6Y17413   5.843   2.814  17.328
  146DOPC   C3717414   5.832   2.892  16.743
  146DOPC   H7X17415   5.943   2.877  16.722
  146DOPC   H7Y17416   5.784   2.799  16.626
  146DOPC   C3817417   5.794   3.014  16.491
  146DOPC   H8X17418   5.852   3.103  16.584
  146DOPC   H8Y17419   5.686   3.037  16.530
  146DOPC   C3917420   5.832   2.969  16.077
  146DOPC   H9X17421   5.939   2.952  16.035
  146DOPC  C31017422   5.748   2.939  15.777
  146DOPC  H10X17423   5.790   2.903  15.492
  146DOPC  C31117424   5.598   2.944  15.789
  146DOPC  H11X17425   5.560   3.002  16.047
  146DOPC  H11Y17426   5.558   2.842  15.816
  146DOPC  C31217427   5.544   3.007  15.402
  146DOPC  H12X17428   5.571   2.944  15.138
  146DOPC  H12Y17429   5.593   3.106  15.357
  146DOPC  C31317430   5.392   3.026  15.411
  146DOPC  H13X17431   5.363   3.087  15.678
  146DOPC  H13Y17432   5.361   3.081  15.135
  146DOPC  C31417433   5.319   2.893  15.420
  146DOPC  H14X17434   5.361   2.833  15.171
  146DOPC  H14Y17435   5.339   2.841  15.708
  146DOPC  C31517436   5.168   2.902  15.354
  146DOPC  H15X17437   5.144   2.992  15.171
  146DOPC  H15Y17438   5.116   2.912  15.648
  146DOPC  C31617439   5.118   2.778  15.132
  146DOPC  H16X17440   5.011   2.790  15.054
  146DOPC  H16Y17441   5.175   2.768  14.847
  146DOPC  C31717442   5.138   2.651  15.381
  146DOPC  H17X17443   5.244   2.642  15.480
  146DOPC  H17Y17444   5.077   2.657  15.660
  146DOPC  C31817445   5.105   2.526  15.141
  146DOPC  H18X17446   5.084   2.440  15.342
  146DOPC  H18Y17447   5.019   2.541  14.937
  146DOPC  H18Z17448   5.192   2.505  14.949
  147DOPC     N17449   1.687   3.260  21.051
  147DOPC   C1217450   1.765   3.385  20.928
  147DOPC  H12A17451   1.743   3.465  21.138
  147DOPC  H12B17452   1.732   3.415  20.631
  147DOPC   C1317453   1.668   3.183  20.676
  147DOPC  H13A17454   1.632   3.082  20.712
  147DOPC  H13B17455   1.602   3.231  20.463
  147DOPC  H13C17456   1.766   3.174  20.529
  147DOPC   C1417457   1.560   3.302  21.252
  147DOPC  H14A17458   1.483   3.336  21.045
  147DOPC  H14B17459   1.522   3.228  21.456
  147DOPC  H14C17460   1.583   3.385  21.450
  147DOPC   C1517461   1.774   3.185  21.336
  147DOPC  H15A17462   1.798   3.248  21.594
  147DOPC  H15B17463   1.869   3.163  21.186
  147DOPC  H15C17464   1.733   3.093  21.453
  147DOPC   C1117465   1.919   3.378  20.913
  147DOPC  H11A17466   1.954   3.481  20.826
  147DOPC  H11B17467   1.962   3.361  21.219
  147DOPC     P17468   2.097   3.308  20.394
  147DOPC   O1317469   2.200   3.360  20.670
  147DOPC   O1417470   2.057   3.391  20.046
  147DOPC   O1217471   1.963   3.278  20.643
  147DOPC   O1117472   2.139   3.163  20.247
  147DOPC    C117473   2.029   3.080  20.124
  147DOPC    HA17474   1.950   3.139  19.968
  147DOPC    HB17475   1.984   3.033  20.397
  147DOPC    C217476   2.066   2.964  19.836
  147DOPC    HS17477   2.137   2.896  19.992
  147DOPC   O2117478   2.125   3.011  19.464
  147DOPC   C2117479   2.158   2.917  19.200
  147DOPC   O2217480   2.159   2.797  19.254
  147DOPC   C2217481   2.189   2.985  18.807
  147DOPC   H2R17482   2.216   2.907  18.585
  147DOPC   H2S17483   2.275   3.052  18.858
  147DOPC    C317484   1.934   2.890  19.752
  147DOPC    HX17485   1.894   2.849  20.040
  147DOPC    HY17486   1.960   2.802  19.569
  147DOPC   O3117487   1.841   2.974  19.536
  147DOPC   C3117488   1.732   3.012  19.737
  147DOPC   O3217489   1.708   2.983  20.085
  147DOPC   C3217490   1.637   3.091  19.458
  147DOPC   H2X17491   1.534   3.080  19.581
  147DOPC   H2Y17492   1.664   3.198  19.464
  147DOPC   C2317493   2.070   3.068  18.654
  147DOPC   H3R17494   2.026   3.131  18.894
  147DOPC   H3S17495   1.991   2.997  18.561
  147DOPC   C2417496   2.114   3.160  18.312
  147DOPC   H4R17497   2.204   3.118  18.159
  147DOPC   H4S17498   2.143   3.259  18.438
  147DOPC   C2517499   2.003   3.174  18.003
  147DOPC   H5R17500   2.023   3.257  17.793
  147DOPC   H5S17501   1.909   3.199  18.165
  147DOPC   C2617502   1.983   3.043  17.769
  147DOPC   H6R17503   1.892   3.059  17.598
  147DOPC   H6S17504   1.962   2.959  17.973
  147DOPC   C2717505   2.092   2.998  17.475
  147DOPC   H7R17506   2.049   2.922  17.268
  147DOPC   H7S17507   2.172   2.945  17.649
  147DOPC   C2817508   2.157   3.109  17.223
  147DOPC   H8R17509   2.256   3.071  17.118
  147DOPC   H8S17510   2.182   3.193  17.430
  147DOPC   C2917511   2.076   3.158  16.869
  147DOPC   H9R17512   2.020   3.251  16.926
  147DOPC  C21017513   2.063   3.101  16.503
  147DOPC  H10R17514   2.004   3.154  16.275
  147DOPC  C21117515   2.126   2.972  16.359
  147DOPC  H11R17516   2.045   2.900  16.308
  147DOPC  H11S17517   2.194   2.929  16.587
  147DOPC  C21217518   2.199   2.969  15.954
  147DOPC  H12R17519   2.302   3.004  16.029
  147DOPC  H12S17520   2.157   3.044  15.750
  147DOPC  C21317521   2.215   2.825  15.771
  147DOPC  H13R17522   2.256   2.760  16.014
  147DOPC  H13S17523   2.290   2.834  15.534
  147DOPC  C21417524   2.104   2.748  15.540
  147DOPC  H14R17525   2.033   2.821  15.411
  147DOPC  H14S17526   2.051   2.683  15.759
  147DOPC  C21517527   2.150   2.663  15.174
  147DOPC  H15R17528   2.178   2.561  15.276
  147DOPC  H15S17529   2.241   2.712  15.054
  147DOPC  C21617530   2.053   2.655  14.808
  147DOPC  H16R17531   2.110   2.621  14.544
  147DOPC  H16S17532   2.020   2.758  14.745
  147DOPC  C21717533   1.928   2.566  14.832
  147DOPC  H17R17534   1.889   2.575  15.141
  147DOPC  H17S17535   1.953   2.459  14.775
  147DOPC  C21817536   1.813   2.607  14.550
  147DOPC  H18R17537   1.790   2.714  14.604
  147DOPC  H18S17538   1.721   2.550  14.619
  147DOPC  H18T17539   1.839   2.593  14.229
  147DOPC   C3317540   1.641   3.037  19.023
  147DOPC   H3X17541   1.626   2.927  19.050
  147DOPC   H3Y17542   1.741   3.056  18.885
  147DOPC   C3417543   1.531   3.087  18.738
  147DOPC   H4X17544   1.536   3.196  18.693
  147DOPC   H4Y17545   1.433   3.065  18.885
  147DOPC   C3517546   1.532   3.010  18.336
  147DOPC   H5X17547   1.427   2.999  18.231
  147DOPC   H5Y17548   1.556   2.906  18.414
  147DOPC   C3617549   1.620   3.064  17.985
  147DOPC   H6X17550   1.624   3.175  17.994
  147DOPC   H6Y17551   1.725   3.034  18.033
  147DOPC   C3717552   1.575   3.020  17.559
  147DOPC   H7X17553   1.542   2.914  17.565
  147DOPC   H7Y17554   1.486   3.080  17.466
  147DOPC   C3817555   1.675   3.040  17.214
  147DOPC   H8X17556   1.630   2.999  16.935
  147DOPC   H8Y17557   1.767   2.982  17.232
  147DOPC   C3917558   1.713   3.185  17.178
  147DOPC   H9X17559   1.797   3.221  17.364
  147DOPC  C31017560   1.651   3.267  16.932
  147DOPC  H10X17561   1.681   3.372  16.923
  147DOPC  C31117562   1.538   3.226  16.662
  147DOPC  H11X17563   1.448   3.286  16.731
  147DOPC  H11Y17564   1.500   3.122  16.710
  147DOPC  C31217565   1.577   3.238  16.221
  147DOPC  H12X17566   1.487   3.273  16.050
  147DOPC  H12Y17567   1.597   3.136  16.107
  147DOPC  C31317568   1.697   3.331  16.125
  147DOPC  H13X17569   1.707   3.415  16.335
  147DOPC  H13Y17570   1.791   3.273  16.152
  147DOPC  C31417571   1.680   3.394  15.708
  147DOPC  H14X17572   1.574   3.423  15.663
  147DOPC  H14Y17573   1.745   3.483  15.675
  147DOPC  C31517574   1.719   3.292  15.402
  147DOPC  H15X17575   1.662   3.200  15.465
  147DOPC  H15Y17576   1.823   3.275  15.489
  147DOPC  C31617577   1.701   3.321  14.952
  147DOPC  H16X17578   1.727   3.223  14.811
  147DOPC  H16Y17579   1.594   3.343  14.883
  147DOPC  C31717580   1.796   3.423  14.760
  147DOPC  H17X17581   1.749   3.522  14.730
  147DOPC  H17Y17582   1.882   3.435  14.964
  147DOPC  C31817583   1.846   3.387  14.340
  147DOPC  H18X17584   1.883   3.282  14.328
  147DOPC  H18Y17585   1.765   3.398  14.115
  147DOPC  H18Z17586   1.929   3.455  14.256
  148DOPC     N17587   2.720   5.353  20.211
  148DOPC   C1217588   2.710   5.502  20.307
  148DOPC  H12A17589   2.606   5.535  20.304
  148DOPC  H12B17590   2.759   5.562  20.079
  148DOPC   C1317591   2.862   5.306  20.280
  148DOPC  H13A17592   2.889   5.322  20.592
  148DOPC  H13B17593   2.874   5.201  20.217
  148DOPC  H13C17594   2.933   5.363  20.100
  148DOPC   C1417595   2.684   5.319  19.791
  148DOPC  H14A17596   2.706   5.214  19.740
  148DOPC  H14B17597   2.579   5.335  19.731
  148DOPC  H14C17598   2.744   5.376  19.584
  148DOPC   C1517599   2.631   5.280  20.502
  148DOPC  H15A17600   2.531   5.321  20.502
  148DOPC  H15B17601   2.670   5.299  20.805
  148DOPC  H15C17602   2.632   5.173  20.460
  148DOPC   C1117603   2.769   5.546  20.718
  148DOPC  H11A17604   2.878   5.526  20.721
  148DOPC  H11B17605   2.757   5.656  20.754
  148DOPC     P17606   2.585   5.529  21.279
  148DOPC   O1317607   2.621   5.651  21.507
  148DOPC   O1417608   2.536   5.412  21.507
  148DOPC   O1217609   2.710   5.476  21.039
  148DOPC   O1117610   2.485   5.564  20.925
  148DOPC    C117611   2.418   5.692  20.931
  148DOPC    HA17612   2.445   5.761  21.180
  148DOPC    HB17613   2.309   5.672  20.961
  148DOPC    C217614   2.434   5.769  20.529
  148DOPC    HS17615   2.342   5.834  20.502
  148DOPC   O2117616   2.454   5.671  20.214
  148DOPC   C2117617   2.341   5.650  20.022
  148DOPC   O2217618   2.244   5.723  20.037
  148DOPC   C2217619   2.346   5.523  19.773
  148DOPC   H2R17620   2.241   5.516  19.668
  148DOPC   H2S17621   2.368   5.436  19.965
  148DOPC    C317622   2.547   5.875  20.511
  148DOPC    HX17623   2.646   5.836  20.601
  148DOPC    HY17624   2.520   5.956  20.724
  148DOPC   O3117625   2.548   5.933  20.115
  148DOPC   C3117626   2.608   5.859  19.839
  148DOPC   O3217627   2.695   5.777  19.899
  148DOPC   C3217628   2.533   5.877  19.443
  148DOPC   H2X17629   2.430   5.839  19.497
  148DOPC   H2Y17630   2.525   5.984  19.374
  148DOPC   C2317631   2.428   5.521  19.377
  148DOPC   H3R17632   2.534   5.499  19.434
  148DOPC   H3S17633   2.421   5.622  19.242
  148DOPC   C2417634   2.362   5.425  19.074
  148DOPC   H4R17635   2.298   5.487  18.873
  148DOPC   H4S17636   2.294   5.357  19.239
  148DOPC   C2517637   2.452   5.337  18.810
  148DOPC   H5R17638   2.497   5.256  18.993
  148DOPC   H5S17639   2.534   5.397  18.678
  148DOPC   C2617640   2.370   5.276  18.462
  148DOPC   H6R17641   2.329   5.359  18.276
  148DOPC   H6S17642   2.282   5.224  18.597
  148DOPC   C2717643   2.445   5.176  18.192
  148DOPC   H7R17644   2.388   5.080  18.189
  148DOPC   H7S17645   2.545   5.153  18.318
  148DOPC   C2817646   2.457   5.221  17.748
  148DOPC   H8R17647   2.356   5.241  17.625
  148DOPC   H8S17648   2.501   5.138  17.568
  148DOPC   C2917649   2.546   5.341  17.724
  148DOPC   H9R17650   2.646   5.328  17.853
  148DOPC  C21017651   2.514   5.461  17.574
  148DOPC  H10R17652   2.582   5.544  17.637
  148DOPC  C21117653   2.387   5.511  17.391
  148DOPC  H11R17654   2.382   5.617  17.490
  148DOPC  H11S17655   2.298   5.459  17.511
  148DOPC  C21217656   2.383   5.513  16.929
  148DOPC  H12R17657   2.283   5.548  16.827
  148DOPC  H12S17658   2.397   5.410  16.812
  148DOPC  C21317659   2.490   5.606  16.746
  148DOPC  H13R17660   2.589   5.572  16.854
  148DOPC  H13S17661   2.474   5.710  16.854
  148DOPC  C21417662   2.495   5.604  16.287
  148DOPC  H14R17663   2.485   5.500  16.176
  148DOPC  H14S17664   2.595   5.641  16.182
  148DOPC  C21517665   2.393   5.695  16.083
  148DOPC  H15R17666   2.405   5.801  16.179
  148DOPC  H15S17667   2.291   5.663  16.182
  148DOPC  C21617668   2.402   5.683  15.624
  148DOPC  H16R17669   2.313   5.734  15.510
  148DOPC  H16S17670   2.394   5.576  15.537
  148DOPC  C21717671   2.521   5.748  15.411
  148DOPC  H17R17672   2.505   5.735  15.081
  148DOPC  H17S17673   2.613   5.693  15.486
  148DOPC  C21817674   2.541   5.898  15.489
  148DOPC  H18R17675   2.546   5.920  15.816
  148DOPC  H18S17676   2.457   5.955  15.357
  148DOPC  H18T17677   2.635   5.934  15.348
  148DOPC   C3317678   2.603   5.799  19.107
  148DOPC   H3X17679   2.609   5.693  19.197
  148DOPC   H3Y17680   2.708   5.833  19.077
  148DOPC   C3417681   2.534   5.807  18.693
  148DOPC   H4X17682   2.591   5.879  18.507
  148DOPC   H4Y17683   2.431   5.847  18.717
  148DOPC   C3517684   2.535   5.676  18.459
  148DOPC   H5X17685   2.503   5.697  18.144
  148DOPC   H5Y17686   2.458   5.608  18.582
  148DOPC   C3617687   2.672   5.608  18.459
  148DOPC   H6X17688   2.695   5.569  18.765
  148DOPC   H6Y17689   2.669   5.518  18.261
  148DOPC   C3717690   2.788   5.699  18.330
  148DOPC   H7X17691   2.796   5.786  18.531
  148DOPC   H7Y17692   2.882   5.642  18.360
  148DOPC   C3817693   2.775   5.752  17.901
  148DOPC   H8X17694   2.851   5.831  17.859
  148DOPC   H8Y17695   2.676   5.800  17.859
  148DOPC   C3917696   2.796   5.644  17.601
  148DOPC   H9X17697   2.798   5.540  17.715
  148DOPC  C31017698   2.821   5.666  17.214
  148DOPC  H10X17699   2.837   5.579  17.016
  148DOPC  C31117700   2.833   5.802  17.028
  148DOPC  H11X17701   2.940   5.826  17.007
  148DOPC  H11Y17702   2.787   5.881  17.214
  148DOPC  C31217703   2.773   5.802  16.605
  148DOPC  H12X17704   2.775   5.905  16.485
  148DOPC  H12Y17705   2.665   5.779  16.617
  148DOPC  C31317706   2.847   5.702  16.341
  148DOPC  H13X17707   2.952   5.694  16.458
  148DOPC  H13Y17708   2.801   5.601  16.386
  148DOPC  C31417709   2.855   5.729  15.888
  148DOPC  H14X17710   2.791   5.653  15.741
  148DOPC  H14Y17711   2.819   5.831  15.810
  148DOPC  C31517712   2.999   5.710  15.744
  148DOPC  H15X17713   3.028   5.613  15.879
  148DOPC  H15Y17714   3.061   5.791  15.882
  148DOPC  C31617715   3.028   5.699  15.294
  148DOPC  H16X17716   2.989   5.787  15.132
  148DOPC  H16Y17717   3.138   5.695  15.237
  148DOPC  C31717718   2.959   5.580  15.102
  148DOPC  H17X17719   2.980   5.488  15.279
  148DOPC  H17Y17720   2.850   5.600  15.120
  148DOPC  C31817721   2.998   5.560  14.664
  148DOPC  H18X17722   3.037   5.457  14.613
  148DOPC  H18Y17723   2.908   5.575  14.478
  148DOPC  H18Z17724   3.074   5.633  14.565
  149DOPC     N17725   2.516   1.962  20.355
  149DOPC   C1217726   2.500   1.966  20.808
  149DOPC  H12A17727   2.580   1.909  20.952
  149DOPC  H12B17728   2.407   1.918  20.892
  149DOPC   C1317729   2.412   2.049  20.172
  149DOPC  H13A17730   2.315   2.033  20.307
  149DOPC  H13B17731   2.440   2.153  20.229
  149DOPC  H13C17732   2.406   2.034  19.851
  149DOPC   C1417733   2.509   1.822  20.202
  149DOPC  H14A17734   2.415   1.774  20.265
  149DOPC  H14B17735   2.525   1.814  19.878
  149DOPC  H14C17736   2.588   1.760  20.331
  149DOPC   C1517737   2.649   2.018  20.241
  149DOPC  H15A17738   2.652   2.120  20.352
  149DOPC  H15B17739   2.667   2.018  19.923
  149DOPC  H15C17740   2.728   1.965  20.394
  149DOPC   C1117741   2.506   2.104  21.012
  149DOPC  H11A17742   2.441   2.177  20.853
  149DOPC  H11B17743   2.469   2.092  21.324
  149DOPC     P17744   2.660   2.297  21.201
  149DOPC   O1317745   2.797   2.320  21.345
  149DOPC   O1417746   2.549   2.327  21.477
  149DOPC   O1217747   2.641   2.149  21.027
  149DOPC   O1117748   2.637   2.381  20.808
  149DOPC    C117749   2.715   2.359  20.463
  149DOPC    HA17750   2.751   2.255  20.427
  149DOPC    HB17751   2.804   2.424  20.490
  149DOPC    C217752   2.635   2.408  20.097
  149DOPC    HS17753   2.590   2.502  20.205
  149DOPC   O2117754   2.536   2.314  19.950
  149DOPC   C2117755   2.433   2.379  19.776
  149DOPC   O2217756   2.405   2.495  19.836
  149DOPC   C2217757   2.355   2.287  19.500
  149DOPC   H2R17758   2.258   2.268  19.653
  149DOPC   H2S17759   2.407   2.191  19.455
  149DOPC    C317760   2.733   2.438  19.755
  149DOPC    HX17761   2.806   2.516  19.842
  149DOPC    HY17762   2.670   2.476  19.500
  149DOPC   O3117763   2.803   2.317  19.656
  149DOPC   C3117764   2.825   2.309  19.269
  149DOPC   O3217765   2.836   2.403  19.041
  149DOPC   C3217766   2.827   2.164  19.161
  149DOPC   H2X17767   2.900   2.147  18.912
  149DOPC   H2Y17768   2.857   2.103  19.425
  149DOPC   C2317769   2.326   2.353  19.089
  149DOPC   H3R17770   2.299   2.461  19.122
  149DOPC   H3S17771   2.240   2.299  18.957
  149DOPC   C2417772   2.441   2.346  18.792
  149DOPC   H4R17773   2.482   2.243  18.792
  149DOPC   H4S17774   2.520   2.418  18.885
  149DOPC   C2517775   2.399   2.378  18.360
  149DOPC   H5R17776   2.333   2.468  18.354
  149DOPC   H5S17777   2.341   2.292  18.237
  149DOPC   C2617778   2.524   2.405  18.111
  149DOPC   H6R17779   2.611   2.367  18.285
  149DOPC   H6S17780   2.536   2.514  18.087
  149DOPC   C2717781   2.526   2.343  17.694
  149DOPC   H7R17782   2.463   2.404  17.487
  149DOPC   H7S17783   2.478   2.244  17.715
  149DOPC   C2817784   2.669   2.331  17.520
  149DOPC   H8R17785   2.716   2.431  17.511
  149DOPC   H8S17786   2.658   2.300  17.199
  149DOPC   C2917787   2.763   2.241  17.751
  149DOPC   H9R17788   2.785   2.272  18.060
  149DOPC  C21017789   2.818   2.127  17.616
  149DOPC  H10R17790   2.883   2.067  17.817
  149DOPC  C21117791   2.795   2.067  17.208
  149DOPC  H11R17792   2.704   2.108  17.061
  149DOPC  H11S17793   2.774   1.959  17.247
  149DOPC  C21217794   2.909   2.081  16.905
  149DOPC  H12R17795   2.982   2.159  17.001
  149DOPC  H12S17796   2.864   2.113  16.617
  149DOPC  C21317797   2.979   1.949  16.818
  149DOPC  H13R17798   3.018   1.909  17.106
  149DOPC  H13S17799   3.066   1.970  16.617
  149DOPC  C21417800   2.888   1.843  16.623
  149DOPC  H14R17801   2.802   1.817  16.818
  149DOPC  H14S17802   2.950   1.752  16.593
  149DOPC  C21517803   2.839   1.874  16.200
  149DOPC  H15R17804   2.931   1.885  16.014
  149DOPC  H15S17805   2.782   1.970  16.188
  149DOPC  C21617806   2.754   1.763  16.008
  149DOPC  H16R17807   2.647   1.774  16.092
  149DOPC  H16S17808   2.789   1.663  16.107
  149DOPC  C21717809   2.774   1.772  15.555
  149DOPC  H17R17810   2.884   1.770  15.492
  149DOPC  H17S17811   2.732   1.870  15.468
  149DOPC  C21817812   2.708   1.670  15.291
  149DOPC  H18R17813   2.742   1.679  14.976
  149DOPC  H18S17814   2.599   1.688  15.297
  149DOPC  H18T17815   2.731   1.568  15.399
  149DOPC   C3317816   2.693   2.115  19.011
  149DOPC   H3X17817   2.669   2.171  18.732
  149DOPC   H3Y17818   2.612   2.131  19.236
  149DOPC   C3417819   2.708   1.967  18.924
  149DOPC   H4X17820   2.738   1.914  19.200
  149DOPC   H4Y17821   2.791   1.958  18.699
  149DOPC   C3517822   2.584   1.902  18.753
  149DOPC   H5X17823   2.497   1.933  18.933
  149DOPC   H5Y17824   2.592   1.791  18.762
  149DOPC   C3617825   2.564   1.947  18.321
  149DOPC   H6X17826   2.456   1.954  18.258
  149DOPC   H6Y17827   2.604   2.050  18.279
  149DOPC   C3717828   2.630   1.854  18.012
  149DOPC   H7X17829   2.734   1.888  17.973
  149DOPC   H7Y17830   2.632   1.750  18.132
  149DOPC   C3817831   2.559   1.850  17.604
  149DOPC   H8X17832   2.476   1.777  17.613
  149DOPC   H8Y17833   2.629   1.814  17.367
  149DOPC   C3917834   2.507   1.987  17.520
  149DOPC   H9X17835   2.548   2.066  17.706
  149DOPC  C31017836   2.425   2.024  17.229
  149DOPC  H10X17837   2.386   2.126  17.229
  149DOPC  C31117838   2.371   1.932  16.923
  149DOPC  H11X17839   2.262   1.935  16.962
  149DOPC  H11Y17840   2.409   1.827  16.938
  149DOPC  C31217841   2.393   1.992  16.512
  149DOPC  H12X17842   2.353   1.921  16.284
  149DOPC  H12Y17843   2.502   2.003  16.455
  149DOPC  C31317844   2.319   2.125  16.476
  149DOPC  H13X17845   2.220   2.119  16.629
  149DOPC  H13Y17846   2.376   2.207  16.623
  149DOPC  C31417847   2.296   2.157  16.038
  149DOPC  H14X17848   2.219   2.084  15.930
  149DOPC  H14Y17849   2.255   2.259  16.005
  149DOPC  C31517850   2.425   2.144  15.801
  149DOPC  H15X17851   2.411   2.169  15.480
  149DOPC  H15Y17852   2.459   2.038  15.801
  149DOPC  C31617853   2.537   2.231  15.969
  149DOPC  H16X17854   2.562   2.203  16.281
  149DOPC  H16Y17855   2.623   2.207  15.777
  149DOPC  C31717856   2.514   2.382  15.939
  149DOPC  H17X17857   2.413   2.409  16.044
  149DOPC  H17Y17858   2.587   2.433  16.140
  149DOPC  C31817859   2.537   2.428  15.510
  149DOPC  H18X17860   2.645   2.430  15.435
  149DOPC  H18Y17861   2.488   2.360  15.294
  149DOPC  H18Z17862   2.495   2.529  15.459
  150DOPC     N17863   6.066   4.971  21.384
  150DOPC   C1217864   5.944   5.008  21.144
  150DOPC  H12A17865   5.862   5.027  21.348
  150DOPC  H12B17866   5.919   4.922  20.961
  150DOPC   C1317867   6.161   5.087  21.417
  150DOPC  H13A17868   6.258   5.056  21.531
  150DOPC  H13B17869   6.177   5.132  21.120
  150DOPC  H13C17870   6.121   5.166  21.603
  150DOPC   C1417871   6.138   4.862  21.156
  150DOPC  H14A17872   6.080   4.772  21.117
  150DOPC  H14B17873   6.164   4.896  20.853
  150DOPC  H14C17874   6.234   4.837  21.288
  150DOPC   C1517875   6.034   4.916  21.789
  150DOPC  H15A17876   5.956   4.841  21.780
  150DOPC  H15B17877   6.005   4.995  21.993
  150DOPC  H15C17878   6.125   4.871  21.900
  150DOPC   C1117879   5.949   5.126  20.844
  150DOPC  H11A17880   5.873   5.092  20.625
  150DOPC  H11B17881   5.913   5.221  20.979
  150DOPC     P17882   6.116   5.081  20.247
  150DOPC   O1317883   6.153   4.943  20.343
  150DOPC   O1417884   6.218   5.163  20.040
  150DOPC   O1217885   6.074   5.151  20.652
  150DOPC   O1117886   5.981   5.066  20.007
  150DOPC    C117887   5.938   4.937  19.869
  150DOPC    HA17888   5.843   4.914  20.022
  150DOPC    HB17889   6.004   4.850  19.935
  150DOPC    C217890   5.909   4.935  19.413
  150DOPC    HS17891   5.808   4.889  19.374
  150DOPC   O2117892   6.010   4.857  19.212
  150DOPC   C2117893   5.970   4.820  18.849
  150DOPC   O2217894   5.859   4.837  18.711
  150DOPC   C2217895   6.083   4.746  18.639
  150DOPC   H2R17896   6.112   4.662  18.840
  150DOPC   H2S17897   6.165   4.819  18.612
  150DOPC    C317898   5.901   5.077  19.230
  150DOPC    HX17899   5.815   5.120  19.389
  150DOPC    HY17900   5.872   5.072  18.909
  150DOPC   O3117901   6.011   5.168  19.299
  150DOPC   C3117902   6.103   5.178  19.014
  150DOPC   O3217903   6.115   5.102  18.732
  150DOPC   C3217904   6.185   5.308  19.068
  150DOPC   H2X17905   6.115   5.394  19.089
  150DOPC   H2Y17906   6.240   5.299  19.356
  150DOPC   C2317907   6.038   4.697  18.225
  150DOPC   H3R17908   5.937   4.652  18.267
  150DOPC   H3S17909   6.114   4.628  18.078
  150DOPC   C2417910   6.021   4.811  17.925
  150DOPC   H4R17911   6.112   4.876  17.913
  150DOPC   H4S17912   5.938   4.875  18.024
  150DOPC   C2517913   5.985   4.753  17.514
  150DOPC   H5R17914   5.875   4.760  17.481
  150DOPC   H5S17915   6.004   4.644  17.490
  150DOPC   C2617916   6.055   4.830  17.181
  150DOPC   H6R17917   6.151   4.872  17.289
  150DOPC   H6S17918   5.993   4.917  17.088
  150DOPC   C2717919   6.080   4.743  16.821
  150DOPC   H7R17920   5.994   4.673  16.785
  150DOPC   H7S17921   6.170   4.682  16.884
  150DOPC   C2817922   6.102   4.827  16.446
  150DOPC   H8R17923   6.201   4.878  16.461
  150DOPC   H8S17924   6.024   4.906  16.428
  150DOPC   C2917925   6.094   4.735  16.095
  150DOPC   H9R17926   6.181   4.673  16.035
  150DOPC  C21017927   5.986   4.713  15.873
  150DOPC  H10R17928   5.993   4.630  15.657
  150DOPC  C21117929   5.851   4.776  15.933
  150DOPC  H11R17930   5.828   4.786  16.257
  150DOPC  H11S17931   5.781   4.705  15.801
  150DOPC  C21217932   5.815   4.906  15.723
  150DOPC  H12R17933   5.835   4.893  15.396
  150DOPC  H12S17934   5.883   4.987  15.819
  150DOPC  C21317935   5.666   4.947  15.777
  150DOPC  H13R17936   5.640   4.968  16.095
  150DOPC  H13S17937   5.605   4.859  15.687
  150DOPC  C21417938   5.645   5.070  15.501
  150DOPC  H14R17939   5.695   5.043  15.228
  150DOPC  H14S17940   5.715   5.141  15.615
  150DOPC  C21517941   5.507   5.138  15.402
  150DOPC  H15R17942   5.502   5.241  15.525
  150DOPC  H15S17943   5.444   5.077  15.603
  150DOPC  C21617944   5.423   5.130  14.991
  150DOPC  H16R17945   5.371   5.217  15.093
  150DOPC  H16S17946   5.342   5.062  15.057
  150DOPC  C21717947   5.423   5.205  14.559
  150DOPC  H17R17948   5.514   5.260  14.532
  150DOPC  H17S17949   5.351   5.289  14.544
  150DOPC  C21817950   5.402   5.136  14.145
  150DOPC  H18R17951   5.309   5.170  13.998
  150DOPC  H18S17952   5.404   5.026  14.145
  150DOPC  H18T17953   5.487   5.161  13.944
  150DOPC   C3317954   6.287   5.335  18.726
  150DOPC   H3X17955   6.324   5.240  18.594
  150DOPC   H3Y17956   6.375   5.387  18.861
  150DOPC   C3417957   6.234   5.430  18.402
  150DOPC   H4X17958   6.210   5.527  18.540
  150DOPC   H4Y17959   6.136   5.392  18.294
  150DOPC   C3517960   6.332   5.451  18.048
  150DOPC   H5X17961   6.434   5.471  18.159
  150DOPC   H5Y17962   6.300   5.541  17.877
  150DOPC   C3617963   6.332   5.336  17.748
  150DOPC   H6X17964   6.386   5.371  17.475
  150DOPC   H6Y17965   6.385   5.248  17.871
  150DOPC   C3717966   6.189   5.295  17.637
  150DOPC   H7X17967   6.149   5.228  17.874
  150DOPC   H7Y17968   6.125   5.387  17.640
  150DOPC   C3817969   6.172   5.230  17.226
  150DOPC   H8X17970   6.148   5.311  17.016
  150DOPC   H8Y17971   6.083   5.163  17.241
  150DOPC   C3917972   6.292   5.155  17.079
  150DOPC   H9X17973   6.312   5.063  17.247
  150DOPC  C31017974   6.373   5.191  16.776
  150DOPC  H10X17975   6.453   5.121  16.689
  150DOPC  C31117976   6.363   5.313  16.509
  150DOPC  H11X17977   6.448   5.382  16.566
  150DOPC  H11Y17978   6.269   5.371  16.557
  150DOPC  C31217979   6.367   5.269  16.068
  150DOPC  H12X17980   6.465   5.221  16.008
  150DOPC  H12Y17981   6.360   5.358  15.867
  150DOPC  C31317982   6.255   5.171  15.957
  150DOPC  H13X17983   6.243   5.092  16.188
  150DOPC  H13Y17984   6.158   5.224  15.927
  150DOPC  C31417985   6.287   5.102  15.564
  150DOPC  H14X17986   6.395   5.075  15.555
  150DOPC  H14Y17987   6.228   5.009  15.558
  150DOPC  C31517988   6.249   5.184  15.201
  150DOPC  H15X17989   6.319   5.149  14.961
  150DOPC  H15Y17990   6.268   5.292  15.252
  150DOPC  C31617991   6.104   5.164  15.066
  150DOPC  H16X17992   6.086   5.055  15.018
  150DOPC  H16Y17993   6.033   5.197  15.303
  150DOPC  C31717994   6.078   5.237  14.673
  150DOPC  H17X17995   5.979   5.210  14.550
  150DOPC  H17Y17996   6.073   5.346  14.733
  150DOPC  C31817997   6.183   5.204  14.358
  150DOPC  H18X17998   6.155   5.242  14.058
  150DOPC  H18Y17999   6.282   5.248  14.436
  150DOPC  H18Z18000   6.195   5.094  14.340
  151DOPC     N18001   1.442   3.883  20.832
  151DOPC   C1218002   1.305   3.943  20.913
  151DOPC  H12A18003   1.257   3.970  20.634
  151DOPC  H12B18004   1.315   4.034  21.093
  151DOPC   C1318005   1.438   3.816  20.430
  151DOPC  H13A18006   1.427   3.886  20.187
  151DOPC  H13B18007   1.524   3.754  20.376
  151DOPC  H13C18008   1.349   3.752  20.418
  151DOPC   C1418009   1.469   3.778  21.141
  151DOPC  H14A18010   1.468   3.821  21.441
  151DOPC  H14B18011   1.387   3.706  21.138
  151DOPC  H14C18012   1.562   3.727  21.093
  151DOPC   C1518013   1.549   3.986  20.859
  151DOPC  H15A18014   1.548   4.032  21.156
  151DOPC  H15B18015   1.532   4.064  20.643
  151DOPC  H15C18016   1.647   3.942  20.817
  151DOPC   C1118017   1.204   3.853  21.135
  151DOPC  H11A18018   1.238   3.842  21.453
  151DOPC  H11B18019   1.105   3.904  21.159
  151DOPC     P18020   1.076   3.685  20.652
  151DOPC   O1318021   0.992   3.804  20.601
  151DOPC   O1418022   1.019   3.564  20.838
  151DOPC   O1218023   1.194   3.725  20.943
  151DOPC   O1118024   1.163   3.655  20.265
  151DOPC    C118025   1.240   3.535  20.214
  151DOPC    HA18026   1.222   3.460  20.457
  151DOPC    HB18027   1.348   3.559  20.220
  151DOPC    C218028   1.206   3.464  19.809
  151DOPC    HS18029   1.279   3.381  19.761
  151DOPC   O2118030   1.211   3.554  19.470
  151DOPC   C2118031   1.319   3.627  19.410
  151DOPC   O2218032   1.429   3.614  19.569
  151DOPC   C2218033   1.286   3.729  19.080
  151DOPC   H2R18034   1.182   3.763  19.143
  151DOPC   H2S18035   1.286   3.677  18.789
  151DOPC    C318036   1.064   3.398  19.836
  151DOPC    HX18037   0.991   3.468  19.977
  151DOPC    HY18038   1.075   3.312  20.049
  151DOPC   O3118039   1.021   3.346  19.452
  151DOPC   C3118040   0.959   3.431  19.206
  151DOPC   O3218041   0.906   3.536  19.293
  151DOPC   C3218042   0.976   3.376  18.786
  151DOPC   H2X18043   1.084   3.382  18.735
  151DOPC   H2Y18044   0.948   3.270  18.795
  151DOPC   C2318045   1.378   3.853  19.059
  151DOPC   H3R18046   1.475   3.831  18.909
  151DOPC   H3S18047   1.400   3.886  19.371
  151DOPC   C2418048   1.309   3.972  18.852
  151DOPC   H4R18049   1.347   4.061  19.014
  151DOPC   H4S18050   1.199   3.966  18.894
  151DOPC   C2518051   1.340   3.997  18.408
  151DOPC   H5R18052   1.440   4.044  18.384
  151DOPC   H5S18053   1.267   4.071  18.285
  151DOPC   C2618054   1.337   3.873  18.141
  151DOPC   H6R18055   1.239   3.822  18.171
  151DOPC   H6S18056   1.416   3.802  18.240
  151DOPC   C2718057   1.363   3.913  17.706
  151DOPC   H7R18058   1.447   3.982  17.709
  151DOPC   H7S18059   1.275   3.966  17.574
  151DOPC   C2818060   1.417   3.806  17.430
  151DOPC   H8R18061   1.505   3.756  17.568
  151DOPC   H8S18062   1.449   3.852  17.142
  151DOPC   C2918063   1.306   3.711  17.355
  151DOPC   H9R18064   1.210   3.741  17.478
  151DOPC  C21018065   1.323   3.601  17.139
  151DOPC  H10R18066   1.239   3.532  17.091
  151DOPC  C21118067   1.454   3.565  16.956
  151DOPC  H11R18068   1.498   3.481  17.127
  151DOPC  H11S18069   1.530   3.647  16.956
  151DOPC  C21218070   1.428   3.525  16.524
  151DOPC  H12R18071   1.347   3.449  16.506
  151DOPC  H12S18072   1.519   3.473  16.422
  151DOPC  C21318073   1.410   3.635  16.212
  151DOPC  H13R18074   1.369   3.586  15.936
  151DOPC  H13S18075   1.511   3.674  16.137
  151DOPC  C21418076   1.325   3.758  16.311
  151DOPC  H14R18077   1.379   3.823  16.527
  151DOPC  H14S18078   1.227   3.734  16.452
  151DOPC  C21518079   1.297   3.832  15.921
  151DOPC  H15R18080   1.251   3.758  15.714
  151DOPC  H15S18081   1.394   3.863  15.789
  151DOPC  C21618082   1.203   3.950  15.978
  151DOPC  H16R18083   1.256   4.030  16.143
  151DOPC  H16S18084   1.117   3.916  16.167
  151DOPC  C21718085   1.144   4.004  15.585
  151DOPC  H17R18086   1.226   4.031  15.375
  151DOPC  H17S18087   1.089   4.098  15.651
  151DOPC  C21818088   1.047   3.905  15.387
  151DOPC  H18R18089   1.019   3.938  15.081
  151DOPC  H18S18090   0.956   3.892  15.570
  151DOPC  H18T18091   1.095   3.805  15.351
  151DOPC   C3318092   0.894   3.442  18.444
  151DOPC   H3X18093   0.840   3.533  18.543
  151DOPC   H3Y18094   0.818   3.371  18.327
  151DOPC   C3418095   0.984   3.467  18.087
  151DOPC   H4X18096   0.931   3.457  17.796
  151DOPC   H4Y18097   1.051   3.380  18.087
  151DOPC   C3518098   1.061   3.598  18.129
  151DOPC   H5X18099   1.144   3.599  17.910
  151DOPC   H5Y18100   1.107   3.602  18.432
  151DOPC   C3618101   0.969   3.719  18.072
  151DOPC   H6X18102   0.897   3.722  18.330
  151DOPC   H6Y18103   1.027   3.813  18.078
  151DOPC   C3718104   0.886   3.713  17.685
  151DOPC   H7X18105   0.828   3.619  17.682
  151DOPC   H7Y18106   0.812   3.793  17.697
  151DOPC   C3818107   0.971   3.720  17.301
  151DOPC   H8X18108   1.046   3.639  17.331
  151DOPC   H8Y18109   1.027   3.817  17.307
  151DOPC   C3918110   0.898   3.708  16.911
  151DOPC   H9X18111   0.828   3.790  16.848
  151DOPC  C31018112   0.902   3.604  16.653
  151DOPC  H10X18113   0.837   3.605  16.386
  151DOPC  C31118114   0.982   3.478  16.701
  151DOPC  H11X18115   0.916   3.389  16.683
  151DOPC  H11Y18116   1.031   3.471  17.001
  151DOPC  C31218117   1.093   3.466  16.386
  151DOPC  H12X18118   1.156   3.381  16.494
  151DOPC  H12Y18119   1.158   3.554  16.374
  151DOPC  C31318120   1.047   3.425  15.969
  151DOPC  H13X18121   1.135   3.376  15.822
  151DOPC  H13Y18122   0.968   3.349  16.023
  151DOPC  C31418123   0.996   3.526  15.660
  151DOPC  H14X18124   0.896   3.564  15.750
  151DOPC  H14Y18125   1.064   3.612  15.633
  151DOPC  C31518126   0.982   3.453  15.252
  151DOPC  H15X18127   1.083   3.422  15.147
  151DOPC  H15Y18128   0.939   3.523  15.027
  151DOPC  C31618129   0.892   3.329  15.291
  151DOPC  H16X18130   0.943   3.262  15.507
  151DOPC  H16Y18131   0.796   3.356  15.435
  151DOPC  C31718132   0.863   3.248  14.913
  151DOPC  H17X18133   0.959   3.211  14.793
  151DOPC  H17Y18134   0.800   3.160  14.985
  151DOPC  C31818135   0.800   3.330  14.580
  151DOPC  H18X18136   0.789   3.269  14.304
  151DOPC  H18Y18137   0.701   3.367  14.670
  151DOPC  H18Z18138   0.867   3.416  14.514
  152DOPC     N18139   3.947   1.415  20.622
  152DOPC   C1218140   3.990   1.304  20.343
  152DOPC  H12A18141   4.056   1.343  20.115
  152DOPC  H12B18142   3.902   1.263  20.196
  152DOPC   C1318143   4.062   1.470  20.856
  152DOPC  H13A18144   4.137   1.515  20.667
  152DOPC  H13B18145   4.028   1.545  21.069
  152DOPC  H13C18146   4.106   1.391  21.039
  152DOPC   C1418147   3.850   1.361  20.925
  152DOPC  H14A18148   3.823   1.434  21.147
  152DOPC  H14B18149   3.762   1.321  20.784
  152DOPC  H14C18150   3.899   1.277  21.075
  152DOPC   C1518151   3.882   1.526  20.403
  152DOPC  H15A18152   3.859   1.607  20.607
  152DOPC  H15B18153   3.788   1.493  20.274
  152DOPC  H15C18154   3.944   1.564  20.163
  152DOPC   C1118155   4.062   1.185  20.538
  152DOPC  H11A18156   4.098   1.122  20.280
  152DOPC  H11B18157   4.152   1.223  20.697
  152DOPC     P18158   4.045   0.970  20.925
  152DOPC   O1318159   3.966   0.904  21.243
  152DOPC   O1418160   4.188   1.002  21.012
  152DOPC   O1218161   3.977   1.109  20.805
  152DOPC   O1118162   4.029   0.886  20.517
  152DOPC    C118163   3.909   0.897  20.280
  152DOPC    HA18164   3.896   1.001  20.163
  152DOPC    HB18165   3.820   0.873  20.466
  152DOPC    C218166   3.905   0.803  19.902
  152DOPC    HS18167   3.917   0.699  20.016
  152DOPC   O2118168   4.014   0.835  19.632
  152DOPC   C2118169   4.026   0.759  19.308
  152DOPC   O2218170   3.958   0.662  19.224
  152DOPC   C2218171   4.138   0.812  19.041
  152DOPC   H2R18172   4.224   0.742  19.080
  152DOPC   H2S18173   4.169   0.913  19.137
  152DOPC    C318174   3.768   0.814  19.677
  152DOPC    HX18175   3.685   0.818  19.902
  152DOPC    HY18176   3.750   0.721  19.503
  152DOPC   O3118177   3.768   0.925  19.398
  152DOPC   C3118178   3.683   1.023  19.464
  152DOPC   O3218179   3.600   1.027  19.731
  152DOPC   C3218180   3.706   1.135  19.164
  152DOPC   H2X18181   3.752   1.092  18.888
  152DOPC   H2Y18182   3.609   1.179  19.080
  152DOPC   C2318183   4.091   0.811  18.603
  152DOPC   H3R18184   4.077   0.705  18.513
  152DOPC   H3S18185   4.168   0.854  18.402
  152DOPC   C2418186   3.958   0.885  18.546
  152DOPC   H4R18187   3.965   0.989  18.663
  152DOPC   H4S18188   3.876   0.833  18.711
  152DOPC   C2518189   3.917   0.894  18.105
  152DOPC   H5R18190   3.935   0.797  17.958
  152DOPC   H5S18191   3.989   0.964  17.970
  152DOPC   C2618192   3.774   0.944  18.048
  152DOPC   H6R18193   3.722   0.940  18.342
  152DOPC   H6S18194   3.715   0.881  17.838
  152DOPC   C2718195   3.771   1.085  17.874
  152DOPC   H7R18196   3.803   1.079  17.553
  152DOPC   H7S18197   3.849   1.145  18.033
  152DOPC   C2818198   3.634   1.154  17.895
  152DOPC   H8R18199   3.586   1.130  18.186
  152DOPC   H8S18200   3.569   1.112  17.655
  152DOPC   C2918201   3.653   1.303  17.856
  152DOPC   H9R18202   3.706   1.350  18.111
  152DOPC  C21018203   3.619   1.380  17.544
  152DOPC  H10R18204   3.641   1.488  17.556
  152DOPC  C21118205   3.554   1.335  17.160
  152DOPC  H11R18206   3.510   1.421  16.998
  152DOPC  H11S18207   3.471   1.265  17.226
  152DOPC  C21218208   3.652   1.263  16.875
  152DOPC  H12R18209   3.593   1.227  16.614
  152DOPC  H12S18210   3.696   1.174  17.022
  152DOPC  C21318211   3.766   1.350  16.707
  152DOPC  H13R18212   3.844   1.361  16.941
  152DOPC  H13S18213   3.729   1.450  16.614
  152DOPC  C21418214   3.831   1.279  16.353
  152DOPC  H14R18215   3.752   1.230  16.170
  152DOPC  H14S18216   3.892   1.202  16.500
  152DOPC  C21518217   3.922   1.361  16.083
  152DOPC  H15R18218   4.003   1.296  15.960
  152DOPC  H15S18219   3.971   1.440  16.263
  152DOPC  C21618220   3.841   1.417  15.735
  152DOPC  H16R18221   3.743   1.452  15.849
  152DOPC  H16S18222   3.822   1.337  15.510
  152DOPC  C21718223   3.913   1.532  15.537
  152DOPC  H17R18224   4.001   1.487  15.384
  152DOPC  H17S18225   3.948   1.600  15.780
  152DOPC  C21818226   3.830   1.612  15.237
  152DOPC  H18R18227   3.795   1.546  14.994
  152DOPC  H18S18228   3.891   1.694  15.105
  152DOPC  H18T18229   3.742   1.657  15.390
  152DOPC   C3318230   3.798   1.241  19.356
  152DOPC   H3X18231   3.886   1.191  19.494
  152DOPC   H3Y18232   3.742   1.292  19.599
  152DOPC   C3418233   3.851   1.343  19.050
  152DOPC   H4X18234   3.893   1.430  19.218
  152DOPC   H4Y18235   3.769   1.380  18.855
  152DOPC   C3518236   3.962   1.283  18.792
  152DOPC   H5X18237   3.918   1.210  18.579
  152DOPC   H5Y18238   4.032   1.226  18.987
  152DOPC   C3618239   4.041   1.389  18.561
  152DOPC   H6X18240   3.977   1.432  18.321
  152DOPC   H6Y18241   4.067   1.472  18.771
  152DOPC   C3718242   4.172   1.335  18.378
  152DOPC   H7X18243   4.229   1.422  18.258
  152DOPC   H7Y18244   4.233   1.286  18.615
  152DOPC   C3818245   4.146   1.235  18.039
  152DOPC   H8X18246   4.063   1.276  17.853
  152DOPC   H8Y18247   4.107   1.141  18.171
  152DOPC   C3918248   4.269   1.207  17.787
  152DOPC   H9X18249   4.362   1.196  17.955
  152DOPC  C31018250   4.270   1.191  17.385
  152DOPC  H10X18251   4.363   1.163  17.232
  152DOPC  C31118252   4.146   1.199  17.130
  152DOPC  H11X18253   4.169   1.211  16.806
  152DOPC  H11Y18254   4.084   1.287  17.217
  152DOPC  C31218255   4.060   1.073  17.205
  152DOPC  H12X18256   3.958   1.090  17.085
  152DOPC  H12Y18257   4.046   1.064  17.529
  152DOPC  C31318258   4.117   0.941  17.040
  152DOPC  H13X18259   4.207   0.912  17.214
  152DOPC  H13Y18260   4.041   0.862  17.082
  152DOPC  C31418261   4.155   0.950  16.596
  152DOPC  H14X18262   4.233   1.028  16.563
  152DOPC  H14Y18263   4.199   0.856  16.482
  152DOPC  C31518264   4.036   0.987  16.332
  152DOPC  H15X18265   4.073   1.063  16.116
  152DOPC  H15Y18266   3.956   1.030  16.515
  152DOPC  C31618267   3.969   0.870  16.116
  152DOPC  H16X18268   4.047   0.818  15.942
  152DOPC  H16Y18269   3.935   0.799  16.350
  152DOPC  C31718270   3.850   0.904  15.840
  152DOPC  H17X18271   3.843   0.820  15.621
  152DOPC  H17Y18272   3.756   0.902  16.017
  152DOPC  C31818273   3.858   1.037  15.612
  152DOPC  H18X18274   3.774   1.104  15.696
  152DOPC  H18Y18275   3.953   1.091  15.663
  152DOPC  H18Z18276   3.854   1.022  15.285
  153DOPC     N18277   5.316   6.395  21.261
  153DOPC   C1218278   5.446   6.442  21.060
  153DOPC  H12A18279   5.520   6.467  21.285
  153DOPC  H12B18280   5.429   6.532  20.883
  153DOPC   C1318281   5.330   6.248  21.354
  153DOPC  H13A18282   5.238   6.198  21.423
  153DOPC  H13B18283   5.366   6.201  21.072
  153DOPC  H13C18284   5.405   6.227  21.579
  153DOPC   C1418285   5.206   6.405  20.955
  153DOPC  H14A18286   5.181   6.507  20.880
  153DOPC  H14B18287   5.243   6.359  20.679
  153DOPC  H14C18288   5.118   6.351  21.051
  153DOPC   C1518289   5.289   6.481  21.615
  153DOPC  H15A18290   5.359   6.458  21.855
  153DOPC  H15B18291   5.188   6.474  21.723
  153DOPC  H15C18292   5.304   6.586  21.537
  153DOPC   C1118293   5.517   6.345  20.772
  153DOPC  H11A18294   5.588   6.403  20.580
  153DOPC  H11B18295   5.579   6.275  20.958
  153DOPC     P18296   5.484   6.157  20.274
  153DOPC   O1318297   5.524   6.053  20.565
  153DOPC   O1418298   5.586   6.216  20.010
  153DOPC   O1218299   5.423   6.277  20.523
  153DOPC   O1118300   5.355   6.110  20.034
  153DOPC    C118301   5.363   6.016  19.716
  153DOPC    HA18302   5.261   6.001  19.590
  153DOPC    HB18303   5.395   5.917  19.833
  153DOPC    C218304   5.457   6.060  19.368
  153DOPC    HS18305   5.560   6.076  19.485
  153DOPC   O2118306   5.410   6.181  19.176
  153DOPC   C2118307   5.498   6.241  18.930
  153DOPC   O2218308   5.610   6.201  18.855
  153DOPC   C2218309   5.427   6.362  18.732
  153DOPC   H2R18310   5.416   6.438  18.969
  153DOPC   H2S18311   5.326   6.330  18.636
  153DOPC    C318312   5.464   5.940  19.077
  153DOPC    HX18313   5.487   5.853  19.275
  153DOPC    HY18314   5.549   5.952  18.867
  153DOPC   O3118315   5.338   5.915  18.876
  153DOPC   C3118316   5.308   5.999  18.579
  153DOPC   O3218317   5.381   6.078  18.414
  153DOPC   C3218318   5.169   5.975  18.423
  153DOPC   H2X18319   5.159   5.866  18.426
  153DOPC   H2Y18320   5.097   6.025  18.624
  153DOPC   C2318321   5.494   6.426  18.354
  153DOPC   H3R18322   5.480   6.357  18.096
  153DOPC   H3S18323   5.603   6.437  18.393
  153DOPC   C2418324   5.430   6.563  18.255
  153DOPC   H4R18325   5.453   6.636  18.495
  153DOPC   H4S18326   5.320   6.553  18.264
  153DOPC   C2518327   5.470   6.626  17.850
  153DOPC   H5R18328   5.577   6.656  17.850
  153DOPC   H5S18329   5.409   6.718  17.802
  153DOPC   C2618330   5.444   6.531  17.499
  153DOPC   H6R18331   5.521   6.450  17.508
  153DOPC   H6S18332   5.459   6.584  17.208
  153DOPC   C2718333   5.304   6.469  17.511
  153DOPC   H7R18334   5.229   6.550  17.472
  153DOPC   H7S18335   5.283   6.419  17.802
  153DOPC   C2818336   5.284   6.364  17.184
  153DOPC   H8R18337   5.313   6.414  16.896
  153DOPC   H8S18338   5.177   6.339  17.154
  153DOPC   C2918339   5.366   6.240  17.274
  153DOPC   H9R18340   5.346   6.191  17.565
  153DOPC  C21018341   5.462   6.192  17.037
  153DOPC  H10R18342   5.520   6.103  17.130
  153DOPC  C21118343   5.498   6.258  16.647
  153DOPC  H11R18344   5.599   6.227  16.545
  153DOPC  H11S18345   5.508   6.367  16.698
  153DOPC  C21218346   5.390   6.238  16.320
  153DOPC  H12R18347   5.416   6.302  16.059
  153DOPC  H12S18348   5.291   6.273  16.428
  153DOPC  C21318349   5.372   6.094  16.176
  153DOPC  H13R18350   5.310   6.091  15.900
  153DOPC  H13S18351   5.321   6.033  16.410
  153DOPC  C21418352   5.507   6.031  16.092
  153DOPC  H14R18353   5.579   6.040  16.344
  153DOPC  H14S18354   5.551   6.080  15.822
  153DOPC  C21518355   5.498   5.883  16.017
  153DOPC  H15R18356   5.398   5.854  15.912
  153DOPC  H15S18357   5.522   5.828  16.299
  153DOPC  C21618358   5.597   5.858  15.684
  153DOPC  H16R18359   5.687   5.899  15.837
  153DOPC  H16S18360   5.574   5.927  15.432
  153DOPC  C21718361   5.610   5.714  15.543
  153DOPC  H17R18362   5.707   5.691  15.399
  153DOPC  H17S18363   5.544   5.695  15.285
  153DOPC  C21818364   5.585   5.615  15.879
  153DOPC  H18R18365   5.575   5.512  15.756
  153DOPC  H18S18366   5.493   5.632  16.050
  153DOPC  H18T18367   5.673   5.621  16.083
  153DOPC   C3318368   5.168   6.030  17.985
  153DOPC   H3X18369   5.242   5.971  17.808
  153DOPC   H3Y18370   5.201   6.136  17.985
  153DOPC   C3418371   5.037   6.033  17.748
  153DOPC   H4X18372   4.971   6.114  17.862
  153DOPC   H4Y18373   4.981   5.938  17.760
  153DOPC   C3518374   5.066   6.075  17.313
  153DOPC   H5X18375   5.168   6.053  17.211
  153DOPC   H5Y18376   5.060   6.185  17.301
  153DOPC   C3618377   4.963   6.028  17.007
  153DOPC   H6X18378   4.948   5.918  16.995
  153DOPC   H6Y18379   4.867   6.071  17.106
  153DOPC   C3718380   5.002   6.087  16.602
  153DOPC   H7X18381   4.943   6.180  16.563
  153DOPC   H7Y18382   5.109   6.119  16.614
  153DOPC   C3818383   4.989   5.993  16.242
  153DOPC   H8X18384   5.040   5.901  16.314
  153DOPC   H8Y18385   5.049   6.035  15.993
  153DOPC   C3918386   4.852   5.950  16.125
  153DOPC   H9X18387   4.788   5.914  16.371
  153DOPC  C31018388   4.806   5.942  15.750
  153DOPC  H10X18389   4.710   5.895  15.696
  153DOPC  C31118390   4.884   5.971  15.384
  153DOPC  H11X18391   4.858   5.888  15.180
  153DOPC  H11Y18392   4.991   5.962  15.468
  153DOPC  C31218393   4.876   6.086  15.081
  153DOPC  H12X18394   4.853   6.185  15.210
  153DOPC  H12Y18395   4.797   6.060  14.859
  153DOPC  C31318396   5.017   6.081  14.898
  153DOPC  H13X18397   5.083   6.105  15.153
  153DOPC  H13Y18398   5.049   5.979  14.826
  153DOPC  C31418399   5.047   6.173  14.553
  153DOPC  H14X18400   5.099   6.116  14.310
  153DOPC  H14Y18401   4.952   6.212  14.424
  153DOPC  C31518402   5.130   6.292  14.694
  153DOPC  H15X18403   5.054   6.353  14.859
  153DOPC  H15Y18404   5.166   6.348  14.430
  153DOPC  C31618405   5.252   6.272  14.979
  153DOPC  H16X18406   5.228   6.222  15.261
  153DOPC  H16Y18407   5.329   6.206  14.853
  153DOPC  C31718408   5.311   6.408  15.099
  153DOPC  H17X18409   5.338   6.407  15.423
  153DOPC  H17Y18410   5.405   6.425  14.931
  153DOPC  C31818411   5.217   6.525  15.021
  153DOPC  H18X18412   5.130   6.527  15.225
  153DOPC  H18Y18413   5.276   6.614  15.057
  153DOPC  H18Z18414   5.182   6.532  14.706
  154DOPC     N18415   6.927   3.797  21.198
  154DOPC   C1218416   6.849   3.902  20.964
  154DOPC  H12A18417   6.910   3.989  20.907
  154DOPC  H12B18418   6.765   3.936  21.147
  154DOPC   C1318419   6.982   3.861  21.567
  154DOPC  H13A18420   7.020   3.784  21.768
  154DOPC  H13B18421   7.058   3.935  21.495
  154DOPC  H13C18422   6.904   3.913  21.732
  154DOPC   C1418423   7.037   3.733  20.949
  154DOPC  H14A18424   7.115   3.802  20.853
  154DOPC  H14B18425   7.088   3.650  21.093
  154DOPC  H14C18426   6.997   3.690  20.670
  154DOPC   C1518427   6.835   3.686  21.318
  154DOPC  H15A18428   6.747   3.726  21.459
  154DOPC  H15B18429   6.882   3.615  21.522
  154DOPC  H15C18430   6.801   3.631  21.054
  154DOPC   C1118431   6.781   3.856  20.577
  154DOPC  H11A18432   6.763   3.944  20.382
  154DOPC  H11B18433   6.852   3.789  20.412
  154DOPC     P18434   6.577   3.740  20.286
  154DOPC   O1318435   6.540   3.853  20.022
  154DOPC   O1418436   6.474   3.640  20.397
  154DOPC   O1218437   6.656   3.791  20.673
  154DOPC   O1118438   6.697   3.660  20.097
  154DOPC    C118439   6.747   3.541  20.289
  154DOPC    HA18440   6.673   3.494  20.499
  154DOPC    HB18441   6.839   3.560  20.469
  154DOPC    C218442   6.772   3.437  19.959
  154DOPC    HS18443   6.797   3.341  20.109
  154DOPC   O2118444   6.881   3.463  19.689
  154DOPC   C2118445   6.930   3.584  19.695
  154DOPC   O2218446   6.977   3.643  19.980
  154DOPC   C2218447   6.915   3.644  19.278
  154DOPC   H2R18448   6.955   3.747  19.290
  154DOPC   H2S18449   6.807   3.649  19.218
  154DOPC    C318450   6.636   3.427  19.728
  154DOPC    HX18451   6.564   3.493  19.884
  154DOPC    HY18452   6.585   3.331  19.773
  154DOPC   O3118453   6.644   3.478  19.320
  154DOPC   C3118454   6.548   3.431  19.092
  154DOPC   O3218455   6.492   3.324  19.137
  154DOPC   C3218456   6.505   3.537  18.789
  154DOPC   H2X18457   6.468   3.626  18.957
  154DOPC   H2Y18458   6.589   3.570  18.597
  154DOPC   C2318459   6.987   3.562  18.954
  154DOPC   H3R18460   6.935   3.464  18.918
  154DOPC   H3S18461   7.092   3.540  19.047
  154DOPC   C2418462   6.991   3.638  18.558
  154DOPC   H4R18463   7.020   3.568  18.315
  154DOPC   H4S18464   7.067   3.718  18.579
  154DOPC   C2518465   6.862   3.708  18.435
  154DOPC   H5R18466   6.832   3.786  18.657
  154DOPC   H5S18467   6.780   3.633  18.417
  154DOPC   C2618468   6.885   3.773  18.027
  154DOPC   H6R18469   6.957   3.709  17.853
  154DOPC   H6S18470   6.932   3.873  18.063
  154DOPC   C2718471   6.758   3.782  17.778
  154DOPC   H7R18472   6.687   3.848  17.940
  154DOPC   H7S18473   6.710   3.682  17.760
  154DOPC   C2818474   6.784   3.838  17.352
  154DOPC   H8R18475   6.833   3.937  17.376
  154DOPC   H8S18476   6.683   3.857  17.223
  154DOPC   C2918477   6.857   3.750  17.061
  154DOPC   H9R18478   6.966   3.767  17.028
  154DOPC  C21018479   6.795   3.656  16.848
  154DOPC  H10R18480   6.851   3.597  16.623
  154DOPC  C21118481   6.647   3.629  16.881
  154DOPC  H11R18482   6.588   3.721  16.815
  154DOPC  H11S18483   6.620   3.599  17.193
  154DOPC  C21218484   6.598   3.517  16.599
  154DOPC  H12R18485   6.624   3.544  16.284
  154DOPC  H12S18486   6.488   3.509  16.620
  154DOPC  C21318487   6.660   3.382  16.707
  154DOPC  H13R18488   6.642   3.360  17.028
  154DOPC  H13S18489   6.769   3.391  16.668
  154DOPC  C21418490   6.614   3.264  16.449
  154DOPC  H14R18491   6.507   3.242  16.512
  154DOPC  H14S18492   6.672   3.174  16.542
  154DOPC  C21518493   6.633   3.286  15.996
  154DOPC  H15R18494   6.661   3.188  15.855
  154DOPC  H15S18495   6.716   3.357  15.936
  154DOPC  C21618496   6.504   3.334  15.795
  154DOPC  H16R18497   6.479   3.436  15.906
  154DOPC  H16S18498   6.423   3.265  15.885
  154DOPC  C21718499   6.509   3.338  15.339
  154DOPC  H17R18500   6.534   3.235  15.234
  154DOPC  H17S18501   6.589   3.406  15.240
  154DOPC  C21818502   6.376   3.384  15.159
  154DOPC  H18R18503   6.294   3.319  15.264
  154DOPC  H18S18504   6.379   3.379  14.826
  154DOPC  H18T18505   6.355   3.489  15.246
  154DOPC   C3318506   6.391   3.477  18.540
  154DOPC   H3X18507   6.325   3.411  18.726
  154DOPC   H3Y18508   6.431   3.412  18.294
  154DOPC   C3418509   6.299   3.585  18.387
  154DOPC   H4X18510   6.274   3.657  18.630
  154DOPC   H4Y18511   6.202   3.544  18.291
  154DOPC   C3518512   6.351   3.655  18.015
  154DOPC   H5X18513   6.377   3.578  17.784
  154DOPC   H5Y18514   6.442   3.713  18.087
  154DOPC   C3618515   6.239   3.743  17.856
  154DOPC   H6X18516   6.146   3.684  17.814
  154DOPC   H6Y18517   6.217   3.820  18.087
  154DOPC   C3718518   6.270   3.810  17.457
  154DOPC   H7X18519   6.376   3.843  17.454
  154DOPC   H7Y18520   6.258   3.736  17.211
  154DOPC   C3818521   6.175   3.929  17.406
  154DOPC   H8X18522   6.161   3.976  17.706
  154DOPC   H8Y18523   6.075   3.889  17.319
  154DOPC   C3918524   6.221   4.037  17.127
  154DOPC   H9X18525   6.276   4.118  17.271
  154DOPC  C31018526   6.220   4.032  16.728
  154DOPC  H10X18527   6.256   4.118  16.557
  154DOPC  C31118528   6.172   3.915  16.485
  154DOPC  H11X18529   6.121   3.948  16.206
  154DOPC  H11Y18530   6.101   3.851  16.653
  154DOPC  C31218531   6.297   3.832  16.386
  154DOPC  H12X18532   6.264   3.747  16.197
  154DOPC  H12Y18533   6.342   3.790  16.662
  154DOPC  C31318534   6.408   3.904  16.152
  154DOPC  H13X18535   6.362   3.962  15.903
  154DOPC  H13Y18536   6.463   3.973  16.353
  154DOPC  C31418537   6.502   3.797  15.984
  154DOPC  H14X18538   6.561   3.755  16.230
  154DOPC  H14Y18539   6.437   3.716  15.864
  154DOPC  C31518540   6.598   3.836  15.648
  154DOPC  H15X18541   6.684   3.894  15.771
  154DOPC  H15Y18542   6.545   3.900  15.426
  154DOPC  C31618543   6.645   3.707  15.444
  154DOPC  H16X18544   6.601   3.619  15.597
  154DOPC  H16Y18545   6.603   3.705  15.138
  154DOPC  C31718546   6.796   3.685  15.426
  154DOPC  H17X18547   6.848   3.780  15.354
  154DOPC  H17Y18548   6.829   3.653  15.732
  154DOPC  C31818549   6.832   3.580  15.111
  154DOPC  H18X18550   6.838   3.625  14.808
  154DOPC  H18Y18551   6.929   3.530  15.174
  154DOPC  H18Z18552   6.754   3.501  15.096
  155DOPC     N18553   1.847   1.771  20.427
  155DOPC   C1218554   1.950   1.723  20.733
  155DOPC  H12A18555   2.013   1.805  20.832
  155DOPC  H12B18556   2.019   1.653  20.583
  155DOPC   C1318557   1.735   1.846  20.631
  155DOPC  H13A18558   1.686   1.779  20.841
  155DOPC  H13B18559   1.771   1.931  20.802
  155DOPC  H13C18560   1.662   1.882  20.415
  155DOPC   C1418561   1.795   1.646  20.229
  155DOPC  H14A18562   1.768   1.573  20.460
  155DOPC  H14B18563   1.712   1.662  20.034
  155DOPC  H14C18564   1.875   1.597  20.067
  155DOPC   C1518565   1.907   1.862  20.121
  155DOPC  H15A18566   1.977   1.810  19.932
  155DOPC  H15B18567   1.957   1.947  20.262
  155DOPC  H15C18568   1.829   1.903  19.932
  155DOPC   C1118569   1.897   1.648  21.111
  155DOPC  H11A18570   1.984   1.634  21.318
  155DOPC  H11B18571   1.828   1.716  21.276
  155DOPC     P18572   1.920   1.392  20.955
  155DOPC   O1318573   1.831   1.284  20.802
  155DOPC   O1418574   1.995   1.364  21.333
  155DOPC   O1218575   1.831   1.523  21.027
  155DOPC   O1118576   2.021   1.446  20.616
  155DOPC    C118577   2.073   1.364  20.301
  155DOPC    HA18578   1.994   1.343  20.076
  155DOPC    HB18579   2.107   1.265  20.424
  155DOPC    C218580   2.197   1.428  20.079
  155DOPC    HS18581   2.273   1.449  20.313
  155DOPC   O2118582   2.158   1.551  19.878
  155DOPC   C2118583   2.257   1.629  19.746
  155DOPC   O2218584   2.376   1.605  19.752
  155DOPC   C2218585   2.198   1.768  19.680
  155DOPC   H2R18586   2.215   1.824  19.962
  155DOPC   H2S18587   2.090   1.757  19.620
  155DOPC    C318588   2.263   1.330  19.770
  155DOPC    HX18589   2.289   1.237  19.938
  155DOPC    HY18590   2.360   1.369  19.659
  155DOPC   O3118591   2.172   1.294  19.455
  155DOPC   C3118592   2.182   1.361  19.113
  155DOPC   O3218593   2.258   1.452  19.035
  155DOPC   C3218594   2.076   1.309  18.819
  155DOPC   H2X18595   2.119   1.321  18.513
  155DOPC   H2Y18596   2.057   1.201  18.873
  155DOPC   C2318597   2.260   1.844  19.326
  155DOPC   H3R18598   2.368   1.819  19.287
  155DOPC   H3S18599   2.251   1.954  19.371
  155DOPC   C2418600   2.183   1.810  18.942
  155DOPC   H4R18601   2.078   1.844  18.966
  155DOPC   H4S18602   2.186   1.699  18.906
  155DOPC   C2518603   2.248   1.870  18.573
  155DOPC   H5R18604   2.345   1.818  18.537
  155DOPC   H5S18605   2.265   1.979  18.615
  155DOPC   C2618606   2.169   1.848  18.189
  155DOPC   H6R18607   2.196   1.929  17.976
  155DOPC   H6S18608   2.060   1.853  18.243
  155DOPC   C2718609   2.209   1.714  18.000
  155DOPC   H7R18610   2.199   1.633  18.228
  155DOPC   H7S18611   2.315   1.718  17.913
  155DOPC   C2818612   2.122   1.677  17.637
  155DOPC   H8R18613   2.020   1.677  17.748
  155DOPC   H8S18614   2.147   1.575  17.535
  155DOPC   C2918615   2.115   1.778  17.310
  155DOPC   H9R18616   2.117   1.883  17.406
  155DOPC  C21018617   2.103   1.752  16.917
  155DOPC  H10R18618   2.095   1.836  16.707
  155DOPC  C21118619   2.095   1.617  16.728
  155DOPC  H11R18620   2.005   1.620  16.533
  155DOPC  H11S18621   2.082   1.536  16.953
  155DOPC  C21218622   2.215   1.581  16.470
  155DOPC  H12R18623   2.209   1.473  16.389
  155DOPC  H12S18624   2.307   1.595  16.653
  155DOPC  C21318625   2.220   1.666  16.089
  155DOPC  H13R18626   2.320   1.661  15.948
  155DOPC  H13S18627   2.208   1.772  16.182
  155DOPC  C21418628   2.111   1.634  15.780
  155DOPC  H14R18629   2.085   1.731  15.630
  155DOPC  H14S18630   2.018   1.596  15.921
  155DOPC  C21518631   2.154   1.538  15.441
  155DOPC  H15R18632   2.250   1.579  15.336
  155DOPC  H15S18633   2.080   1.544  15.195
  155DOPC  C21618634   2.169   1.390  15.564
  155DOPC  H16R18635   2.116   1.379  15.852
  155DOPC  H16S18636   2.271   1.357  15.630
  155DOPC  C21718637   2.123   1.282  15.267
  155DOPC  H17R18638   2.014   1.292  15.213
  155DOPC  H17S18639   2.145   1.186  15.426
  155DOPC  C21818640   2.191   1.267  14.859
  155DOPC  H18R18641   2.164   1.351  14.655
  155DOPC  H18S18642   2.156   1.173  14.727
  155DOPC  H18T18643   2.301   1.259  14.889
  155DOPC   C3318644   1.945   1.391  18.843
  155DOPC   H3X18645   1.888   1.367  19.119
  155DOPC   H3Y18646   1.882   1.364  18.579
  155DOPC   C3418647   1.977   1.540  18.831
  155DOPC   H4X18648   2.064   1.553  18.627
  155DOPC   H4Y18649   2.007   1.574  19.137
  155DOPC   C3518650   1.869   1.634  18.669
  155DOPC   H5X18651   1.913   1.737  18.678
  155DOPC   H5Y18652   1.778   1.634  18.861
  155DOPC   C3618653   1.832   1.605  18.234
  155DOPC   H6X18654   1.920   1.569  18.069
  155DOPC   H6Y18655   1.764   1.519  18.216
  155DOPC   C3718656   1.761   1.727  18.057
  155DOPC   H7X18657   1.659   1.708  18.174
  155DOPC   H7Y18658   1.800   1.821  18.192
  155DOPC   C3818659   1.752   1.748  17.601
  155DOPC   H8X18660   1.853   1.742  17.469
  155DOPC   H8Y18661   1.714   1.850  17.535
  155DOPC   C3918662   1.656   1.645  17.451
  155DOPC   H9X18663   1.550   1.661  17.523
  155DOPC  C31018664   1.690   1.537  17.238
  155DOPC  H10X18665   1.614   1.461  17.202
  155DOPC  C31118666   1.828   1.500  17.112
  155DOPC  H11X18667   1.884   1.447  17.352
  155DOPC  H11Y18668   1.881   1.595  17.055
  155DOPC  C31218669   1.828   1.418  16.722
  155DOPC  H12X18670   1.897   1.461  16.497
  155DOPC  H12Y18671   1.728   1.423  16.575
  155DOPC  C31318672   1.873   1.274  16.788
  155DOPC  H13X18673   1.984   1.272  16.836
  155DOPC  H13Y18674   1.829   1.235  17.070
  155DOPC  C31418675   1.835   1.188  16.428
  155DOPC  H14X18676   1.829   1.081  16.515
  155DOPC  H14Y18677   1.734   1.219  16.317
  155DOPC  C31518678   1.934   1.206  16.086
  155DOPC  H15X18679   2.032   1.160  16.173
  155DOPC  H15Y18680   1.948   1.313  16.026
  155DOPC  C31618681   1.885   1.142  15.702
  155DOPC  H16X18682   1.970   1.112  15.513
  155DOPC  H16Y18683   1.849   1.044  15.807
  155DOPC  C31718684   1.775   1.215  15.456
  155DOPC  H17X18685   1.772   1.164  15.159
  155DOPC  H17Y18686   1.681   1.191  15.618
  155DOPC  C31818687   1.763   1.366  15.378
  155DOPC  H18X18688   1.660   1.386  15.258
  155DOPC  H18Y18689   1.772   1.422  15.663
  155DOPC  H18Z18690   1.834   1.405  15.153
  156DOPC     N18691   6.105   5.680  21.009
  156DOPC   C1218692   6.209   5.754  20.754
  156DOPC  H12A18693   6.180   5.745  20.442
  156DOPC  H12B18694   6.305   5.706  20.787
  156DOPC   C1318695   6.119   5.531  20.952
  156DOPC  H13A18696   6.043   5.480  21.123
  156DOPC  H13B18697   6.111   5.499  20.640
  156DOPC  H13C18698   6.215   5.497  21.069
  156DOPC   C1418699   5.966   5.720  20.883
  156DOPC  H14A18700   5.962   5.830  20.853
  156DOPC  H14B18701   5.938   5.678  20.595
  156DOPC  H14C18702   5.892   5.688  21.099
  156DOPC   C1518703   6.126   5.712  21.447
  156DOPC  H15A18704   6.048   5.673  21.642
  156DOPC  H15B18705   6.125   5.820  21.492
  156DOPC  H15C18706   6.220   5.674  21.561
  156DOPC   C1118707   6.228   5.906  20.823
  156DOPC  H11A18708   6.268   5.924  21.129
  156DOPC  H11B18709   6.307   5.943  20.610
  156DOPC     P18710   6.080   6.094  20.478
  156DOPC   O1318711   6.181   6.198  20.571
  156DOPC   O1418712   5.938   6.135  20.496
  156DOPC   O1218713   6.103   5.974  20.781
  156DOPC   O1118714   6.121   6.022  20.070
  156DOPC    C118715   6.035   5.931  19.872
  156DOPC    HA18716   5.971   5.985  19.656
  156DOPC    HB18717   5.968   5.880  20.091
  156DOPC    C218718   6.111   5.818  19.638
  156DOPC    HS18719   6.190   5.777  19.839
  156DOPC   O2118720   6.171   5.868  19.275
  156DOPC   C2118721   6.242   5.779  19.059
  156DOPC   O2218722   6.265   5.664  19.158
  156DOPC   C2218723   6.312   5.852  18.717
  156DOPC   H2R18724   6.417   5.820  18.756
  156DOPC   H2S18725   6.303   5.962  18.759
  156DOPC    C318726   6.007   5.707  19.551
  156DOPC    HX18727   5.978   5.663  19.845
  156DOPC    HY18728   6.054   5.624  19.380
  156DOPC   O3118729   5.888   5.758  19.362
  156DOPC   C3118730   5.885   5.759  18.960
  156DOPC   O3218731   5.972   5.713  18.747
  156DOPC   C3218732   5.751   5.816  18.813
  156DOPC   H2X18733   5.678   5.795  19.056
  156DOPC   H2Y18734   5.766   5.926  18.783
  156DOPC   C2318735   6.285   5.810  18.285
  156DOPC   H3R18736   6.289   5.700  18.276
  156DOPC   H3S18737   6.368   5.847  18.090
  156DOPC   C2418738   6.154   5.858  18.099
  156DOPC   H4R18739   6.167   5.957  17.949
  156DOPC   H4S18740   6.075   5.871  18.330
  156DOPC   C2518741   6.110   5.752  17.793
  156DOPC   H5R18742   6.005   5.769  17.697
  156DOPC   H5S18743   6.112   5.652  17.937
  156DOPC   C2618744   6.200   5.752  17.421
  156DOPC   H6R18745   6.307   5.736  17.502
  156DOPC   H6S18746   6.192   5.853  17.283
  156DOPC   C2718747   6.157   5.643  17.124
  156DOPC   H7R18748   6.046   5.648  17.100
  156DOPC   H7S18749   6.182   5.544  17.253
  156DOPC   C2818750   6.220   5.656  16.707
  156DOPC   H8R18751   6.182   5.574  16.515
  156DOPC   H8S18752   6.330   5.644  16.728
  156DOPC   C2918753   6.184   5.791  16.542
  156DOPC   H9R18754   6.259   5.870  16.581
  156DOPC  C21018755   6.068   5.822  16.365
  156DOPC  H10R18756   6.052   5.923  16.251
  156DOPC  C21118757   5.952   5.731  16.296
  156DOPC  H11R18758   5.859   5.789  16.251
  156DOPC  H11S18759   5.931   5.667  16.557
  156DOPC  C21218760   5.981   5.641  15.930
  156DOPC  H12R18761   5.893   5.579  15.918
  156DOPC  H12S18762   6.067   5.573  15.981
  156DOPC  C21318763   5.994   5.710  15.522
  156DOPC  H13R18764   5.964   5.640  15.282
  156DOPC  H13S18765   6.099   5.735  15.492
  156DOPC  C21418766   5.917   5.840  15.495
  156DOPC  H14R18767   5.960   5.918  15.690
  156DOPC  H14S18768   5.829   5.809  15.657
  156DOPC  C21518769   5.876   5.895  15.084
  156DOPC  H15R18770   5.797   5.829  14.958
  156DOPC  H15S18771   5.961   5.893  14.868
  156DOPC  C21618772   5.823   6.040  15.111
  156DOPC  H16R18773   5.908   6.112  15.078
  156DOPC  H16S18774   5.779   6.056  15.414
  156DOPC  C21718775   5.720   6.072  14.787
  156DOPC  H17R18776   5.635   6.129  14.916
  156DOPC  H17S18777   5.682   5.975  14.673
  156DOPC  C21818778   5.776   6.147  14.430
  156DOPC  H18R18779   5.871   6.100  14.358
  156DOPC  H18S18780   5.793   6.255  14.490
  156DOPC  H18T18781   5.714   6.134  14.160
  156DOPC   C3318782   5.697   5.755  18.414
  156DOPC   H3X18783   5.637   5.664  18.486
  156DOPC   H3Y18784   5.783   5.724  18.225
  156DOPC   C3418785   5.600   5.832  18.135
  156DOPC   H4X18786   5.499   5.844  18.270
  156DOPC   H4Y18787   5.586   5.764  17.874
  156DOPC   C3518788   5.649   5.964  17.958
  156DOPC   H5X18789   5.668   6.037  18.201
  156DOPC   H5Y18790   5.567   6.006  17.769
  156DOPC   C3618791   5.774   5.941  17.703
  156DOPC   H6X18792   5.853   5.899  17.898
  156DOPC   H6Y18793   5.752   5.866  17.463
  156DOPC   C3718794   5.829   6.068  17.508
  156DOPC   H7X18795   5.750   6.116  17.322
  156DOPC   H7Y18796   5.855   6.138  17.757
  156DOPC   C3818797   5.953   6.039  17.253
  156DOPC   H8X18798   5.924   5.977  16.989
  156DOPC   H8Y18799   6.023   5.976  17.430
  156DOPC   C3918800   6.022   6.167  17.145
  156DOPC   H9X18801   6.093   6.205  17.373
  156DOPC  C31018802   6.004   6.238  16.809
  156DOPC  H10X18803   6.056   6.334  16.773
  156DOPC  C31118804   5.910   6.202  16.473
  156DOPC  H11X18805   5.817   6.262  16.506
  156DOPC  H11Y18806   5.878   6.096  16.485
  156DOPC  C31218807   5.972   6.227  16.056
  156DOPC  H12X18808   5.971   6.336  15.990
  156DOPC  H12Y18809   5.904   6.179  15.834
  156DOPC  C31318810   6.117   6.176  16.002
  156DOPC  H13X18811   6.189   6.259  16.056
  156DOPC  H13Y18812   6.138   6.100  16.233
  156DOPC  C31418813   6.146   6.113  15.588
  156DOPC  H14X18814   6.052   6.070  15.480
  156DOPC  H14Y18815   6.174   6.190  15.369
  156DOPC  C31518816   6.251   5.998  15.600
  156DOPC  H15X18817   6.231   5.933  15.861
  156DOPC  H15Y18818   6.352   6.042  15.639
  156DOPC  C31618819   6.251   5.910  15.225
  156DOPC  H16X18820   6.149   5.881  15.135
  156DOPC  H16Y18821   6.284   5.978  14.982
  156DOPC  C31718822   6.344   5.785  15.225
  156DOPC  H17X18823   6.334   5.746  14.913
  156DOPC  H17Y18824   6.448   5.823  15.267
  156DOPC  C31818825   6.326   5.662  15.498
  156DOPC  H18X18826   6.295   5.691  15.807
  156DOPC  H18Y18827   6.250   5.592  15.375
  156DOPC  H18Z18828   6.421   5.604  15.519
  157DOPC     N18829   6.008   1.828  20.823
  157DOPC   C1218830   6.060   1.746  20.469
  157DOPC  H12A18831   6.136   1.801  20.307
  157DOPC  H12B18832   5.977   1.735  20.265
  157DOPC   C1318833   6.086   1.795  21.195
  157DOPC  H13A18834   6.190   1.821  21.162
  157DOPC  H13B18835   6.043   1.845  21.453
  157DOPC  H13C18836   6.079   1.688  21.246
  157DOPC   C1418837   5.865   1.791  20.904
  157DOPC  H14A18838   5.856   1.682  20.919
  157DOPC  H14B18839   5.831   1.835  21.186
  157DOPC  H14C18840   5.798   1.824  20.670
  157DOPC   C1518841   6.014   1.976  20.751
  157DOPC  H15A18842   5.943   2.007  20.520
  157DOPC  H15B18843   6.113   2.008  20.664
  157DOPC  H15C18844   5.985   2.028  21.024
  157DOPC   C1118845   6.112   1.600  20.526
  157DOPC  H11A18846   6.150   1.564  20.229
  157DOPC  H11B18847   6.199   1.599  20.733
  157DOPC     P18848   6.035   1.354  20.691
  157DOPC   O1318849   5.943   1.301  21.003
  157DOPC   O1418850   6.179   1.336  20.760
  157DOPC   O1218851   6.009   1.513  20.667
  157DOPC   O1118852   5.996   1.300  20.253
  157DOPC    C118853   5.903   1.379  20.028
  157DOPC    HA18854   5.938   1.485  19.998
  157DOPC    HB18855   5.805   1.378  20.187
  157DOPC    C218856   5.874   1.331  19.590
  157DOPC    HS18857   5.863   1.221  19.593
  157DOPC   O2118858   5.979   1.370  19.317
  157DOPC   C2118859   5.965   1.338  18.933
  157DOPC   O2218860   5.873   1.280  18.774
  157DOPC   C2218861   6.088   1.391  18.726
  157DOPC   H2R18862   6.172   1.337  18.870
  157DOPC   H2S18863   6.102   1.498  18.795
  157DOPC    C318864   5.741   1.399  19.461
  157DOPC    HX18865   5.668   1.385  19.707
  157DOPC    HY18866   5.700   1.348  19.197
  157DOPC   O3118867   5.766   1.538  19.356
  157DOPC   C3118868   5.712   1.630  19.584
  157DOPC   O3218869   5.635   1.612  19.860
  157DOPC   C3218870   5.766   1.767  19.449
  157DOPC   H2X18871   5.792   1.763  19.128
  157DOPC   H2Y18872   5.685   1.840  19.497
  157DOPC   C2318873   6.081   1.372  18.270
  157DOPC   H3R18874   6.069   1.266  18.177
  157DOPC   H3S18875   6.177   1.413  18.153
  157DOPC   C2418876   5.978   1.461  18.075
  157DOPC   H4R18877   5.968   1.552  18.270
  157DOPC   H4S18878   5.880   1.409  18.066
  157DOPC   C2518879   6.018   1.511  17.658
  157DOPC   H5R18880   6.003   1.432  17.430
  157DOPC   H5S18881   6.126   1.538  17.649
  157DOPC   C2618882   5.937   1.637  17.562
  157DOPC   H6R18883   5.973   1.681  17.277
  157DOPC   H6S18884   5.956   1.712  17.802
  157DOPC   C2718885   5.785   1.609  17.538
  157DOPC   H7R18886   5.729   1.704  17.550
  157DOPC   H7S18887   5.752   1.551  17.805
  157DOPC   C2818888   5.750   1.534  17.145
  157DOPC   H8R18889   5.817   1.447  17.136
  157DOPC   H8S18890   5.779   1.599  16.887
  157DOPC   C2918891   5.607   1.488  17.100
  157DOPC   H9R18892   5.551   1.480  17.385
  157DOPC  C21018893   5.543   1.461  16.752
  157DOPC  H10R18894   5.438   1.429  16.764
  157DOPC  C21118895   5.602   1.470  16.332
  157DOPC  H11R18896   5.706   1.431  16.311
  157DOPC  H11S18897   5.609   1.580  16.275
  157DOPC  C21218898   5.513   1.416  15.990
  157DOPC  H12R18899   5.478   1.506  15.828
  157DOPC  H12S18900   5.424   1.365  16.119
  157DOPC  C21318901   5.560   1.326  15.639
  157DOPC  H13R18902   5.503   1.349  15.360
  157DOPC  H13S18903   5.529   1.222  15.714
  157DOPC  C21418904   5.707   1.321  15.528
  157DOPC  H14R18905   5.773   1.336  15.792
  157DOPC  H14S18906   5.733   1.396  15.297
  157DOPC  C21518907   5.730   1.180  15.363
  157DOPC  H15R18908   5.663   1.162  15.099
  157DOPC  H15S18909   5.703   1.106  15.597
  157DOPC  C21618910   5.873   1.155  15.255
  157DOPC  H16R18911   5.938   1.206  15.480
  157DOPC  H16S18912   5.883   1.208  14.964
  157DOPC  C21718913   5.906   1.006  15.243
  157DOPC  H17R18914   5.831   0.955  15.048
  157DOPC  H17S18915   5.892   0.967  15.552
  157DOPC  C21818916   6.045   0.966  15.102
  157DOPC  H18R18917   6.081   0.882  15.291
  157DOPC  H18S18918   6.122   1.044  15.129
  157DOPC  H18T18919   6.044   0.934  14.784
  157DOPC   C3318920   5.880   1.825  19.707
  157DOPC   H3X18921   5.978   1.782  19.614
  157DOPC   H3Y18922   5.857   1.798  20.022
  157DOPC   C3418923   5.881   1.978  19.686
  157DOPC   H4X18924   5.964   2.017  19.872
  157DOPC   H4Y18925   5.785   2.016  19.821
  157DOPC   C3518926   5.892   2.035  19.263
  157DOPC   H5X18927   5.910   2.144  19.278
  157DOPC   H5Y18928   5.795   2.020  19.104
  157DOPC   C3618929   6.002   1.968  19.011
  157DOPC   H6X18930   6.095   1.961  19.194
  157DOPC   H6Y18931   5.972   1.864  18.930
  157DOPC   C3718932   6.036   2.043  18.624
  157DOPC   H7X18933   6.100   2.127  18.711
  157DOPC   H7Y18934   6.097   1.979  18.423
  157DOPC   C3818935   5.915   2.101  18.396
  157DOPC   H8X18936   5.954   2.178  18.183
  157DOPC   H8Y18937   5.848   2.158  18.600
  157DOPC   C3918938   5.836   1.995  18.183
  157DOPC   H9X18939   5.791   1.917  18.375
  157DOPC  C31018940   5.820   1.986  17.784
  157DOPC  H10X18941   5.757   1.904  17.670
  157DOPC  C31118942   5.877   2.078  17.469
  157DOPC  H11X18943   5.958   2.144  17.583
  157DOPC  H11Y18944   5.797   2.143  17.346
  157DOPC  C31218945   5.935   1.996  17.121
  157DOPC  H12X18946   6.020   1.933  17.223
  157DOPC  H12Y18947   5.974   2.066  16.890
  157DOPC  C31318948   5.827   1.909  16.929
  157DOPC  H13X18949   5.814   1.818  17.109
  157DOPC  H13Y18950   5.731   1.964  16.932
  157DOPC  C31418951   5.857   1.866  16.503
  157DOPC  H14X18952   5.781   1.789  16.413
  157DOPC  H14Y18953   5.847   1.953  16.299
  157DOPC  C31518954   5.994   1.803  16.449
  157DOPC  H15X18955   6.008   1.717  16.656
  157DOPC  H15Y18956   6.074   1.878  16.515
  157DOPC  C31618957   6.004   1.756  16.020
  157DOPC  H16X18958   5.937   1.668  15.975
  157DOPC  H16Y18959   5.963   1.838  15.825
  157DOPC  C31718960   6.146   1.728  15.894
  157DOPC  H17X18961   6.218   1.784  16.083
  157DOPC  H17Y18962   6.167   1.619  15.933
  157DOPC  C31818963   6.167   1.770  15.462
  157DOPC  H18X18964   6.074   1.756  15.282
  157DOPC  H18Y18965   6.196   1.877  15.435
  157DOPC  H18Z18966   6.247   1.708  15.324
  158DOPC     N18967   4.181   7.114  20.862
  158DOPC   C1218968   4.086   7.116  20.505
  158DOPC  H12A18969   4.015   7.033  20.535
  158DOPC  H12B18970   4.141   7.101  20.232
  158DOPC   C1318971   4.254   6.984  20.883
  158DOPC  H13A18972   4.182   6.903  20.904
  158DOPC  H13B18973   4.318   6.967  20.628
  158DOPC  H13C18974   4.317   6.980  21.150
  158DOPC   C1418975   4.100   7.132  21.234
  158DOPC  H14A18976   4.161   7.135  21.501
  158DOPC  H14B18977   4.042   7.224  21.204
  158DOPC  H14C18978   4.024   7.054  21.252
  158DOPC   C1518979   4.281   7.226  20.832
  158DOPC  H15A18980   4.232   7.322  20.850
  158DOPC  H15B18981   4.339   7.222  20.556
  158DOPC  H15C18982   4.355   7.216  21.069
  158DOPC   C1118983   4.001   7.244  20.460
  158DOPC  H11A18984   4.067   7.333  20.448
  158DOPC  H11B18985   3.950   7.238  20.160
  158DOPC     P18986   3.770   7.184  20.766
  158DOPC   O1318987   3.688   7.211  21.129
  158DOPC   O1418988   3.811   7.044  20.682
  158DOPC   O1218989   3.907   7.264  20.781
  158DOPC   O1118990   3.693   7.247  20.394
  158DOPC    C118991   3.726   7.377  20.244
  158DOPC    HA18992   3.830   7.408  20.301
  158DOPC    HB18993   3.663   7.453  20.394
  158DOPC    C218994   3.706   7.385  19.785
  158DOPC    HS18995   3.596   7.389  19.746
  158DOPC   O2118996   3.768   7.273  19.578
  158DOPC   C2118997   3.689   7.219  19.299
  158DOPC   O2218998   3.567   7.227  19.305
  158DOPC   C2218999   3.770   7.159  18.954
  158DOPC   H2R19000   3.864   7.217  18.930
  158DOPC   H2S19001   3.712   7.175  18.675
  158DOPC    C319002   3.763   7.518  19.614
  158DOPC    HX19003   3.713   7.601  19.776
  158DOPC    HY19004   3.730   7.527  19.296
  158DOPC   O3119005   3.907   7.531  19.665
  158DOPC   C3119006   3.979   7.484  19.356
  158DOPC   O3219007   3.932   7.439  19.047
  158DOPC   C3219008   4.129   7.492  19.440
  158DOPC   H2X19009   4.170   7.579  19.275
  158DOPC   H2Y19010   4.145   7.508  19.764
  158DOPC   C2319011   3.805   7.010  19.005
  158DOPC   H3R19012   3.713   6.948  18.978
  158DOPC   H3S19013   3.844   6.994  19.317
  158DOPC   C2419014   3.913   6.964  18.708
  158DOPC   H4R19015   3.972   6.884  18.858
  158DOPC   H4S19016   3.982   7.047  18.636
  158DOPC   C2519017   3.856   6.903  18.321
  158DOPC   H5R19018   3.758   6.854  18.387
  158DOPC   H5S19019   3.925   6.824  18.210
  158DOPC   C2619020   3.837   7.005  17.979
  158DOPC   H6R19021   3.937   7.048  17.904
  158DOPC   H6S19022   3.772   7.088  18.078
  158DOPC   C2719023   3.776   6.937  17.610
  158DOPC   H7R19024   3.672   6.905  17.691
  158DOPC   H7S19025   3.834   6.844  17.541
  158DOPC   C2819026   3.769   7.023  17.229
  158DOPC   H8R19027   3.701   7.110  17.286
  158DOPC   H8S19028   3.722   6.962  16.989
  158DOPC   C2919029   3.903   7.073  17.094
  158DOPC   H9R19030   3.989   7.039  17.271
  158DOPC  C21019031   3.924   7.149  16.767
  158DOPC  H10R19032   4.024   7.184  16.698
  158DOPC  C21119033   3.817   7.197  16.482
  158DOPC  H11R19034   3.726   7.133  16.506
  158DOPC  H11S19035   3.853   7.186  16.167
  158DOPC  C21219036   3.775   7.342  16.551
  158DOPC  H12R19037   3.855   7.413  16.461
  158DOPC  H12S19038   3.757   7.359  16.878
  158DOPC  C21319039   3.644   7.370  16.326
  158DOPC  H13R19040   3.597   7.462  16.446
  158DOPC  H13S19041   3.573   7.288  16.398
  158DOPC  C21419042   3.658   7.377  15.864
  158DOPC  H14R19043   3.565   7.424  15.747
  158DOPC  H14S19044   3.662   7.273  15.747
  158DOPC  C21519045   3.780   7.452  15.690
  158DOPC  H15R19046   3.867   7.386  15.693
  158DOPC  H15S19047   3.813   7.539  15.870
  158DOPC  C21619048   3.752   7.502  15.264
  158DOPC  H16R19049   3.651   7.548  15.252
  158DOPC  H16S19050   3.753   7.415  15.051
  158DOPC  C21719051   3.855   7.605  15.123
  158DOPC  H17R19052   3.954   7.555  15.144
  158DOPC  H17S19053   3.856   7.693  15.327
  158DOPC  C21819054   3.830   7.652  14.694
  158DOPC  H18R19055   3.923   7.695  14.559
  158DOPC  H18S19056   3.751   7.730  14.688
  158DOPC  H18T19057   3.797   7.567  14.502
  158DOPC   C3319058   4.203   7.365  19.299
  158DOPC   H3X19059   4.175   7.341  18.984
  158DOPC   H3Y19060   4.173   7.279  19.494
  158DOPC   C3419061   4.356   7.381  19.326
  158DOPC   H4X19062   4.384   7.426  19.620
  158DOPC   H4Y19063   4.389   7.452  19.089
  158DOPC   C3519064   4.432   7.248  19.281
  158DOPC   H5X19065   4.412   7.184  19.545
  158DOPC   H5Y19066   4.541   7.271  19.284
  158DOPC   C3619067   4.399   7.172  18.894
  158DOPC   H6X19068   4.454   7.075  18.897
  158DOPC   H6Y19069   4.290   7.148  18.879
  158DOPC   C3719070   4.442   7.250  18.519
  158DOPC   H7X19071   4.389   7.347  18.501
  158DOPC   H7Y19072   4.551   7.273  18.558
  158DOPC   C3819073   4.426   7.170  18.129
  158DOPC   H8X19074   4.461   7.066  18.177
  158DOPC   H8Y19075   4.493   7.217  17.904
  158DOPC   C3919076   4.284   7.173  17.982
  158DOPC   H9X19077   4.206   7.197  18.207
  158DOPC  C31019078   4.248   7.146  17.604
  158DOPC  H10X19079   4.143   7.159  17.514
  158DOPC  C31119080   4.344   7.108  17.274
  158DOPC  H11X19081   4.295   7.034  17.073
  158DOPC  H11Y19082   4.434   7.057  17.397
  158DOPC  C31219083   4.390   7.228  17.016
  158DOPC  H12X19084   4.466   7.190  16.803
  158DOPC  H12Y19085   4.438   7.306  17.205
  158DOPC  C31319086   4.272   7.286  16.779
  158DOPC  H13X19087   4.214   7.198  16.677
  158DOPC  H13Y19088   4.208   7.347  16.983
  158DOPC  C31419089   4.309   7.367  16.404
  158DOPC  H14X19090   4.226   7.436  16.329
  158DOPC  H14Y19091   4.399   7.429  16.470
  158DOPC  C31519092   4.338   7.277  16.038
  158DOPC  H15X19093   4.409   7.198  16.131
  158DOPC  H15Y19094   4.388   7.337  15.801
  158DOPC  C31619095   4.214   7.208  15.852
  158DOPC  H16X19096   4.251   7.127  15.651
  158DOPC  H16Y19097   4.152   7.159  16.086
  158DOPC  C31719098   4.125   7.299  15.600
  158DOPC  H17X19099   4.075   7.374  15.798
  158DOPC  H17Y19100   4.188   7.356  15.384
  158DOPC  C31819101   4.019   7.221  15.363
  158DOPC  H18X19102   4.066   7.142  15.174
  158DOPC  H18Y19103   3.946   7.172  15.570
  158DOPC  H18Z19104   3.962   7.289  15.165
  159DOPC     N19105   6.664   2.058  21.345
  159DOPC   C1219106   6.782   2.010  21.090
  159DOPC  H12A19107   6.757   1.918  20.931
  159DOPC  H12B19108   6.864   1.984  21.285
  159DOPC   C1319109   6.633   1.957  21.657
  159DOPC  H13A19110   6.550   1.991  21.840
  159DOPC  H13B19111   6.609   1.859  21.534
  159DOPC  H13C19112   6.718   1.942  21.855
  159DOPC   C1419113   6.545   2.077  21.078
  159DOPC  H14A19114   6.517   1.983  20.931
  159DOPC  H14B19115   6.460   2.122  21.222
  159DOPC  H14C19116   6.574   2.139  20.823
  159DOPC   C1519117   6.702   2.188  21.528
  159DOPC  H15A19118   6.798   2.184  21.678
  159DOPC  H15B19119   6.626   2.225  21.729
  159DOPC  H15C19120   6.713   2.259  21.282
  159DOPC   C1119121   6.832   2.108  20.760
  159DOPC  H11A19122   6.862   2.205  20.892
  159DOPC  H11B19123   6.924   2.067  20.616
  159DOPC     P19124   6.694   2.007  20.178
  159DOPC   O1319125   6.552   1.973  20.238
  159DOPC   O1419126   6.791   1.897  20.256
  159DOPC   O1219127   6.728   2.129  20.475
  159DOPC   O1119128   6.718   2.077  19.755
  159DOPC    C119129   6.790   2.202  19.770
  159DOPC    HA19130   6.878   2.193  19.980
  159DOPC    HB19131   6.725   2.284  19.881
  159DOPC    C219132   6.860   2.250  19.380
  159DOPC    HS19133   6.924   2.336  19.476
  159DOPC   O2119134   6.768   2.291  19.074
  159DOPC   C2119135   6.830   2.358  18.783
  159DOPC   O2219136   6.942   2.407  18.807
  159DOPC   C2219137   6.739   2.366  18.420
  159DOPC   H2R19138   6.644   2.415  18.510
  159DOPC   H2S19139   6.715   2.262  18.336
  159DOPC    C319140   6.954   2.141  19.209
  159DOPC    HX19141   7.035   2.133  19.431
  159DOPC    HY19142   7.003   2.173  18.927
  159DOPC   O3119143   6.889   2.012  19.164
  159DOPC   C3119144   6.831   1.991  18.819
  159DOPC   O3219145   6.830   2.067  18.534
  159DOPC   C3219146   6.778   1.847  18.798
  159DOPC   H2X19147   6.837   1.785  19.008
  159DOPC   H2Y19148   6.672   1.847  18.897
  159DOPC   C2319149   6.802   2.439  18.057
  159DOPC   H3R19150   6.902   2.396  17.982
  159DOPC   H3S19151   6.818   2.546  18.135
  159DOPC   C2419152   6.711   2.430  17.688
  159DOPC   H4R19153   6.750   2.497  17.451
  159DOPC   H4S19154   6.609   2.464  17.772
  159DOPC   C2519155   6.701   2.287  17.520
  159DOPC   H5R19156   6.658   2.219  17.751
  159DOPC   H5S19157   6.804   2.250  17.457
  159DOPC   C2619158   6.613   2.279  17.145
  159DOPC   H6R19159   6.525   2.346  17.184
  159DOPC   H6S19160   6.574   2.175  17.112
  159DOPC   C2719161   6.691   2.315  16.764
  159DOPC   H7R19162   6.750   2.407  16.821
  159DOPC   H7S19163   6.619   2.336  16.515
  159DOPC   C2819164   6.783   2.199  16.644
  159DOPC   H8R19165   6.721   2.118  16.512
  159DOPC   H8S19166   6.827   2.156  16.920
  159DOPC   C2919167   6.893   2.235  16.353
  159DOPC   H9R19168   6.876   2.323  16.164
  159DOPC  C21019169   7.011   2.172  16.329
  159DOPC  H10R19170   7.081   2.200  16.092
  159DOPC  C21119171   7.054   2.055  16.584
  159DOPC  H11R19172   7.010   2.059  16.890
  159DOPC  H11S19173   7.164   2.059  16.626
  159DOPC  C21219174   7.014   1.922  16.389
  159DOPC  H12R19175   6.907   1.926  16.299
  159DOPC  H12S19176   7.028   1.840  16.611
  159DOPC  C21319177   7.099   1.889  16.029
  159DOPC  H13R19178   7.206   1.908  16.110
  159DOPC  H13S19179   7.070   1.960  15.789
  159DOPC  C21419180   7.089   1.742  15.894
  159DOPC  H14R19181   6.990   1.722  15.756
  159DOPC  H14S19182   7.100   1.675  16.158
  159DOPC  C21519183   7.201   1.713  15.597
  159DOPC  H15R19184   7.216   1.607  15.531
  159DOPC  H15S19185   7.296   1.745  15.741
  159DOPC  C21619186   7.185   1.795  15.216
  159DOPC  H16R19187   7.277   1.790  15.030
  159DOPC  H16S19188   7.170   1.899  15.321
  159DOPC  C21719189   7.066   1.782  14.937
  159DOPC  H17R19190   7.047   1.887  14.835
  159DOPC  H17S19191   6.975   1.746  15.090
  159DOPC  C21819192   7.101   1.705  14.562
  159DOPC  H18R19193   7.094   1.598  14.631
  159DOPC  H18S19194   7.205   1.721  14.460
  159DOPC  H18T19195   7.034   1.733  14.307
  159DOPC   C3319196   6.793   1.791  18.366
  159DOPC   H3X19197   6.741   1.855  18.144
  159DOPC   H3Y19198   6.748   1.690  18.345
  159DOPC   C3419199   6.943   1.778  18.267
  159DOPC   H4X19200   6.991   1.739  18.540
  159DOPC   H4Y19201   6.982   1.880  18.198
  159DOPC   C3519202   6.982   1.681  17.931
  159DOPC   H5X19203   7.001   1.586  18.081
  159DOPC   H5Y19204   7.080   1.700  17.793
  159DOPC   C3619205   6.884   1.686  17.574
  159DOPC   H6X19206   6.913   1.608  17.352
  159DOPC   H6Y19207   6.780   1.665  17.673
  159DOPC   C3719208   6.892   1.822  17.364
  159DOPC   H7X19209   6.882   1.906  17.577
  159DOPC   H7Y19210   6.994   1.827  17.232
  159DOPC   C3819211   6.796   1.843  17.013
  159DOPC   H8X19212   6.829   1.772  16.776
  159DOPC   H8Y19213   6.813   1.944  16.893
  159DOPC   C3919214   6.649   1.831  17.097
  159DOPC   H9X19215   6.608   1.899  17.325
  159DOPC  C31019216   6.568   1.750  16.890
  159DOPC  H10X19217   6.460   1.746  16.956
  159DOPC  C31119218   6.614   1.661  16.557
  159DOPC  H11X19219   6.527   1.596  16.494
  159DOPC  H11Y19220   6.699   1.596  16.656
  159DOPC  C31219221   6.657   1.731  16.164
  159DOPC  H12X19222   6.687   1.655  15.939
  159DOPC  H12Y19223   6.746   1.795  16.209
  159DOPC  C31319224   6.545   1.816  15.978
  159DOPC  H13X19225   6.457   1.750  15.933
  159DOPC  H13Y19226   6.517   1.896  16.191
  159DOPC  C31419227   6.584   1.877  15.573
  159DOPC  H14X19228   6.640   1.803  15.390
  159DOPC  H14Y19229   6.490   1.900  15.405
  159DOPC  C31519230   6.665   2.008  15.606
  159DOPC  H15X19231   6.703   2.031  15.300
  159DOPC  H15Y19232   6.754   1.995  15.801
  159DOPC  C31619233   6.578   2.124  15.762
  159DOPC  H16X19234   6.475   2.109  15.651
  159DOPC  H16Y19235   6.568   2.114  16.092
  159DOPC  C31719236   6.625   2.268  15.663
  159DOPC  H17X19237   6.543   2.337  15.750
  159DOPC  H17Y19238   6.708   2.291  15.867
  159DOPC  C31819239   6.672   2.303  15.237
  159DOPC  H18X19240   6.594   2.363  15.078
  159DOPC  H18Y19241   6.764   2.364  15.246
  159DOPC  H18Z19242   6.693   2.214  15.051
  160DOPC     N19243   1.883   6.909  20.871
  160DOPC   C1219244   1.833   6.769  20.967
  160DOPC  H12A19245   1.799   6.727  20.685
  160DOPC  H12B19246   1.750   6.776  21.177
  160DOPC   C1319247   1.997   6.892  20.586
  160DOPC  H13A19248   2.078   6.838  20.733
  160DOPC  H13B19249   1.969   6.825  20.340
  160DOPC  H13C19250   2.034   6.984  20.457
  160DOPC   C1419251   1.931   6.973  21.252
  160DOPC  H14A19252   2.012   6.913  21.369
  160DOPC  H14B19253   1.966   7.074  21.204
  160DOPC  H14C19254   1.851   6.976  21.474
  160DOPC   C1519255   1.776   6.995  20.688
  160DOPC  H15A19256   1.811   7.096  20.622
  160DOPC  H15B19257   1.693   7.008  20.901
  160DOPC  H15C19258   1.738   6.952  20.415
  160DOPC   C1119259   1.934   6.663  21.138
  160DOPC  H11A19260   1.979   6.703  21.417
  160DOPC  H11B19261   1.877   6.572  21.222
  160DOPC     P19262   2.010   6.547  20.469
  160DOPC   O1319263   1.960   6.414  20.598
  160DOPC   O1419264   2.129   6.546  20.211
  160DOPC   O1219265   2.039   6.629  20.865
  160DOPC   O1119266   1.888   6.628  20.274
  160DOPC    C119267   1.812   6.578  19.947
  160DOPC    HA19268   1.722   6.528  20.070
  160DOPC    HB19269   1.870   6.504  19.764
  160DOPC    C219270   1.762   6.688  19.647
  160DOPC    HS19271   1.749   6.639  19.347
  160DOPC   O2119272   1.851   6.801  19.632
  160DOPC   C2119273   1.944   6.791  19.356
  160DOPC   O2219274   1.967   6.694  19.149
  160DOPC   C2219275   2.003   6.932  19.293
  160DOPC   H2R19276   2.058   6.955  19.572
  160DOPC   H2S19277   1.918   7.002  19.260
  160DOPC    C319278   1.622   6.748  19.758
  160DOPC    HX19279   1.629   6.774  20.079
  160DOPC    HY19280   1.541   6.672  19.725
  160DOPC   O3119281   1.591   6.870  19.536
  160DOPC   C3119282   1.563   6.849  19.146
  160DOPC   O3219283   1.541   6.740  18.999
  160DOPC   C3219284   1.563   6.984  18.924
  160DOPC   H2X19285   1.465   7.032  18.993
  160DOPC   H2Y19286   1.644   7.047  19.053
  160DOPC   C2319287   2.099   6.946  18.933
  160DOPC   H3R19288   2.132   6.842  18.864
  160DOPC   H3S19289   2.192   7.000  19.011
  160DOPC   C2419290   2.043   6.994  18.537
  160DOPC   H4R19291   2.127   6.999  18.315
  160DOPC   H4S19292   1.993   7.093  18.537
  160DOPC   C2519293   1.946   6.886  18.414
  160DOPC   H5R19294   1.853   6.894  18.591
  160DOPC   H5S19295   1.987   6.785  18.480
  160DOPC   C2619296   1.921   6.884  17.970
  160DOPC   H6R19297   2.018   6.870  17.811
  160DOPC   H6S19298   1.880   6.983  17.880
  160DOPC   C2719299   1.826   6.769  17.871
  160DOPC   H7R19300   1.756   6.752  18.129
  160DOPC   H7S19301   1.883   6.674  17.826
  160DOPC   C2819302   1.745   6.803  17.502
  160DOPC   H8R19303   1.689   6.894  17.589
  160DOPC   H8S19304   1.669   6.726  17.424
  160DOPC   C2919305   1.852   6.826  17.193
  160DOPC   H9R19306   1.898   6.926  17.205
  160DOPC  C21019307   1.888   6.745  16.896
  160DOPC  H10R19308   1.972   6.775  16.704
  160DOPC  C21119309   1.830   6.612  16.788
  160DOPC  H11R19310   1.748   6.582  16.995
  160DOPC  H11S19311   1.909   6.534  16.806
  160DOPC  C21219312   1.777   6.624  16.356
  160DOPC  H12R19313   1.763   6.524  16.227
  160DOPC  H12S19314   1.852   6.674  16.161
  160DOPC  C21319315   1.643   6.701  16.329
  160DOPC  H13R19316   1.661   6.805  16.425
  160DOPC  H13S19317   1.569   6.657  16.539
  160DOPC  C21419318   1.585   6.706  15.903
  160DOPC  H14R19319   1.498   6.638  15.882
  160DOPC  H14S19320   1.663   6.673  15.690
  160DOPC  C21519321   1.541   6.846  15.768
  160DOPC  H15R19322   1.631   6.912  15.786
  160DOPC  H15S19323   1.465   6.886  15.978
  160DOPC  C21619324   1.488   6.848  15.336
  160DOPC  H16R19325   1.427   6.759  15.273
  160DOPC  H16S19326   1.570   6.824  15.129
  160DOPC  C21719327   1.412   6.976  15.213
  160DOPC  H17R19328   1.303   6.956  15.219
  160DOPC  H17S19329   1.441   6.997  14.898
  160DOPC  C21819330   1.439   7.107  15.435
  160DOPC  H18R19331   1.362   7.183  15.363
  160DOPC  H18S19332   1.536   7.147  15.330
  160DOPC  H18T19333   1.443   7.093  15.765
  160DOPC   C3319334   1.579   6.977  18.462
  160DOPC   H3X19335   1.521   6.892  18.336
  160DOPC   H3Y19336   1.684   6.962  18.375
  160DOPC   C3419337   1.532   7.109  18.267
  160DOPC   H4X19338   1.604   7.187  18.366
  160DOPC   H4Y19339   1.434   7.140  18.390
  160DOPC   C3519340   1.527   7.112  17.805
  160DOPC   H5X19341   1.632   7.108  17.709
  160DOPC   H5Y19342   1.487   7.212  17.715
  160DOPC   C3619343   1.443   7.007  17.574
  160DOPC   H6X19344   1.481   6.904  17.616
  160DOPC   H6Y19345   1.340   7.010  17.691
  160DOPC   C3719346   1.422   7.037  17.124
  160DOPC   H7X19347   1.329   6.983  17.028
  160DOPC   H7Y19348   1.403   7.145  17.076
  160DOPC   C3819349   1.535   6.987  16.851
  160DOPC   H8X19350   1.504   7.001  16.533
  160DOPC   H8Y19351   1.544   6.877  16.902
  160DOPC   C3919352   1.664   7.058  16.941
  160DOPC   H9X19353   1.704   7.037  17.238
  160DOPC  C31019354   1.750   7.122  16.704
  160DOPC  H10X19355   1.841   7.166  16.833
  160DOPC  C31119356   1.733   7.137  16.263
  160DOPC  H11X19357   1.713   7.241  16.185
  160DOPC  H11Y19358   1.646   7.078  16.161
  160DOPC  C31219359   1.855   7.084  16.035
  160DOPC  H12X19360   1.933   7.161  15.993
  160DOPC  H12Y19361   1.815   7.058  15.735
  160DOPC  C31319362   1.924   6.961  16.212
  160DOPC  H13X19363   1.962   6.981  16.518
  160DOPC  H13Y19364   1.846   6.882  16.224
  160DOPC  C31419365   2.039   6.911  15.951
  160DOPC  H14X19366   2.123   6.984  15.957
  160DOPC  H14Y19367   2.077   6.814  16.071
  160DOPC  C31519368   1.988   6.893  15.522
  160DOPC  H15X19369   1.985   6.993  15.378
  160DOPC  H15Y19370   1.884   6.853  15.534
  160DOPC  C31619371   2.074   6.802  15.267
  160DOPC  H16X19372   2.041   6.811  14.949
  160DOPC  H16Y19373   2.176   6.844  15.294
  160DOPC  C31719374   2.074   6.654  15.387
  160DOPC  H17X19375   2.148   6.602  15.195
  160DOPC  H17Y19376   2.107   6.643  15.702
  160DOPC  C31819377   1.939   6.585  15.336
  160DOPC  H18X19378   1.948   6.476  15.387
  160DOPC  H18Y19379   1.865   6.626  15.552
  160DOPC  H18Z19380   1.899   6.602  15.030
  161DOPC     N19381   3.840   0.290  21.300
  161DOPC   C1219382   3.799   0.357  20.904
  161DOPC  H12A19383   3.864   0.444  20.853
  161DOPC  H12B19384   3.699   0.397  20.928
  161DOPC   C1319385   3.990   0.296  21.324
  161DOPC  H13A19386   4.023   0.400  21.297
  161DOPC  H13B19387   4.030   0.259  21.603
  161DOPC  H13C19388   4.034   0.244  21.069
  161DOPC   C1419389   3.791   0.148  21.306
  161DOPC  H14A19390   3.839   0.093  21.066
  161DOPC  H14B19391   3.807   0.097  21.588
  161DOPC  H14C19392   3.684   0.147  21.252
  161DOPC   C1519393   3.785   0.367  21.645
  161DOPC  H15A19394   3.677   0.375  21.633
  161DOPC  H15B19395   3.825   0.469  21.648
  161DOPC  H15C19396   3.812   0.322  21.927
  161DOPC   C1119397   3.812   0.272  20.520
  161DOPC  H11A19398   3.752   0.179  20.547
  161DOPC  H11B19399   3.766   0.326  20.259
  161DOPC     P19400   4.041   0.355  20.250
  161DOPC   O1319401   4.183   0.319  20.295
  161DOPC   O1419402   3.994   0.483  20.427
  161DOPC   O1219403   3.949   0.239  20.445
  161DOPC   O1119404   4.006   0.341  19.779
  161DOPC    C119405   3.993   0.206  19.632
  161DOPC    HA19406   3.886   0.180  19.647
  161DOPC    HB19407   4.046   0.132  19.827
  161DOPC    C219408   4.046   0.172  19.197
  161DOPC    HS19409   4.130   0.101  19.248
  161DOPC   O2119410   4.092   0.282  18.948
  161DOPC   C2119411   4.113   0.248  18.561
  161DOPC   O2219412   4.183   0.157  18.444
  161DOPC   C2219413   4.018   0.326  18.279
  161DOPC   H2R19414   3.947   0.252  18.156
  161DOPC   H2S19415   4.078   0.365  18.027
  161DOPC    C319416   3.932   0.099  18.969
  161DOPC    HX19417   3.881   0.180  18.795
  161DOPC    HY19418   3.853   0.057  19.164
  161DOPC   O3119419   3.989  -0.003  18.717
  161DOPC   C3119420   3.901  -0.038  18.438
  161DOPC   O3219421   3.785  -0.002  18.441
  161DOPC   C3219422   3.965  -0.124  18.114
  161DOPC   H2X19423   4.063  -0.162  18.225
  161DOPC   H2Y19424   3.899  -0.211  18.063
  161DOPC   C2319425   3.937   0.440  18.474
  161DOPC   H3R19426   3.997   0.489  18.714
  161DOPC   H3S19427   3.845   0.400  18.618
  161DOPC   C2419428   3.899   0.551  18.180
  161DOPC   H4R19429   3.991   0.599  18.063
  161DOPC   H4S19430   3.840   0.626  18.351
  161DOPC   C2519431   3.819   0.508  17.811
  161DOPC   H5R19432   3.754   0.422  17.889
  161DOPC   H5S19433   3.889   0.469  17.586
  161DOPC   C2619434   3.731   0.623  17.655
  161DOPC   H6R19435   3.702   0.688  17.910
  161DOPC   H6S19436   3.633   0.582  17.553
  161DOPC   C2719437   3.788   0.701  17.292
  161DOPC   H7R19438   3.876   0.762  17.382
  161DOPC   H7S19439   3.711   0.773  17.181
  161DOPC   C2819440   3.829   0.606  16.956
  161DOPC   H8R19441   3.916   0.548  17.055
  161DOPC   H8S19442   3.861   0.660  16.683
  161DOPC   C2919443   3.713   0.516  16.887
  161DOPC   H9R19444   3.696   0.440  17.121
  161DOPC  C21019445   3.632   0.520  16.572
  161DOPC  H10R19446   3.541   0.459  16.578
  161DOPC  C21119447   3.649   0.618  16.236
  161DOPC  H11R19448   3.744   0.593  16.083
  161DOPC  H11S19449   3.660   0.722  16.350
  161DOPC  C21219450   3.535   0.611  15.930
  161DOPC  H12R19451   3.466   0.696  15.987
  161DOPC  H12S19452   3.474   0.519  15.960
  161DOPC  C21319453   3.587   0.617  15.498
  161DOPC  H13R19454   3.649   0.708  15.456
  161DOPC  H13S19455   3.497   0.628  15.306
  161DOPC  C21419456   3.665   0.493  15.360
  161DOPC  H14R19457   3.605   0.401  15.411
  161DOPC  H14S19458   3.758   0.483  15.537
  161DOPC  C21519459   3.704   0.498  14.916
  161DOPC  H15R19460   3.772   0.414  14.862
  161DOPC  H15S19461   3.760   0.592  14.856
  161DOPC  C21619462   3.587   0.486  14.619
  161DOPC  H16R19463   3.607   0.545  14.343
  161DOPC  H16S19464   3.498   0.531  14.766
  161DOPC  C21719465   3.549   0.342  14.502
  161DOPC  H17R19466   3.446   0.345  14.376
  161DOPC  H17S19467   3.546   0.279  14.778
  161DOPC  C21819468   3.640   0.276  14.193
  161DOPC  H18R19469   3.590   0.194  14.028
  161DOPC  H18S19470   3.726   0.231  14.349
  161DOPC  H18T19471   3.677   0.351  13.971
  161DOPC   C3319472   3.985  -0.042  17.727
  161DOPC   H3X19473   4.019  -0.112  17.487
  161DOPC   H3Y19474   4.066   0.032  17.778
  161DOPC   C3419475   3.857   0.031  17.580
  161DOPC   H4X19476   3.825   0.104  17.814
  161DOPC   H4Y19477   3.776  -0.044  17.550
  161DOPC   C3519478   3.870   0.109  17.184
  161DOPC   H5X19479   3.776   0.165  17.133
  161DOPC   H5Y19480   3.883   0.036  16.935
  161DOPC   C3619481   3.985   0.210  17.172
  161DOPC   H6X19482   3.971   0.289  17.403
  161DOPC   H6Y19483   4.077   0.154  17.247
  161DOPC   C3719484   4.013   0.271  16.758
  161DOPC   H7X19485   4.019   0.187  16.542
  161DOPC   H7Y19486   3.929   0.336  16.665
  161DOPC   C3819487   4.148   0.346  16.737
  161DOPC   H8X19488   4.183   0.338  16.422
  161DOPC   H8Y19489   4.224   0.292  16.920
  161DOPC   C3919490   4.145   0.487  16.884
  161DOPC   H9X19491   4.137   0.501  17.211
  161DOPC  C31019492   4.149   0.594  16.644
  161DOPC  H10X19493   4.129   0.693  16.767
  161DOPC  C31119494   4.159   0.584  16.194
  161DOPC  H11X19495   4.241   0.514  16.125
  161DOPC  H11Y19496   4.194   0.681  16.068
  161DOPC  C31219497   4.035   0.533  15.969
  161DOPC  H12X19498   3.959   0.613  15.936
  161DOPC  H12Y19499   3.986   0.450  16.131
  161DOPC  C31319500   4.074   0.485  15.549
  161DOPC  H13X19501   4.153   0.408  15.582
  161DOPC  H13Y19502   3.987   0.436  15.402
  161DOPC  C31419503   4.126   0.602  15.300
  161DOPC  H14X19504   4.045   0.678  15.288
  161DOPC  H14Y19505   4.214   0.647  15.459
  161DOPC  C31519506   4.174   0.569  14.877
  161DOPC  H15X19507   4.240   0.480  14.886
  161DOPC  H15Y19508   4.238   0.654  14.769
  161DOPC  C31619509   4.058   0.552  14.583
  161DOPC  H16X19510   3.966   0.540  14.769
  161DOPC  H16Y19511   4.041   0.645  14.409
  161DOPC  C31719512   4.069   0.430  14.310
  161DOPC  H17X19513   4.068   0.461  13.989
  161DOPC  H17Y19514   4.164   0.375  14.364
  161DOPC  C31819515   3.952   0.337  14.382
  161DOPC  H18X19516   3.934   0.323  14.706
  161DOPC  H18Y19517   3.864   0.387  14.244
  161DOPC  H18Z19518   3.962   0.236  14.256
  162DOPC     N19519   1.301   6.498  20.667
  162DOPC   C1219520   1.312   6.383  20.376
  162DOPC  H12A19521   1.407   6.331  20.427
  162DOPC  H12B19522   1.310   6.421  20.073
  162DOPC   C1319523   1.158   6.541  20.679
  162DOPC  H13A19524   1.125   6.578  20.391
  162DOPC  H13B19525   1.098   6.454  20.760
  162DOPC  H13C19526   1.142   6.616  20.910
  162DOPC   C1419527   1.387   6.616  20.580
  162DOPC  H14A19528   1.350   6.666  20.316
  162DOPC  H14B19529   1.385   6.686  20.829
  162DOPC  H14C19530   1.491   6.589  20.529
  162DOPC   C1519531   1.332   6.444  21.072
  162DOPC  H15A19532   1.306   6.514  21.309
  162DOPC  H15B19533   1.432   6.405  21.096
  162DOPC  H15C19534   1.266   6.358  21.123
  162DOPC   C1119535   1.205   6.270  20.403
  162DOPC  H11A19536   1.106   6.311  20.313
  162DOPC  H11B19537   1.227   6.188  20.184
  162DOPC     P19538   1.290   6.102  20.961
  162DOPC   O1319539   1.274   5.980  20.718
  162DOPC   O1419540   1.268   6.093  21.399
  162DOPC   O1219541   1.194   6.218  20.796
  162DOPC   O1119542   1.438   6.159  20.886
  162DOPC    C119543   1.551   6.072  20.802
  162DOPC    HA19544   1.520   5.969  20.724
  162DOPC    HB19545   1.611   6.062  21.081
  162DOPC    C219546   1.645   6.128  20.460
  162DOPC    HS19547   1.712   6.203  20.595
  162DOPC   O2119548   1.545   6.196  20.211
  162DOPC   C2119549   1.579   6.271  19.902
  162DOPC   O2219550   1.691   6.316  19.860
  162DOPC   C2219551   1.461   6.287  19.596
  162DOPC   H2R19552   1.363   6.274  19.737
  162DOPC   H2S19553   1.467   6.204  19.383
  162DOPC    C319554   1.747   6.016  20.226
  162DOPC    HX19555   1.796   5.959  20.469
  162DOPC    HY19556   1.821   6.084  20.091
  162DOPC   O3119557   1.707   5.916  19.926
  162DOPC   C3119558   1.760   5.809  19.728
  162DOPC   O3219559   1.879   5.791  19.686
  162DOPC   C3219560   1.650   5.703  19.536
  162DOPC   H2X19561   1.724   5.627  19.455
  162DOPC   H2Y19562   1.592   5.658  19.776
  162DOPC   C2319563   1.462   6.399  19.275
  162DOPC   H3R19564   1.556   6.388  19.095
  162DOPC   H3S19565   1.464   6.499  19.419
  162DOPC   C2419566   1.344   6.391  18.975
  162DOPC   H4R19567   1.247   6.395  19.140
  162DOPC   H4S19568   1.346   6.295  18.807
  162DOPC   C2519569   1.348   6.507  18.672
  162DOPC   H5R19570   1.441   6.500  18.489
  162DOPC   H5S19571   1.354   6.602  18.846
  162DOPC   C2619572   1.227   6.523  18.387
  162DOPC   H6R19573   1.251   6.608  18.186
  162DOPC   H6S19574   1.139   6.552  18.570
  162DOPC   C2719575   1.189   6.403  18.120
  162DOPC   H7R19576   1.100   6.430  17.937
  162DOPC   H7S19577   1.158   6.320  18.318
  162DOPC   C2819578   1.301   6.354  17.841
  162DOPC   H8R19579   1.267   6.259  17.703
  162DOPC   H8S19580   1.390   6.330  18.033
  162DOPC   C2919581   1.339   6.452  17.517
  162DOPC   H9R19582   1.276   6.543  17.487
  162DOPC  C21019583   1.444   6.435  17.271
  162DOPC  H10R19584   1.466   6.510  17.040
  162DOPC  C21119585   1.536   6.315  17.289
  162DOPC  H11R19586   1.499   6.237  17.499
  162DOPC  H11S19587   1.636   6.347  17.400
  162DOPC  C21219588   1.555   6.245  16.881
  162DOPC  H12R19589   1.457   6.212  16.755
  162DOPC  H12S19590   1.616   6.154  16.938
  162DOPC  C21319591   1.629   6.332  16.581
  162DOPC  H13R19592   1.701   6.394  16.752
  162DOPC  H13S19593   1.559   6.400  16.422
  162DOPC  C21419594   1.712   6.252  16.278
  162DOPC  H14R19595   1.794   6.198  16.437
  162DOPC  H14S19596   1.760   6.324  16.068
  162DOPC  C21519597   1.631   6.151  16.035
  162DOPC  H15R19598   1.534   6.198  15.948
  162DOPC  H15S19599   1.607   6.062  16.221
  162DOPC  C21619600   1.708   6.111  15.660
  162DOPC  H16R19601   1.780   6.031  15.741
  162DOPC  H16S19602   1.769   6.197  15.555
  162DOPC  C21719603   1.623   6.062  15.312
  162DOPC  H17R19604   1.550   6.140  15.222
  162DOPC  H17S19605   1.565   5.972  15.411
  162DOPC  C21819606   1.713   6.025  14.961
  162DOPC  H18R19607   1.777   6.111  14.871
  162DOPC  H18S19608   1.658   5.988  14.697
  162DOPC  H18T19609   1.780   5.944  15.066
  162DOPC   C3319610   1.559   5.697  19.125
  162DOPC   H3X19611   1.564   5.591  19.026
  162DOPC   H3Y19612   1.605   5.756  18.885
  162DOPC   C3419613   1.406   5.728  19.122
  162DOPC   H4X19614   1.395   5.806  19.332
  162DOPC   H4Y19615   1.351   5.653  19.299
  162DOPC   C3519616   1.329   5.807  18.777
  162DOPC   H5X19617   1.283   5.745  18.543
  162DOPC   H5Y19618   1.401   5.873  18.618
  162DOPC   C3619619   1.220   5.901  18.975
  162DOPC   H6X19620   1.193   5.851  19.260
  162DOPC   H6Y19621   1.274   5.994  19.050
  162DOPC   C3719622   1.083   5.945  18.792
  162DOPC   H7X19623   1.006   5.865  18.777
  162DOPC   H7Y19624   1.040   6.017  19.011
  162DOPC   C3819625   1.093   6.018  18.390
  162DOPC   H8X19626   1.178   5.969  18.234
  162DOPC   H8Y19627   1.124   6.122  18.453
  162DOPC   C3919628   0.968   6.020  18.135
  162DOPC   H9X19629   0.871   6.039  18.285
  162DOPC  C31019630   0.968   5.998  17.739
  162DOPC  H10X19631   0.874   6.003  17.568
  162DOPC  C31119632   1.091   5.967  17.493
  162DOPC  H11X19633   1.171   5.916  17.670
  162DOPC  H11Y19634   1.135   6.060  17.367
  162DOPC  C31219635   1.051   5.870  17.160
  162DOPC  H12X19636   0.970   5.914  16.974
  162DOPC  H12Y19637   1.010   5.777  17.298
  162DOPC  C31319638   1.168   5.833  16.887
  162DOPC  H13X19639   1.265   5.857  17.031
  162DOPC  H13Y19640   1.162   5.724  16.827
  162DOPC  C31419641   1.155   5.901  16.482
  162DOPC  H14X19642   1.080   5.842  16.305
  162DOPC  H14Y19643   1.115   6.003  16.530
  162DOPC  C31519644   1.285   5.914  16.245
  162DOPC  H15X19645   1.317   5.816  16.122
  162DOPC  H15Y19646   1.366   5.950  16.446
  162DOPC  C31619647   1.267   6.014  15.903
  162DOPC  H16X19648   1.272   6.117  16.038
  162DOPC  H16Y19649   1.351   6.006  15.687
  162DOPC  C31719650   1.133   6.002  15.681
  162DOPC  H17X19651   1.046   5.994  15.885
  162DOPC  H17Y19652   1.118   6.100  15.540
  162DOPC  C31819653   1.130   5.890  15.369
  162DOPC  H18X19654   1.039   5.897  15.180
  162DOPC  H18Y19655   1.219   5.895  15.171
  162DOPC  H18Z19656   1.130   5.790  15.516
  163DOPC     N19657   0.243   2.812  20.802
  163DOPC   C1219658   0.328   2.727  20.517
  163DOPC  H12A19659   0.264   2.691  20.277
  163DOPC  H12B19660   0.366   2.640  20.673
  163DOPC   C1319661   0.119   2.737  20.904
  163DOPC  H13A19662   0.057   2.790  21.120
  163DOPC  H13B19663   0.061   2.719  20.634
  163DOPC  H13C19664   0.145   2.640  21.027
  163DOPC   C1419665   0.211   2.940  20.598
  163DOPC  H14A19666   0.304   2.985  20.499
  163DOPC  H14B19667   0.153   2.923  20.328
  163DOPC  H14C19668   0.156   3.010  20.784
  163DOPC   C1519669   0.323   2.840  21.174
  163DOPC  H15A19670   0.270   2.900  21.387
  163DOPC  H15B19671   0.415   2.892  21.093
  163DOPC  H15C19672   0.358   2.748  21.318
  163DOPC   C1119673   0.451   2.794  20.310
  163DOPC  H11A19674   0.493   2.724  20.085
  163DOPC  H11B19675   0.419   2.884  20.139
  163DOPC     P19676   0.639   2.724  20.823
  163DOPC   O1319677   0.594   2.730  21.246
  163DOPC   O1419678   0.782   2.746  20.739
  163DOPC   O1219679   0.550   2.832  20.592
  163DOPC   O1119680   0.584   2.588  20.634
  163DOPC    C119681   0.673   2.485  20.508
  163DOPC    HA19682   0.665   2.400  20.721
  163DOPC    HB19683   0.781   2.516  20.496
  163DOPC    C219684   0.638   2.436  20.079
  163DOPC    HS19685   0.697   2.343  20.028
  163DOPC   O2119686   0.667   2.543  19.803
  163DOPC   C2119687   0.768   2.517  19.566
  163DOPC   O2219688   0.830   2.412  19.551
  163DOPC   C2219689   0.797   2.634  19.296
  163DOPC   H2R19690   0.906   2.634  19.236
  163DOPC   H2S19691   0.767   2.730  19.437
  163DOPC    C319692   0.490   2.396  20.025
  163DOPC    HX19693   0.425   2.478  20.136
  163DOPC    HY19694   0.471   2.307  20.217
  163DOPC   O3119695   0.466   2.361  19.611
  163DOPC   C3119696   0.423   2.461  19.380
  163DOPC   O3219697   0.387   2.570  19.500
  163DOPC   C3219698   0.427   2.421  18.936
  163DOPC   H2X19699   0.533   2.406  18.849
  163DOPC   H2Y19700   0.376   2.324  18.906
  163DOPC   C2319701   0.727   2.611  18.903
  163DOPC   H3R19702   0.617   2.618  18.942
  163DOPC   H3S19703   0.749   2.509  18.777
  163DOPC   C2419704   0.772   2.716  18.603
  163DOPC   H4R19705   0.883   2.710  18.558
  163DOPC   H4S19706   0.744   2.816  18.717
  163DOPC   C2519707   0.698   2.681  18.228
  163DOPC   H5R19708   0.588   2.692  18.285
  163DOPC   H5S19709   0.720   2.573  18.171
  163DOPC   C2619710   0.731   2.755  17.847
  163DOPC   H6R19711   0.839   2.746  17.778
  163DOPC   H6S19712   0.705   2.862  17.859
  163DOPC   C2719713   0.643   2.684  17.541
  163DOPC   H7R19714   0.538   2.719  17.568
  163DOPC   H7S19715   0.639   2.576  17.622
  163DOPC   C2819716   0.696   2.686  17.121
  163DOPC   H8R19717   0.680   2.584  17.010
  163DOPC   H8S19718   0.807   2.697  17.121
  163DOPC   C2919719   0.634   2.797  16.884
  163DOPC   H9R19720   0.717   2.861  16.782
  163DOPC  C21019721   0.508   2.839  16.806
  163DOPC  H10R19722   0.505   2.935  16.647
  163DOPC  C21119723   0.363   2.802  16.902
  163DOPC  H11R19724   0.324   2.856  17.172
  163DOPC  H11S19725   0.341   2.695  16.959
  163DOPC  C21219726   0.279   2.855  16.542
  163DOPC  H12R19727   0.340   2.848  16.263
  163DOPC  H12S19728   0.259   2.964  16.578
  163DOPC  C21319729   0.147   2.782  16.452
  163DOPC  H13R19730   0.070   2.814  16.674
  163DOPC  H13S19731   0.162   2.672  16.491
  163DOPC  C21419732   0.094   2.805  16.023
  163DOPC  H14R19733   0.059   2.910  16.002
  163DOPC  H14S19734   0.003   2.742  15.981
  163DOPC  C21519735   0.193   2.778  15.672
  163DOPC  H15R19736   0.255   2.869  15.627
  163DOPC  H15S19737   0.131   2.767  15.396
  163DOPC  C21619738   0.289   2.657  15.711
  163DOPC  H16R19739   0.233   2.570  15.834
  163DOPC  H16S19740   0.368   2.678  15.933
  163DOPC  C21719741   0.359   2.616  15.312
  163DOPC  H17R19742   0.450   2.681  15.288
  163DOPC  H17S19743   0.293   2.639  15.054
  163DOPC  C21819744   0.405   2.471  15.273
  163DOPC  H18R19745   0.365   2.410  15.522
  163DOPC  H18S19746   0.515   2.467  15.261
  163DOPC  H18T19747   0.378   2.412  15.012
  163DOPC   C3319748   0.362   2.530  18.666
  163DOPC   H3X19749   0.407   2.629  18.744
  163DOPC   H3Y19750   0.253   2.537  18.726
  163DOPC   C3419751   0.381   2.511  18.213
  163DOPC   H4X19752   0.488   2.503  18.132
  163DOPC   H4Y19753   0.341   2.603  18.066
  163DOPC   C3519754   0.306   2.392  18.030
  163DOPC   H5X19755   0.292   2.422  17.709
  163DOPC   H5Y19756   0.205   2.381  18.165
  163DOPC   C3619757   0.383   2.260  18.039
  163DOPC   H6X19758   0.478   2.276  17.880
  163DOPC   H6Y19759   0.409   2.231  18.351
  163DOPC   C3719760   0.311   2.142  17.835
  163DOPC   H7X19761   0.382   2.056  17.808
  163DOPC   H7Y19762   0.231   2.107  18.039
  163DOPC   C3819763   0.248   2.178  17.421
  163DOPC   H8X19764   0.203   2.278  17.418
  163DOPC   H8Y19765   0.163   2.107  17.376
  163DOPC   C3919766   0.350   2.161  17.088
  163DOPC   H9X19767   0.385   2.058  17.094
  163DOPC  C31019768   0.395   2.238  16.782
  163DOPC  H10X19769   0.469   2.190  16.581
  163DOPC  C31119770   0.361   2.377  16.635
  163DOPC  H11X19771   0.279   2.415  16.833
  163DOPC  H11Y19772   0.316   2.366  16.332
  163DOPC  C31219773   0.458   2.501  16.608
  163DOPC  H12X19774   0.480   2.533  16.920
  163DOPC  H12Y19775   0.391   2.579  16.476
  163DOPC  C31319776   0.587   2.520  16.353
  163DOPC  H13X19777   0.590   2.626  16.254
  163DOPC  H13Y19778   0.684   2.505  16.506
  163DOPC  C31419779   0.606   2.434  15.987
  163DOPC  H14X19780   0.623   2.331  16.074
  163DOPC  H14Y19781   0.506   2.428  15.873
  163DOPC  C31519782   0.714   2.493  15.708
  163DOPC  H15X19783   0.796   2.536  15.897
  163DOPC  H15Y19784   0.671   2.581  15.549
  163DOPC  C31619785   0.783   2.392  15.423
  163DOPC  H16X19786   0.817   2.447  15.153
  163DOPC  H16Y19787   0.875   2.358  15.570
  163DOPC  C31719788   0.706   2.264  15.306
  163DOPC  H17X19789   0.668   2.215  15.579
  163DOPC  H17Y19790   0.619   2.290  15.114
  163DOPC  C31819791   0.794   2.161  15.090
  163DOPC  H18X19792   0.847   2.096  15.306
  163DOPC  H18Y19793   0.732   2.095  14.892
  163DOPC  H18Z19794   0.870   2.212  14.907
  164DOPC     N19795   1.160   1.350  21.066
  164DOPC   C1219796   1.249   1.327  20.697
  164DOPC  H12A19797   1.337   1.388  20.721
  164DOPC  H12B19798   1.193   1.357  20.433
  164DOPC   C1319799   1.232   1.312  21.444
  164DOPC  H13A19800   1.330   1.359  21.474
  164DOPC  H13B19801   1.173   1.335  21.708
  164DOPC  H13C19802   1.251   1.205  21.441
  164DOPC   C1419803   1.040   1.262  21.033
  164DOPC  H14A19804   0.984   1.285  20.763
  164DOPC  H14B19805   1.076   1.159  20.991
  164DOPC  H14C19806   0.979   1.264  21.300
  164DOPC   C1519807   1.110   1.488  21.093
  164DOPC  H15A19808   1.057   1.518  20.826
  164DOPC  H15B19809   1.189   1.557  21.171
  164DOPC  H15C19810   1.040   1.498  21.345
  164DOPC   C1119811   1.295   1.183  20.604
  164DOPC  H11A19812   1.355   1.186  20.322
  164DOPC  H11B19813   1.361   1.146  20.850
  164DOPC     P19814   1.196   0.949  20.430
  164DOPC   O1319815   1.066   0.907  20.262
  164DOPC   O1419816   1.243   0.880  20.796
  164DOPC   O1219817   1.182   1.100  20.547
  164DOPC   O1119818   1.307   0.952  20.088
  164DOPC    C119819   1.443   0.915  20.151
  164DOPC    HA19820   1.450   0.814  20.289
  164DOPC    HB19821   1.492   0.987  20.358
  164DOPC    C219822   1.527   0.914  19.752
  164DOPC    HS19823   1.628   0.878  19.836
  164DOPC   O2119824   1.534   1.047  19.590
  164DOPC   C2119825   1.616   1.062  19.284
  164DOPC   O2219826   1.695   0.980  19.158
  164DOPC   C2219827   1.587   1.195  19.095
  164DOPC   H2R19828   1.636   1.274  19.275
  164DOPC   H2S19829   1.477   1.211  19.092
  164DOPC    C319830   1.470   0.815  19.428
  164DOPC    HX19831   1.468   0.718  19.587
  164DOPC    HY19832   1.540   0.801  19.173
  164DOPC   O3119833   1.337   0.847  19.296
  164DOPC   C3119834   1.322   0.906  18.942
  164DOPC   O3219835   1.409   0.920  18.690
  164DOPC   C3219836   1.179   0.957  18.912
  164DOPC   H2X19837   1.111   0.872  18.852
  164DOPC   H2Y19838   1.152   0.999  19.209
  164DOPC   C2319839   1.637   1.193  18.666
  164DOPC   H3R19840   1.595   1.105  18.501
  164DOPC   H3S19841   1.748   1.182  18.654
  164DOPC   C2419842   1.592   1.319  18.453
  164DOPC   H4R19843   1.649   1.404  18.585
  164DOPC   H4S19844   1.485   1.339  18.504
  164DOPC   C2519845   1.621   1.305  18.009
  164DOPC   H5R19846   1.716   1.248  17.976
  164DOPC   H5S19847   1.637   1.405  17.877
  164DOPC   C2619848   1.511   1.234  17.766
  164DOPC   H6R19849   1.433   1.309  17.688
  164DOPC   H6S19850   1.463   1.153  17.943
  164DOPC   C2719851   1.578   1.178  17.388
  164DOPC   H7R19852   1.637   1.087  17.469
  164DOPC   H7S19853   1.653   1.255  17.307
  164DOPC   C2819854   1.489   1.154  17.019
  164DOPC   H8R19855   1.402   1.090  17.091
  164DOPC   H8S19856   1.551   1.102  16.788
  164DOPC   C2919857   1.455   1.293  16.872
  164DOPC   H9R19858   1.545   1.351  16.815
  164DOPC  C21019859   1.343   1.341  16.710
  164DOPC  H10R19860   1.342   1.445  16.602
  164DOPC  C21119861   1.219   1.263  16.632
  164DOPC  H11R19862   1.126   1.312  16.743
  164DOPC  H11S19863   1.222   1.161  16.770
  164DOPC  C21219864   1.215   1.257  16.173
  164DOPC  H12R19865   1.175   1.353  16.053
  164DOPC  H12S19866   1.139   1.181  16.098
  164DOPC  C21319867   1.347   1.229  15.945
  164DOPC  H13R19868   1.409   1.159  16.128
  164DOPC  H13S19869   1.408   1.321  15.912
  164DOPC  C21419870   1.322   1.162  15.537
  164DOPC  H14R19871   1.226   1.114  15.546
  164DOPC  H14S19872   1.394   1.081  15.498
  164DOPC  C21519873   1.283   1.243  15.174
  164DOPC  H15R19874   1.365   1.306  15.048
  164DOPC  H15S19875   1.208   1.315  15.285
  164DOPC  C21619876   1.222   1.154  14.835
  164DOPC  H16R19877   1.304   1.106  14.664
  164DOPC  H16S19878   1.172   1.231  14.646
  164DOPC  C21719879   1.112   1.045  14.877
  164DOPC  H17R19880   1.067   1.041  15.180
  164DOPC  H17S19881   1.158   0.944  14.826
  164DOPC  C21819882   1.003   1.066  14.556
  164DOPC  H18R19883   1.042   1.046  14.253
  164DOPC  H18S19884   0.967   1.171  14.553
  164DOPC  H18T19885   0.914   1.002  14.604
  164DOPC   C3319886   1.161   1.067  18.585
  164DOPC   H3X19887   1.251   1.132  18.570
  164DOPC   H3Y19888   1.078   1.132  18.690
  164DOPC   C3419889   1.121   1.014  18.168
  164DOPC   H4X19890   1.043   0.936  18.210
  164DOPC   H4Y19891   1.208   0.962  18.027
  164DOPC   C3519892   1.070   1.125  17.880
  164DOPC   H5X19893   1.146   1.142  17.643
  164DOPC   H5Y19894   1.067   1.219  18.063
  164DOPC   C3619895   0.934   1.100  17.655
  164DOPC   H6X19896   0.871   1.041  17.847
  164DOPC   H6Y19897   0.886   1.200  17.601
  164DOPC   C3719898   0.947   1.007  17.277
  164DOPC   H7X19899   1.028   1.062  17.124
  164DOPC   H7Y19900   0.987   0.912  17.391
  164DOPC   C3819901   0.838   0.965  16.971
  164DOPC   H8X19902   0.894   0.995  16.692
  164DOPC   H8Y19903   0.766   1.049  16.950
  164DOPC   C3919904   0.769   0.829  16.881
  164DOPC   H9X19905   0.675   0.830  17.076
  164DOPC  C31019906   0.781   0.693  16.719
  164DOPC  H10X19907   0.691   0.633  16.779
  164DOPC  C31119908   0.887   0.597  16.503
  164DOPC  H11X19909   0.807   0.529  16.425
  164DOPC  H11Y19910   0.941   0.540  16.752
  164DOPC  C31219911   0.974   0.536  16.128
  164DOPC  H12X19912   0.906   0.543  15.867
  164DOPC  H12Y19913   0.971   0.425  16.200
  164DOPC  C31319914   1.127   0.540  15.933
  164DOPC  H13X19915   1.152   0.432  15.918
  164DOPC  H13Y19916   1.117   0.579  15.624
  164DOPC  C31419917   1.267   0.606  16.062
  164DOPC  H14X19918   1.303   0.552  16.326
  164DOPC  H14Y19919   1.231   0.703  16.125
  164DOPC  C31519920   1.402   0.651  15.831
  164DOPC  H15X19921   1.485   0.581  15.873
  164DOPC  H15Y19922   1.435   0.738  16.023
  164DOPC  C31619923   1.406   0.716  15.405
  164DOPC  H16X19924   1.306   0.704  15.276
  164DOPC  H16Y19925   1.405   0.826  15.453
  164DOPC  C31719926   1.525   0.685  15.096
  164DOPC  H17X19927   1.489   0.631  14.832
  164DOPC  H17Y19928   1.554   0.777  14.940
  164DOPC  C31819929   1.648   0.598  15.189
  164DOPC  H18X19930   1.653   0.568  15.510
  164DOPC  H18Y19931   1.644   0.505  15.009
  164DOPC  H18Z19932   1.741   0.649  15.099
  165DOPC     N19933   6.143   0.769  21.303
  165DOPC   C1219934   6.125   0.640  21.060
  165DOPC  H12A19935   6.021   0.610  21.084
  165DOPC  H12B19936   6.189   0.562  21.180
  165DOPC   C1319937   6.227   0.865  21.078
  165DOPC  H13A19938   6.326   0.826  21.021
  165DOPC  H13B19939   6.182   0.879  20.778
  165DOPC  H13C19940   6.229   0.963  21.213
  165DOPC   C1419941   6.198   0.739  21.705
  165DOPC  H14A19942   6.297   0.695  21.681
  165DOPC  H14B19943   6.202   0.828  21.891
  165DOPC  H14C19944   6.133   0.669  21.858
  165DOPC   C1519945   6.009   0.837  21.330
  165DOPC  H15A19946   5.977   0.866  21.030
  165DOPC  H15B19947   6.013   0.927  21.513
  165DOPC  H15C19948   5.933   0.771  21.447
  165DOPC   C1119949   6.156   0.646  20.610
  165DOPC  H11A19950   6.265   0.654  20.565
  165DOPC  H11B19951   6.124   0.551  20.463
  165DOPC     P19952   5.976   0.749  20.136
  165DOPC   O1319953   5.929   0.884  20.031
  165DOPC   O1419954   5.878   0.659  20.325
  165DOPC   O1219955   6.098   0.760  20.430
  165DOPC   O1119956   6.045   0.681  19.764
  165DOPC    C119957   6.180   0.711  19.647
  165DOPC    HA19958   6.206   0.642  19.398
  165DOPC    HB19959   6.251   0.691  19.893
  165DOPC    C219960   6.199   0.856  19.494
  165DOPC    HS19961   6.173   0.926  19.743
  165DOPC   O2119962   6.112   0.869  19.164
  165DOPC   C2119963   6.059   0.986  19.101
  165DOPC   O2219964   6.090   1.091  19.263
  165DOPC   C2219965   5.958   0.972  18.765
  165DOPC   H2R19966   5.968   1.060  18.567
  165DOPC   H2S19967   5.857   0.974  18.903
  165DOPC    C319968   6.345   0.883  19.356
  165DOPC    HX19969   6.367   0.805  19.122
  165DOPC    HY19970   6.415   0.866  19.608
  165DOPC   O3119971   6.368   1.010  19.167
  165DOPC   C3119972   6.377   1.116  19.410
  165DOPC   O3219973   6.354   1.115  19.767
  165DOPC   C3219974   6.437   1.235  19.185
  165DOPC   H2X19975   6.378   1.326  19.251
  165DOPC   H2Y19976   6.535   1.250  19.338
  165DOPC   C2319977   5.978   0.842  18.522
  165DOPC   H3R19978   5.889   0.830  18.330
  165DOPC   H3S19979   5.980   0.751  18.717
  165DOPC   C2419980   6.105   0.848  18.264
  165DOPC   H4R19981   6.196   0.856  18.456
  165DOPC   H4S19982   6.099   0.943  18.093
  165DOPC   C2519983   6.119   0.728  17.982
  165DOPC   H5R19984   6.135   0.637  18.168
  165DOPC   H5S19985   6.210   0.741  17.793
  165DOPC   C2619986   5.997   0.705  17.700
  165DOPC   H6R19987   5.923   0.643  17.865
  165DOPC   H6S19988   6.034   0.642  17.448
  165DOPC   C2719989   5.926   0.830  17.517
  165DOPC   H7R19990   5.876   0.889  17.754
  165DOPC   H7S19991   5.848   0.794  17.304
  165DOPC   C2819992   6.026   0.917  17.277
  165DOPC   H8R19993   6.058   0.852  17.031
  165DOPC   H8S19994   6.107   0.919  17.499
  165DOPC   C2919995   6.028   1.061  17.124
  165DOPC   H9R19996   6.028   1.136  17.364
  165DOPC  C21019997   6.044   1.107  16.746
  165DOPC  H10R19998   6.045   1.216  16.704
  165DOPC  C21119999   6.062   1.030  16.359
  165DOPC  H11R20000   5.966   1.031  16.194
  165DOPC  H11S20001   6.085   0.922  16.410
  165DOPC  C21220002   6.168   1.090  16.074
  165DOPC  H12R20003   6.192   1.195  16.152
  165DOPC  H12S20004   6.128   1.091  15.765
  165DOPC  C21320005   6.296   1.006  16.071
  165DOPC  H13R20006   6.272   0.898  16.044
  165DOPC  H13S20007   6.346   1.024  16.362
  165DOPC  C21420008   6.394   1.049  15.750
  165DOPC  H14R20009   6.422   1.152  15.819
  165DOPC  H14S20010   6.341   1.054  15.459
  165DOPC  C21520011   6.521   0.961  15.741
  165DOPC  H15R20012   6.500   0.866  15.585
  165DOPC  H15S20013   6.550   0.937  16.056
  165DOPC  C21620014   6.642   1.029  15.549
  165DOPC  H16R20015   6.657   1.125  15.699
  165DOPC  H16S20016   6.625   1.055  15.231
  165DOPC  C21720017   6.772   0.950  15.591
  165DOPC  H17R20018   6.772   0.867  15.369
  165DOPC  H17S20019   6.777   0.906  15.897
  165DOPC  C21820020   6.894   1.038  15.525
  165DOPC  H18R20021   6.986   0.978  15.471
  165DOPC  H18S20022   6.911   1.105  15.786
  165DOPC  H18T20023   6.875   1.100  15.255
  165DOPC   C3320024   6.465   1.212  18.729
  165DOPC   H3X20025   6.508   1.112  18.675
  165DOPC   H3Y20026   6.539   1.288  18.654
  165DOPC   C3420027   6.351   1.244  18.432
  165DOPC   H4X20028   6.337   1.353  18.495
  165DOPC   H4Y20029   6.259   1.188  18.519
  165DOPC   C3520030   6.372   1.235  17.967
  165DOPC   H5X20031   6.473   1.270  17.883
  165DOPC   H5Y20032   6.306   1.311  17.829
  165DOPC   C3620033   6.333   1.102  17.757
  165DOPC   H6X20034   6.390   1.015  17.883
  165DOPC   H6Y20035   6.222   1.085  17.790
  165DOPC   C3720036   6.338   1.100  17.292
  165DOPC   H7X20037   6.418   1.146  17.133
  165DOPC   H7Y20038   6.267   1.175  17.181
  165DOPC   C3820039   6.315   0.959  17.103
  165DOPC   H8X20040   6.236   0.965  16.878
  165DOPC   H8Y20041   6.286   0.906  17.379
  165DOPC   C3920042   6.412   0.865  16.911
  165DOPC   H9X20043   6.506   0.908  16.800
  165DOPC  C31020044   6.383   0.737  16.833
  165DOPC  H10X20045   6.462   0.675  16.713
  165DOPC  C31120046   6.259   0.656  16.896
  165DOPC  H11X20047   6.171   0.716  16.815
  165DOPC  H11Y20048   6.248   0.618  17.208
  165DOPC  C31220049   6.265   0.538  16.602
  165DOPC  H12X20050   6.346   0.468  16.692
  165DOPC  H12Y20051   6.288   0.572  16.290
  165DOPC  C31320052   6.134   0.460  16.581
  165DOPC  H13X20053   6.151   0.375  16.380
  165DOPC  H13Y20054   6.110   0.418  16.884
  165DOPC  C31420055   6.013   0.538  16.425
  165DOPC  H14X20056   5.926   0.470  16.455
  165DOPC  H14Y20057   5.992   0.627  16.617
  165DOPC  C31520058   6.023   0.583  15.984
  165DOPC  H15X20059   6.072   0.502  15.807
  165DOPC  H15Y20060   6.086   0.674  15.954
  165DOPC  C31620061   5.882   0.608  15.813
  165DOPC  H16X20062   5.809   0.547  15.987
  165DOPC  H16Y20063   5.855   0.714  15.855
  165DOPC  C31720064   5.865   0.565  15.375
  165DOPC  H17X20065   5.884   0.456  15.351
  165DOPC  H17Y20066   5.759   0.581  15.291
  165DOPC  C31820067   5.951   0.641  15.078
  165DOPC  H18X20068   5.922   0.747  15.081
  165DOPC  H18Y20069   6.059   0.632  15.150
  165DOPC  H18Z20070   5.933   0.603  14.766
  166DOPC     N20071   7.313   2.640  20.625
  166DOPC   C1220072   7.349   2.546  20.970
  166DOPC  H12A20073   7.271   2.470  21.003
  166DOPC  H12B20074   7.352   2.598  21.252
  166DOPC   C1320075   7.197   2.726  20.733
  166DOPC  H13A20076   7.111   2.663  20.796
  166DOPC  H13B20077   7.215   2.784  21.000
  166DOPC  H13C20078   7.171   2.791  20.487
  166DOPC   C1420079   7.275   2.555  20.268
  166DOPC  H14A20080   7.245   2.612  20.007
  166DOPC  H14B20081   7.359   2.492  20.187
  166DOPC  H14C20082   7.195   2.485  20.340
  166DOPC   C1520083   7.433   2.722  20.511
  166DOPC  H15A20084   7.508   2.654  20.388
  166DOPC  H15B20085   7.477   2.769  20.772
  166DOPC  H15C20086   7.410   2.796  20.283
  166DOPC   C1120087   7.479   2.464  20.919
  166DOPC  H11A20088   7.565   2.525  20.823
  166DOPC  H11B20089   7.512   2.418  21.210
  166DOPC     P20090   7.376   2.234  20.766
  166DOPC   O1320091   7.253   2.278  20.973
  166DOPC   O1420092   7.462   2.139  20.988
  166DOPC   O1220093   7.456   2.363  20.628
  166DOPC   O1120094   7.345   2.167  20.343
  166DOPC    C120095   7.466   2.149  20.109
  166DOPC    HA20096   7.537   2.080  20.262
  166DOPC    HB20097   7.519   2.245  20.061
  166DOPC    C220098   7.436   2.088  19.695
  166DOPC    HS20099   7.530   2.083  19.518
  166DOPC   O2120100   7.337   2.166  19.482
  166DOPC   C2120101   7.384   2.284  19.368
  166DOPC   O2220102   7.496   2.327  19.419
  166DOPC   C2220103   7.278   2.361  19.137
  166DOPC   H2R20104   7.290   2.470  19.197
  166DOPC   H2S20105   7.179   2.329  19.248
  166DOPC    C320106   7.387   1.943  19.746
  166DOPC    HX20107   7.314   1.936  19.998
  166DOPC    HY20108   7.474   1.879  19.827
  166DOPC   O3120109   7.335   1.899  19.371
  166DOPC   C3120110   7.204   1.914  19.332
  166DOPC   O3220111   7.126   1.931  19.605
  166DOPC   C3220112   7.173   1.909  18.888
  166DOPC   H2X20113   7.150   1.805  18.807
  166DOPC   H2Y20114   7.084   1.969  18.831
  166DOPC   C2320115   7.288   2.333  18.681
  166DOPC   H3R20116   7.195   2.369  18.528
  166DOPC   H3S20117   7.289   2.224  18.645
  166DOPC   C2420118   7.411   2.391  18.468
  166DOPC   H4R20119   7.503   2.375  18.648
  166DOPC   H4S20120   7.398   2.501  18.429
  166DOPC   C2520121   7.433   2.330  18.051
  166DOPC   H5R20122   7.454   2.221  18.075
  166DOPC   H5S20123   7.525   2.374  17.913
  166DOPC   C2620124   7.314   2.354  17.769
  166DOPC   H6R20125   7.274   2.457  17.814
  166DOPC   H6S20126   7.232   2.282  17.835
  166DOPC   C2720127   7.356   2.339  17.331
  166DOPC   H7R20128   7.419   2.247  17.319
  166DOPC   H7S20129   7.419   2.425  17.244
  166DOPC   C2820130   7.238   2.325  17.040
  166DOPC   H8R20131   7.178   2.418  17.031
  166DOPC   H8S20132   7.171   2.243  17.139
  166DOPC   C2920133   7.302   2.292  16.647
  166DOPC   H9R20134   7.379   2.215  16.668
  166DOPC  C21020135   7.285   2.351  16.296
  166DOPC  H10R20136   7.335   2.305  16.035
  166DOPC  C21120137   7.194   2.469  16.215
  166DOPC  H11R20138   7.228   2.555  16.401
  166DOPC  H11S20139   7.090   2.445  16.308
  166DOPC  C21220140   7.197   2.514  15.771
  166DOPC  H12R20141   7.140   2.607  15.729
  166DOPC  H12S20142   7.153   2.436  15.576
  166DOPC  C21320143   7.340   2.545  15.648
  166DOPC  H13R20144   7.389   2.447  15.678
  166DOPC  H13S20145   7.387   2.616  15.864
  166DOPC  C21420146   7.364   2.593  15.216
  166DOPC  H14R20147   7.321   2.694  15.168
  166DOPC  H14S20148   7.312   2.523  15.012
  166DOPC  C21520149   7.515   2.594  15.123
  166DOPC  H15R20150   7.560   2.692  15.201
  166DOPC  H15S20151   7.530   2.579  14.793
  166DOPC  C21620152   7.590   2.483  15.348
  166DOPC  H16R20153   7.539   2.387  15.279
  166DOPC  H16S20154   7.586   2.499  15.681
  166DOPC  C21720155   7.736   2.468  15.249
  166DOPC  H17R20156   7.784   2.553  15.390
  166DOPC  H17S20157   7.756   2.478  14.925
  166DOPC  C21820158   7.789   2.335  15.411
  166DOPC  H18R20159   7.843   2.347  15.699
  166DOPC  H18S20160   7.855   2.284  15.189
  166DOPC  H18T20161   7.703   2.267  15.468
  166DOPC   C3320162   7.287   1.963  18.627
  166DOPC   H3X20163   7.360   1.882  18.561
  166DOPC   H3Y20164   7.346   2.041  18.786
  166DOPC   C3420165   7.230   2.022  18.240
  166DOPC   H4X20166   7.291   2.107  18.141
  166DOPC   H4Y20167   7.125   2.056  18.267
  166DOPC   C3520168   7.246   1.916  17.925
  166DOPC   H5X20169   7.193   1.826  18.021
  166DOPC   H5Y20170   7.353   1.890  17.949
  166DOPC   C3620171   7.210   1.959  17.499
  166DOPC   H6X20172   7.101   1.977  17.472
  166DOPC   H6Y20173   7.256   2.058  17.433
  166DOPC   C3720174   7.261   1.853  17.202
  166DOPC   H7X20175   7.203   1.759  17.235
  166DOPC   H7Y20176   7.247   1.889  16.890
  166DOPC   C3820177   7.411   1.822  17.268
  166DOPC   H8X20178   7.448   1.760  17.016
  166DOPC   H8Y20179   7.425   1.762  17.541
  166DOPC   C3920180   7.486   1.951  17.313
  166DOPC   H9X20181   7.504   1.987  17.619
  166DOPC  C31020182   7.520   2.027  17.007
  166DOPC  H10X20183   7.568   2.124  17.058
  166DOPC  C31120184   7.487   1.991  16.581
  166DOPC  H11X20185   7.386   2.026  16.491
  166DOPC  H11Y20186   7.488   1.882  16.524
  166DOPC  C31220187   7.593   2.061  16.338
  166DOPC  H12X20188   7.694   2.021  16.392
  166DOPC  H12Y20189   7.596   2.170  16.407
  166DOPC  C31320190   7.563   2.044  15.900
  166DOPC  H13X20191   7.464   2.093  15.855
  166DOPC  H13Y20192   7.639   2.105  15.741
  166DOPC  C31420193   7.563   1.900  15.741
  166DOPC  H14X20194   7.657   1.848  15.813
  166DOPC  H14Y20195   7.483   1.841  15.891
  166DOPC  C31520196   7.545   1.890  15.282
  166DOPC  H15X20197   7.467   1.813  15.222
  166DOPC  H15Y20198   7.637   1.852  15.135
  166DOPC  C31620199   7.502   2.023  15.096
  166DOPC  H16X20200   7.564   2.108  15.192
  166DOPC  H16Y20201   7.512   2.020  14.766
  166DOPC  C31720202   7.355   2.042  15.207
  166DOPC  H17X20203   7.301   1.992  14.961
  166DOPC  H17Y20204   7.338   1.985  15.489
  166DOPC  C31820205   7.294   2.179  15.279
  166DOPC  H18X20206   7.368   2.253  15.384
  166DOPC  H18Y20207   7.253   2.210  14.988
  166DOPC  H18Z20208   7.209   2.174  15.492
  167DOPC     N20209   6.519   1.197  20.655
  167DOPC   C1220210   6.644   1.192  20.394
  167DOPC  H12A20211   6.702   1.282  20.463
  167DOPC  H12B20212   6.613   1.197  20.082
  167DOPC   C1320213   6.443   1.320  20.544
  167DOPC  H13A20214   6.501   1.410  20.556
  167DOPC  H13B20215   6.397   1.308  20.250
  167DOPC  H13C20216   6.361   1.332  20.757
  167DOPC   C1420217   6.558   1.203  21.084
  167DOPC  H14A20218   6.472   1.203  21.282
  167DOPC  H14B20219   6.626   1.120  21.147
  167DOPC  H14C20220   6.618   1.291  21.150
  167DOPC   C1520221   6.428   1.080  20.601
  167DOPC  H15A20222   6.411   1.056  20.286
  167DOPC  H15B20223   6.328   1.103  20.709
  167DOPC  H15C20224   6.468   0.994  20.754
  167DOPC   C1120225   6.742   1.074  20.445
  167DOPC  H11A20226   6.694   0.983  20.340
  167DOPC  H11B20227   6.826   1.087  20.229
  167DOPC     P20228   6.922   1.116  20.991
  167DOPC   O1320229   6.971   1.045  21.348
  167DOPC   O1420230   6.914   1.264  20.985
  167DOPC   O1220231   6.787   1.054  20.844
  167DOPC   O1120232   7.021   1.065  20.652
  167DOPC    C120233   7.120   1.152  20.493
  167DOPC    HA20234   7.221   1.113  20.562
  167DOPC    HB20235   7.118   1.256  20.619
  167DOPC    C220236   7.106   1.165  20.034
  167DOPC    HS20237   7.188   1.234  19.953
  167DOPC   O2120238   6.975   1.213  19.929
  167DOPC   C2120239   6.980   1.324  19.731
  167DOPC   O2220240   7.066   1.409  19.752
  167DOPC   C2220241   6.871   1.323  19.425
  167DOPC   H2R20242   6.778   1.277  19.536
  167DOPC   H2S20243   6.913   1.258  19.185
  167DOPC    C320244   7.132   1.033  19.794
  167DOPC    HX20245   7.190   0.965  19.989
  167DOPC    HY20246   7.201   1.063  19.548
  167DOPC   O3120247   7.012   0.973  19.626
  167DOPC   C3120248   6.964   0.871  19.839
  167DOPC   O3220249   7.025   0.811  20.097
  167DOPC   C3220250   6.818   0.839  19.749
  167DOPC   H2X20251   6.818   0.746  19.572
  167DOPC   H2Y20252   6.773   0.809  20.037
  167DOPC   C2320253   6.849   1.466  19.272
  167DOPC   H3R20254   6.944   1.507  19.146
  167DOPC   H3S20255   6.820   1.534  19.521
  167DOPC   C2420256   6.742   1.465  18.948
  167DOPC   H4R20257   6.735   1.566  18.816
  167DOPC   H4S20258   6.645   1.444  19.098
  167DOPC   C2520259   6.765   1.357  18.627
  167DOPC   H5R20260   6.697   1.379  18.372
  167DOPC   H5S20261   6.735   1.258  18.750
  167DOPC   C2620262   6.906   1.335  18.462
  167DOPC   H6R20263   6.939   1.230  18.510
  167DOPC   H6S20264   6.981   1.402  18.612
  167DOPC   C2720265   6.911   1.370  18.024
  167DOPC   H7R20266   7.018   1.386  17.946
  167DOPC   H7S20267   6.851   1.464  17.994
  167DOPC   C2820268   6.850   1.275  17.727
  167DOPC   H8R20269   6.739   1.268  17.769
  167DOPC   H8S20270   6.892   1.172  17.760
  167DOPC   C2920271   6.887   1.344  17.340
  167DOPC   H9R20272   6.817   1.424  17.253
  167DOPC  C21020273   6.986   1.308  17.094
  167DOPC  H10R20274   7.009   1.372  16.833
  167DOPC  C21120275   7.075   1.190  17.181
  167DOPC  H11R20276   7.078   1.178  17.511
  167DOPC  H11S20277   7.176   1.226  17.112
  167DOPC  C21220278   7.051   1.048  16.959
  167DOPC  H12R20279   6.972   1.047  17.196
  167DOPC  H12S20280   7.153   1.024  17.064
  167DOPC  C21320281   7.029   0.890  17.034
  167DOPC  H13R20282   6.932   0.860  16.905
  167DOPC  H13S20283   7.022   0.866  17.358
  167DOPC  C21420284   7.140   0.795  16.875
  167DOPC  H14R20285   7.162   0.720  17.118
  167DOPC  H14S20286   7.229   0.853  16.827
  167DOPC  C21520287   7.122   0.715  16.485
  167DOPC  H15R20288   7.079   0.616  16.554
  167DOPC  H15S20289   7.224   0.695  16.362
  167DOPC  C21620290   7.036   0.777  16.149
  167DOPC  H16R20291   7.099   0.843  15.963
  167DOPC  H16S20292   6.953   0.837  16.275
  167DOPC  C21720293   6.977   0.668  15.882
  167DOPC  H17R20294   6.903   0.713  15.675
  167DOPC  H17S20295   6.922   0.594  16.071
  167DOPC  C21820296   7.082   0.594  15.636
  167DOPC  H18R20297   7.035   0.510  15.468
  167DOPC  H18S20298   7.161   0.552  15.834
  167DOPC  H18T20299   7.129   0.663  15.417
  167DOPC   C3320300   6.732   0.950  19.560
  167DOPC   H3X20301   6.788   1.044  19.506
  167DOPC   H3Y20302   6.643   0.974  19.749
  167DOPC   C3420303   6.676   0.897  19.173
  167DOPC   H4X20304   6.621   0.979  19.014
  167DOPC   H4Y20305   6.604   0.815  19.227
  167DOPC   C3520306   6.786   0.845  18.903
  167DOPC   H5X20307   6.825   0.746  18.996
  167DOPC   H5Y20308   6.873   0.914  18.900
  167DOPC   C3620309   6.722   0.836  18.501
  167DOPC   H6X20310   6.652   0.921  18.450
  167DOPC   H6Y20311   6.802   0.841  18.270
  167DOPC   C3720312   6.646   0.706  18.444
  167DOPC   H7X20313   6.701   0.632  18.633
  167DOPC   H7Y20314   6.541   0.706  18.555
  167DOPC   C3820315   6.661   0.673  17.997
  167DOPC   H8X20316   6.626   0.573  17.919
  167DOPC   H8Y20317   6.769   0.669  17.946
  167DOPC   C3920318   6.585   0.780  17.769
  167DOPC   H9X20319   6.478   0.754  17.784
  167DOPC  C31020320   6.616   0.893  17.559
  167DOPC  H10X20321   6.532   0.955  17.466
  167DOPC  C31120322   6.737   0.977  17.472
  167DOPC  H11X20323   6.835   0.932  17.550
  167DOPC  H11Y20324   6.723   1.060  17.679
  167DOPC  C31220325   6.727   1.040  17.040
  167DOPC  H12X20326   6.701   0.964  16.812
  167DOPC  H12Y20327   6.819   1.083  16.920
  167DOPC  C31320328   6.645   1.169  17.031
  167DOPC  H13X20329   6.592   1.179  17.316
  167DOPC  H13Y20330   6.702   1.261  17.046
  167DOPC  C31420331   6.576   1.202  16.638
  167DOPC  H14X20332   6.530   1.111  16.509
  167DOPC  H14Y20333   6.493   1.274  16.704
  167DOPC  C31520334   6.675   1.267  16.350
  167DOPC  H15X20335   6.735   1.185  16.218
  167DOPC  H15Y20336   6.747   1.333  16.509
  167DOPC  C31620337   6.604   1.355  16.044
  167DOPC  H16X20338   6.508   1.309  15.966
  167DOPC  H16Y20339   6.575   1.450  16.176
  167DOPC  C31720340   6.684   1.382  15.666
  167DOPC  H17X20341   6.728   1.484  15.663
  167DOPC  H17Y20342   6.770   1.311  15.669
  167DOPC  C31820343   6.600   1.360  15.288
  167DOPC  H18X20344   6.649   1.285  15.090
  167DOPC  H18Y20345   6.500   1.321  15.363
  167DOPC  H18Z20346   6.587   1.456  15.123
  168DOPC     N20347   2.104   7.533  20.979
  168DOPC   C1220348   2.075   7.596  20.571
  168DOPC  H12A20349   2.052   7.517  20.358
  168DOPC  H12B20350   2.164   7.645  20.460
  168DOPC   C1320351   2.247   7.493  21.015
  168DOPC  H13A20352   2.265   7.449  21.309
  168DOPC  H13B20353   2.275   7.421  20.787
  168DOPC  H13C20354   2.312   7.579  20.985
  168DOPC   C1420355   2.012   7.415  21.030
  168DOPC  H14A20356   2.022   7.346  20.778
  168DOPC  H14B20357   2.023   7.366  21.315
  168DOPC  H14C20358   1.909   7.451  21.000
  168DOPC   C1520359   2.078   7.631  21.306
  168DOPC  H15A20360   2.142   7.717  21.267
  168DOPC  H15B20361   2.099   7.589  21.600
  168DOPC  H15C20362   1.975   7.665  21.282
  168DOPC   C1120363   1.958   7.698  20.535
  168DOPC  H11A20364   1.986   7.791  20.694
  168DOPC  H11B20365   1.946   7.727  20.214
  168DOPC     P20366   1.745   7.555  20.430
  168DOPC   O1320367   1.699   7.634  20.082
  168DOPC   O1420368   1.647   7.485  20.688
  168DOPC   O1220369   1.836   7.648  20.703
  168DOPC   O1120370   1.853   7.446  20.289
  168DOPC    C120371   1.808   7.312  20.211
  168DOPC    HA20372   1.697   7.298  20.241
  168DOPC    HB20373   1.856   7.246  20.433
  168DOPC    C220374   1.842   7.258  19.788
  168DOPC    HS20375   1.822   7.148  19.785
  168DOPC   O2120376   1.975   7.288  19.662
  168DOPC   C2120377   2.060   7.208  19.806
  168DOPC   O2220378   2.043   7.128  20.079
  168DOPC   C2220379   2.182   7.214  19.530
  168DOPC   H2R20380   2.233   7.116  19.557
  168DOPC   H2S20381   2.246   7.295  19.644
  168DOPC    C320382   1.759   7.315  19.446
  168DOPC    HX20383   1.653   7.292  19.488
  168DOPC    HY20384   1.796   7.259  19.173
  168DOPC   O3120385   1.782   7.457  19.413
  168DOPC   C3120386   1.745   7.497  19.056
  168DOPC   O3220387   1.694   7.422  18.810
  168DOPC   C3220388   1.778   7.644  18.990
  168DOPC   H2X20389   1.825   7.685  19.263
  168DOPC   H2Y20390   1.850   7.648  18.738
  168DOPC   C2320391   2.148   7.245  19.086
  168DOPC   H3R20392   2.050   7.199  19.017
  168DOPC   H3S20393   2.226   7.196  18.894
  168DOPC   C2420394   2.138   7.393  18.972
  168DOPC   H4R20395   2.175   7.456  19.221
  168DOPC   H4S20396   2.030   7.413  18.936
  168DOPC   C2520397   2.210   7.432  18.579
  168DOPC   H5R20398   2.233   7.341  18.399
  168DOPC   H5S20399   2.309   7.477  18.657
  168DOPC   C2620400   2.129   7.529  18.318
  168DOPC   H6R20401   2.185   7.624  18.285
  168DOPC   H6S20402   2.034   7.555  18.474
  168DOPC   C2720403   2.093   7.476  17.898
  168DOPC   H7R20404   2.187   7.464  17.721
  168DOPC   H7S20405   2.035   7.556  17.745
  168DOPC   C2820406   2.015   7.343  17.883
  168DOPC   H8R20407   2.075   7.263  18.027
  168DOPC   H8S20408   2.004   7.314  17.562
  168DOPC   C2920409   1.881   7.353  18.084
  168DOPC   H9R20410   1.885   7.363  18.414
  168DOPC  C21020411   1.760   7.354  17.907
  168DOPC  H10R20412   1.670   7.371  18.090
  168DOPC  C21120413   1.737   7.346  17.463
  168DOPC  H11R20414   1.630   7.326  17.388
  168DOPC  H11S20415   1.797   7.265  17.334
  168DOPC  C21220416   1.774   7.481  17.286
  168DOPC  H12R20417   1.875   7.513  17.379
  168DOPC  H12S20418   1.700   7.552  17.412
  168DOPC  C21320419   1.774   7.489  16.830
  168DOPC  H13R20420   1.727   7.585  16.731
  168DOPC  H13S20421   1.712   7.406  16.707
  168DOPC  C21420422   1.916   7.486  16.656
  168DOPC  H14R20423   1.975   7.406  16.806
  168DOPC  H14S20424   1.967   7.583  16.716
  168DOPC  C21520425   1.918   7.458  16.212
  168DOPC  H15R20426   1.933   7.349  16.173
  168DOPC  H15S20427   2.003   7.510  16.062
  168DOPC  C21620428   1.789   7.493  15.996
  168DOPC  H16R20429   1.764   7.601  16.008
  168DOPC  H16S20430   1.700   7.447  16.134
  168DOPC  C21720431   1.802   7.434  15.579
  168DOPC  H17R20432   1.877   7.352  15.588
  168DOPC  H17S20433   1.842   7.508  15.366
  168DOPC  C21820434   1.671   7.369  15.462
  168DOPC  H18R20435   1.677   7.261  15.516
  168DOPC  H18S20436   1.641   7.391  15.150
  168DOPC  H18T20437   1.590   7.410  15.654
  168DOPC   C3320438   1.651   7.724  18.885
  168DOPC   H3X20439   1.585   7.725  19.155
  168DOPC   H3Y20440   1.596   7.674  18.636
  168DOPC   C3420441   1.678   7.870  18.765
  168DOPC   H4X20442   1.722   7.921  19.029
  168DOPC   H4Y20443   1.581   7.920  18.699
  168DOPC   C3520444   1.771   7.888  18.405
  168DOPC   H5X20445   1.874   7.855  18.492
  168DOPC   H5Y20446   1.776   7.998  18.336
  168DOPC   C3620447   1.733   7.816  18.018
  168DOPC   H6X20448   1.714   7.708  18.066
  168DOPC   H6Y20449   1.640   7.862  17.892
  168DOPC   C3720450   1.847   7.831  17.718
  168DOPC   H7X20451   1.891   7.932  17.742
  168DOPC   H7Y20452   1.928   7.758  17.793
  168DOPC   C3820453   1.810   7.815  17.277
  168DOPC   H8X20454   1.759   7.721  17.220
  168DOPC   H8Y20455   1.909   7.806  17.130
  168DOPC   C3920456   1.722   7.923  17.103
  168DOPC   H9X20457   1.618   7.925  17.211
  168DOPC  C31020458   1.762   8.007  16.815
  168DOPC  H10X20459   1.693   8.082  16.689
  168DOPC  C31120460   1.901   8.000  16.644
  168DOPC  H11X20461   1.978   8.006  16.884
  168DOPC  H11Y20462   1.920   8.086  16.440
  168DOPC  C31220463   1.924   7.875  16.392
  168DOPC  H12X20464   1.907   7.780  16.557
  168DOPC  H12Y20465   2.031   7.873  16.302
  168DOPC  C31320466   1.831   7.873  16.029
  168DOPC  H13X20467   1.732   7.831  16.122
  168DOPC  H13Y20468   1.814   7.977  15.921
  168DOPC  C31420469   1.892   7.793  15.693
  168DOPC  H14X20470   1.920   7.691  15.792
  168DOPC  H14Y20471   1.816   7.781  15.450
  168DOPC  C31520472   2.023   7.852  15.546
  168DOPC  H15X20473   2.106   7.806  15.723
  168DOPC  H15Y20474   2.027   7.961  15.597
  168DOPC  C31620475   2.040   7.817  15.108
  168DOPC  H16X20476   2.145   7.839  15.012
  168DOPC  H16Y20477   2.024   7.707  15.093
  168DOPC  C31720478   1.942   7.890  14.829
  168DOPC  H17X20479   1.967   7.866  14.511
  168DOPC  H17Y20480   1.838   7.855  14.880
  168DOPC  C31820481   1.945   8.042  14.862
  168DOPC  H18X20482   2.049   8.079  14.811
  168DOPC  H18Y20483   1.879   8.082  14.625
  168DOPC  H18Z20484   1.908   8.077  15.156
  169DOPC     N20485   0.575   1.133  21.105
  169DOPC   C1220486   0.517   1.268  20.991
  169DOPC  H12A20487   0.521   1.283  20.670
  169DOPC  H12B20488   0.574   1.347  21.132
  169DOPC   C1320489   0.518   1.030  20.829
  169DOPC  H13A20490   0.536   0.930  20.940
  169DOPC  H13B20491   0.409   1.046  20.802
  169DOPC  H13C20492   0.557   1.038  20.529
  169DOPC   C1420493   0.538   1.099  21.531
  169DOPC  H14A20494   0.586   1.009  21.636
  169DOPC  H14B20495   0.567   1.182  21.729
  169DOPC  H14C20496   0.430   1.088  21.552
  169DOPC   C1520497   0.723   1.134  21.078
  169DOPC  H15A20498   0.761   1.143  20.775
  169DOPC  H15B20499   0.764   1.043  21.204
  169DOPC  H15C20500   0.760   1.216  21.261
  169DOPC   C1120501   0.368   1.291  21.096
  169DOPC  H11A20502   0.346   1.269  21.417
  169DOPC  H11B20503   0.350   1.401  21.069
  169DOPC     P20504   0.227   1.287  20.457
  169DOPC   O1320505   0.166   1.415  20.583
  169DOPC   O1420506   0.150   1.194  20.208
  169DOPC   O1220507   0.283   1.211  20.844
  169DOPC   O1120508   0.364   1.319  20.256
  169DOPC    C120509   0.439   1.251  19.965
  169DOPC    HA20510   0.375   1.205  19.731
  169DOPC    HB20511   0.500   1.172  20.109
  169DOPC    C220512   0.530   1.358  19.782
  169DOPC    HS20513   0.555   1.435  20.013
  169DOPC   O2120514   0.460   1.415  19.455
  169DOPC   C2120515   0.377   1.514  19.503
  169DOPC   O2220516   0.353   1.579  19.803
  169DOPC   C2220517   0.336   1.547  19.074
  169DOPC   H2R20518   0.253   1.618  19.086
  169DOPC   H2S20519   0.304   1.453  18.930
  169DOPC    C320520   0.664   1.302  19.617
  169DOPC    HX20521   0.704   1.229  19.836
  169DOPC    HY20522   0.737   1.385  19.596
  169DOPC   O3120523   0.643   1.234  19.242
  169DOPC   C3120524   0.684   1.301  18.921
  169DOPC   O3220525   0.742   1.408  18.912
  169DOPC   C3220526   0.661   1.217  18.561
  169DOPC   H2X20527   0.573   1.152  18.594
  169DOPC   H2Y20528   0.651   1.277  18.282
  169DOPC   C2320529   0.463   1.606  18.879
  169DOPC   H3R20530   0.554   1.550  18.978
  169DOPC   H3S20531   0.475   1.707  19.008
  169DOPC   C2420532   0.475   1.603  18.423
  169DOPC   H4R20533   0.582   1.624  18.345
  169DOPC   H4S20534   0.416   1.684  18.279
  169DOPC   C2520535   0.440   1.468  18.240
  169DOPC   H5R20536   0.335   1.440  18.312
  169DOPC   H5S20537   0.503   1.393  18.378
  169DOPC   C2620538   0.455   1.470  17.787
  169DOPC   H6R20539   0.484   1.370  17.670
  169DOPC   H6S20540   0.535   1.539  17.685
  169DOPC   C2720541   0.319   1.507  17.622
  169DOPC   H7R20542   0.295   1.609  17.730
  169DOPC   H7S20543   0.243   1.443  17.766
  169DOPC   C2820544   0.312   1.487  17.169
  169DOPC   H8R20545   0.208   1.469  17.064
  169DOPC   H8S20546   0.373   1.400  17.076
  169DOPC   C2920547   0.361   1.618  17.025
  169DOPC   H9R20548   0.315   1.704  17.178
  169DOPC  C21020549   0.454   1.641  16.755
  169DOPC  H10R20550   0.467   1.744  16.653
  169DOPC  C21120551   0.531   1.539  16.533
  169DOPC  H11R20552   0.510   1.571  16.221
  169DOPC  H11S20553   0.490   1.436  16.572
  169DOPC  C21220554   0.683   1.534  16.587
  169DOPC  H12R20555   0.711   1.454  16.806
  169DOPC  H12S20556   0.724   1.630  16.704
  169DOPC  C21320557   0.743   1.501  16.179
  169DOPC  H13R20558   0.853   1.481  16.200
  169DOPC  H13S20559   0.729   1.587  15.972
  169DOPC  C21420560   0.666   1.381  16.008
  169DOPC  H14R20561   0.563   1.413  15.948
  169DOPC  H14S20562   0.664   1.297  16.227
  169DOPC  C21520563   0.715   1.334  15.606
  169DOPC  H15R20564   0.730   1.423  15.414
  169DOPC  H15S20565   0.643   1.277  15.426
  169DOPC  C21620566   0.831   1.242  15.690
  169DOPC  H16R20567   0.795   1.136  15.684
  169DOPC  H16S20568   0.868   1.260  16.002
  169DOPC  C21720569   0.943   1.270  15.405
  169DOPC  H17R20570   0.909   1.234  15.105
  169DOPC  H17S20571   1.029   1.208  15.504
  169DOPC  C21820572   0.986   1.417  15.381
  169DOPC  H18R20573   1.060   1.439  15.621
  169DOPC  H18S20574   0.906   1.492  15.414
  169DOPC  H18T20575   1.034   1.436  15.087
  169DOPC   C3320576   0.788   1.138  18.495
  169DOPC   H3X20577   0.875   1.204  18.426
  169DOPC   H3Y20578   0.755   1.084  18.231
  169DOPC   C3420579   0.822   1.033  18.810
  169DOPC   H4X20580   0.845   1.087  19.095
  169DOPC   H4Y20581   0.914   0.979  18.723
  169DOPC   C3520582   0.712   0.929  18.879
  169DOPC   H5X20583   0.614   0.978  18.930
  169DOPC   H5Y20584   0.738   0.879  19.170
  169DOPC   C3620585   0.701   0.818  18.561
  169DOPC   H6X20586   0.799   0.766  18.543
  169DOPC   H6Y20587   0.629   0.743  18.672
  169DOPC   C3720588   0.658   0.855  18.129
  169DOPC   H7X20589   0.744   0.895  17.958
  169DOPC   H7Y20590   0.638   0.758  17.985
  169DOPC   C3820591   0.536   0.950  18.084
  169DOPC   H8X20592   0.576   1.049  17.991
  169DOPC   H8Y20593   0.491   0.963  18.387
  169DOPC   C3920594   0.425   0.911  17.805
  169DOPC   H9X20595   0.394   0.807  17.820
  169DOPC  C31020596   0.366   0.987  17.529
  169DOPC  H10X20597   0.284   0.943  17.352
  169DOPC  C31120598   0.398   1.130  17.427
  169DOPC  H11X20599   0.421   1.187  17.703
  169DOPC  H11Y20600   0.310   1.179  17.286
  169DOPC  C31220601   0.514   1.141  17.127
  169DOPC  H12X20602   0.611   1.133  17.292
  169DOPC  H12Y20603   0.514   1.241  16.983
  169DOPC  C31320604   0.511   1.034  16.794
  169DOPC  H13X20605   0.594   1.051  16.578
  169DOPC  H13Y20606   0.527   0.936  16.938
  169DOPC  C31420607   0.377   1.022  16.572
  169DOPC  H14X20608   0.373   0.923  16.419
  169DOPC  H14Y20609   0.292   1.027  16.782
  169DOPC  C31520610   0.358   1.132  16.260
  169DOPC  H15X20611   0.393   1.229  16.383
  169DOPC  H15Y20612   0.249   1.141  16.203
  169DOPC  C31620613   0.431   1.097  15.873
  169DOPC  H16X20614   0.539   1.084  15.939
  169DOPC  H16Y20615   0.392   0.999  15.762
  169DOPC  C31720616   0.417   1.205  15.552
  169DOPC  H17X20617   0.452   1.298  15.690
  169DOPC  H17Y20618   0.478   1.187  15.285
  169DOPC  C31820619   0.280   1.243  15.426
  169DOPC  H18X20620   0.224   1.163  15.267
  169DOPC  H18Y20621   0.230   1.264  15.708
  169DOPC  H18Z20622   0.284   1.337  15.249
  170DOPC     N20623   6.959   7.076  20.403
  170DOPC   C1220624   6.898   7.036  20.808
  170DOPC  H12A20625   6.899   7.124  21.000
  170DOPC  H12B20626   6.962   6.963  20.949
  170DOPC   C1320627   7.106   7.103  20.448
  170DOPC  H13A20628   7.144   7.147  20.172
  170DOPC  H13B20629   7.128   7.171  20.691
  170DOPC  H13C20630   7.162   7.011  20.502
  170DOPC   C1420631   6.887   7.199  20.262
  170DOPC  H14A20632   6.779   7.180  20.265
  170DOPC  H14B20633   6.899   7.281  20.475
  170DOPC  H14C20634   6.916   7.232  19.968
  170DOPC   C1520635   6.943   6.965  20.106
  170DOPC  H15A20636   6.994   6.987  19.827
  170DOPC  H15B20637   6.838   6.949  20.049
  170DOPC  H15C20638   6.983   6.871  20.220
  170DOPC   C1120639   6.752   6.983  20.817
  170DOPC  H11A20640   6.740   6.901  20.598
  170DOPC  H11B20641   6.730   6.939  21.117
  170DOPC     P20642   6.630   7.198  21.054
  170DOPC   O1320643   6.755   7.277  21.102
  170DOPC   O1420644   6.580   7.121  21.402
  170DOPC   O1220645   6.659   7.087  20.721
  170DOPC   O1120646   6.511   7.276  20.856
  170DOPC    C120647   6.514   7.331  20.460
  170DOPC    HA20648   6.616   7.365  20.370
  170DOPC    HB20649   6.450   7.423  20.466
  170DOPC    C220650   6.453   7.235  20.139
  170DOPC    HS20651   6.354   7.202  20.256
  170DOPC   O2120652   6.539   7.125  20.040
  170DOPC   C2120653   6.487   7.006  19.995
  170DOPC   O2220654   6.375   6.971  20.100
  170DOPC   C2220655   6.596   6.916  19.809
  170DOPC   H2R20656   6.622   6.843  20.046
  170DOPC   H2S20657   6.685   6.977  19.737
  170DOPC    C320658   6.432   7.312  19.746
  170DOPC    HX20659   6.375   7.404  19.809
  170DOPC    HY20660   6.369   7.248  19.548
  170DOPC   O3120661   6.565   7.343  19.593
  170DOPC   C3120662   6.590   7.288  19.239
  170DOPC   O3220663   6.505   7.247  19.011
  170DOPC   C3220664   6.740   7.278  19.152
  170DOPC   H2X20665   6.774   7.180  19.272
  170DOPC   H2Y20666   6.749   7.274  18.819
  170DOPC   C2320667   6.556   6.838  19.425
  170DOPC   H3R20668   6.453   6.795  19.458
  170DOPC   H3S20669   6.626   6.751  19.392
  170DOPC   C2420670   6.564   6.921  19.038
  170DOPC   H4R20671   6.665   6.967  19.011
  170DOPC   H4S20672   6.489   7.003  19.059
  170DOPC   C2520673   6.535   6.838  18.660
  170DOPC   H5R20674   6.434   6.793  18.690
  170DOPC   H5S20675   6.608   6.754  18.639
  170DOPC   C2620676   6.540   6.918  18.270
  170DOPC   H6R20677   6.513   6.849  18.018
  170DOPC   H6S20678   6.644   6.954  18.213
  170DOPC   C2720679   6.444   7.039  18.255
  170DOPC   H7R20680   6.490   7.122  18.423
  170DOPC   H7S20681   6.349   7.013  18.408
  170DOPC   C2820682   6.413   7.086  17.823
  170DOPC   H8R20683   6.349   7.177  17.832
  170DOPC   H8S20684   6.352   7.006  17.676
  170DOPC   C2920685   6.540   7.110  17.592
  170DOPC   H9R20686   6.565   7.030  17.376
  170DOPC  C21020687   6.622   7.216  17.616
  170DOPC  H10R20688   6.719   7.210  17.457
  170DOPC  C21120689   6.610   7.338  17.877
  170DOPC  H11R20690   6.712   7.370  17.970
  170DOPC  H11S20691   6.559   7.312  18.162
  170DOPC  C21220692   6.535   7.459  17.694
  170DOPC  H12R20693   6.569   7.550  17.859
  170DOPC  H12S20694   6.428   7.444  17.772
  170DOPC  C21320695   6.538   7.483  17.229
  170DOPC  H13R20696   6.477   7.572  17.166
  170DOPC  H13S20697   6.485   7.399  17.082
  170DOPC  C21420698   6.682   7.497  17.061
  170DOPC  H14R20699   6.706   7.391  17.103
  170DOPC  H14S20700   6.733   7.566  17.271
  170DOPC  C21520701   6.740   7.529  16.629
  170DOPC  H15R20702   6.807   7.617  16.644
  170DOPC  H15S20703   6.668   7.547  16.392
  170DOPC  C21620704   6.815   7.415  16.422
  170DOPC  H16R20705   6.753   7.326  16.497
  170DOPC  H16S20706   6.916   7.405  16.548
  170DOPC  C21720707   6.828   7.421  15.960
  170DOPC  H17R20708   6.727   7.421  15.825
  170DOPC  H17S20709   6.879   7.327  15.858
  170DOPC  C21820710   6.907   7.539  15.795
  170DOPC  H18R20711   6.924   7.528  15.465
  170DOPC  H18S20712   7.007   7.548  15.942
  170DOPC  H18T20713   6.850   7.633  15.843
  170DOPC   C3320714   6.830   7.390  19.320
  170DOPC   H3X20715   6.811   7.405  19.644
  170DOPC   H3Y20716   6.807   7.486  19.164
  170DOPC   C3420717   6.979   7.358  19.260
  170DOPC   H4X20718   7.005   7.265  19.425
  170DOPC   H4Y20719   7.041   7.441  19.380
  170DOPC   C3520720   7.017   7.338  18.819
  170DOPC   H5X20721   6.963   7.252  18.681
  170DOPC   H5Y20722   7.126   7.313  18.810
  170DOPC   C3620723   6.997   7.462  18.558
  170DOPC   H6X20724   6.890   7.472  18.468
  170DOPC   H6Y20725   7.026   7.553  18.729
  170DOPC   C3720726   7.089   7.452  18.195
  170DOPC   H7X20727   7.191   7.467  18.312
  170DOPC   H7Y20728   7.087   7.348  18.069
  170DOPC   C3820729   7.067   7.557  17.877
  170DOPC   H8X20730   7.156   7.569  17.679
  170DOPC   H8Y20731   7.045   7.656  18.012
  170DOPC   C3920732   6.953   7.506  17.634
  170DOPC   H9X20733   6.854   7.542  17.730
  170DOPC  C31020734   6.964   7.418  17.334
  170DOPC  H10X20735   6.879   7.388  17.169
  170DOPC  C31120736   7.079   7.347  17.151
  170DOPC  H11X20737   7.165   7.368  17.343
  170DOPC  H11Y20738   7.100   7.389  16.848
  170DOPC  C31220739   7.051   7.195  17.112
  170DOPC  H12X20740   7.032   7.155  17.418
  170DOPC  H12Y20741   7.142   7.146  16.992
  170DOPC  C31320742   6.932   7.158  16.836
  170DOPC  H13X20743   6.840   7.205  16.953
  170DOPC  H13Y20744   6.953   7.198  16.533
  170DOPC  C31420745   6.896   7.009  16.785
  170DOPC  H14X20746   6.982   6.955  16.653
  170DOPC  H14Y20747   6.878   6.965  17.088
  170DOPC  C31520748   6.769   6.987  16.524
  170DOPC  H15X20749   6.681   7.021  16.701
  170DOPC  H15Y20750   6.757   6.878  16.470
  170DOPC  C31620751   6.766   7.061  16.119
  170DOPC  H16X20752   6.750   7.168  16.179
  170DOPC  H16Y20753   6.863   7.052  15.957
  170DOPC  C31720754   6.650   7.021  15.837
  170DOPC  H17X20755   6.559   6.999  16.014
  170DOPC  H17Y20756   6.627   7.109  15.642
  170DOPC  C31820757   6.683   6.905  15.558
  170DOPC  H18X20758   6.601   6.888  15.339
  170DOPC  H18Y20759   6.776   6.927  15.384
  170DOPC  H18Z20760   6.699   6.811  15.729
  171DOPC     N20761   3.900   2.885   9.285
  171DOPC   C1220762   3.800   2.975   9.498
  171DOPC  H12A20763   3.853   3.051   9.672
  171DOPC  H12B20764   3.740   2.917   9.702
  171DOPC   C1320765   3.828   2.805   8.970
  171DOPC  H13A20766   3.752   2.739   9.093
  171DOPC  H13B20767   3.776   2.877   8.778
  171DOPC  H13C20768   3.895   2.751   8.775
  171DOPC   C1420769   3.971   2.794   9.570
  171DOPC  H14A20770   3.901   2.727   9.714
  171DOPC  H14B20771   4.045   2.735   9.411
  171DOPC  H14C20772   4.023   2.850   9.798
  171DOPC   C1520773   4.000   2.974   9.084
  171DOPC  H15A20774   4.078   2.920   8.925
  171DOPC  H15B20775   4.046   3.041   9.300
  171DOPC  H15C20776   3.947   3.041   8.880
  171DOPC   C1120777   3.702   3.055   9.225
  171DOPC  H11A20778   3.646   2.987   9.021
  171DOPC  H11B20779   3.622   3.099   9.420
  171DOPC     P20780   3.785   3.297   9.189
  171DOPC   O1320781   3.652   3.362   9.186
  171DOPC   O1420782   3.901   3.367   9.003
  171DOPC   O1220783   3.772   3.153   8.997
  171DOPC   O1120784   3.821   3.256   9.633
  171DOPC    C120785   3.886   3.351   9.885
  171DOPC    HA20786   3.845   3.338  10.191
  171DOPC    HB20787   3.866   3.457   9.798
  171DOPC    C220788   4.040   3.329   9.903
  171DOPC    HS20789   4.080   3.344   9.594
  171DOPC   O2120790   4.068   3.197  10.041
  171DOPC   C2120791   4.194   3.156  10.029
  171DOPC   O2220792   4.289   3.215   9.885
  171DOPC   C2220793   4.202   3.017  10.218
  171DOPC   H2R20794   4.303   3.007  10.353
  171DOPC   H2S20795   4.191   2.941   9.978
  171DOPC    C320796   4.100   3.438  10.179
  171DOPC    HX20797   4.087   3.531   9.999
  171DOPC    HY20798   4.209   3.422  10.227
  171DOPC   O3120799   4.026   3.458  10.545
  171DOPC   C3120800   4.069   3.395  10.869
  171DOPC   O3220801   4.166   3.322  10.887
  171DOPC   C3220802   3.979   3.432  11.220
  171DOPC   H2X20803   4.029   3.400  11.499
  171DOPC   H2Y20804   3.969   3.543  11.226
  171DOPC   C2320805   4.095   2.999  10.545
  171DOPC   H3R20806   3.992   3.003  10.413
  171DOPC   H3S20807   4.102   3.086  10.755
  171DOPC   C2420808   4.108   2.873  10.800
  171DOPC   H4R20809   4.214   2.860  10.896
  171DOPC   H4S20810   4.079   2.783  10.623
  171DOPC   C2520811   4.020   2.886  11.172
  171DOPC   H5R20812   3.914   2.893  11.079
  171DOPC   H5S20813   4.047   2.980  11.334
  171DOPC   C2620814   4.036   2.769  11.466
  171DOPC   H6R20815   4.136   2.774  11.610
  171DOPC   H6S20816   4.032   2.673  11.295
  171DOPC   C2720817   3.926   2.766  11.787
  171DOPC   H7R20818   3.941   2.680  11.991
  171DOPC   H7S20819   3.831   2.749  11.625
  171DOPC   C2820820   3.910   2.896  12.033
  171DOPC   H8R20821   3.818   2.885  12.219
  171DOPC   H8S20822   3.889   2.980  11.823
  171DOPC   C2920823   4.028   2.922  12.306
  171DOPC   H9R20824   4.053   2.838  12.504
  171DOPC  C21020825   4.104   3.033  12.327
  171DOPC  H10R20826   4.186   3.036  12.546
  171DOPC  C21120827   4.089   3.160  12.081
  171DOPC  H11R20828   4.021   3.144  11.820
  171DOPC  H11S20829   4.187   3.190  11.949
  171DOPC  C21220830   4.032   3.278  12.327
  171DOPC  H12R20831   3.931   3.250  12.432
  171DOPC  H12S20832   4.019   3.365  12.123
  171DOPC  C21320833   4.118   3.324  12.687
  171DOPC  H13R20834   4.225   3.323  12.600
  171DOPC  H13S20835   4.104   3.253  12.939
  171DOPC  C21420836   4.081   3.467  12.825
  171DOPC  H14R20837   3.971   3.481  12.807
  171DOPC  H14S20838   4.124   3.538  12.603
  171DOPC  C21520839   4.128   3.503  13.251
  171DOPC  H15R20840   4.150   3.613  13.266
  171DOPC  H15S20841   4.221   3.448  13.329
  171DOPC  C21620842   4.020   3.477  13.563
  171DOPC  H16R20843   3.998   3.369  13.563
  171DOPC  H16S20844   3.930   3.534  13.461
  171DOPC  C21720845   4.050   3.523  13.992
  171DOPC  H17R20846   3.952   3.548  14.139
  171DOPC  H17S20847   4.111   3.616  13.986
  171DOPC  C21820848   4.117   3.416  14.250
  171DOPC  H18R20849   4.055   3.323  14.256
  171DOPC  H18S20850   4.131   3.451  14.562
  171DOPC  H18T20851   4.217   3.390  14.124
  171DOPC   C3320852   3.839   3.366  11.181
  171DOPC   H3X20853   3.834   3.276  11.373
  171DOPC   H3Y20854   3.823   3.330  10.869
  171DOPC   C3420855   3.724   3.464  11.271
  171DOPC   H4X20856   3.627   3.416  11.184
  171DOPC   H4Y20857   3.736   3.553  11.076
  171DOPC   C3520858   3.715   3.508  11.709
  171DOPC   H5X20859   3.635   3.585  11.739
  171DOPC   H5Y20860   3.811   3.555  11.802
  171DOPC   C3620861   3.681   3.392  11.991
  171DOPC   H6X20862   3.580   3.352  11.919
  171DOPC   H6Y20863   3.754   3.310  11.946
  171DOPC   C3720864   3.687   3.431  12.435
  171DOPC   H7X20865   3.785   3.481  12.483
  171DOPC   H7Y20866   3.608   3.506  12.510
  171DOPC   C3820867   3.673   3.306  12.702
  171DOPC   H8X20868   3.698   3.216  12.519
  171DOPC   H8Y20869   3.566   3.295  12.786
  171DOPC   C3920870   3.764   3.306  13.062
  171DOPC   H9X20871   3.866   3.270  13.011
  171DOPC  C31020872   3.731   3.351  13.425
  171DOPC  H10X20873   3.804   3.347  13.671
  171DOPC  C31120874   3.601   3.410  13.542
  171DOPC  H11X20875   3.539   3.443  13.281
  171DOPC  H11Y20876   3.621   3.499  13.731
  171DOPC  C31220877   3.523   3.314  13.809
  171DOPC  H12X20878   3.588   3.288  14.067
  171DOPC  H12Y20879   3.503   3.219  13.650
  171DOPC  C31320880   3.397   3.387  13.944
  171DOPC  H13X20881   3.428   3.491  14.028
  171DOPC  H13Y20882   3.326   3.394  13.689
  171DOPC  C31420883   3.326   3.330  14.310
  171DOPC  H14X20884   3.258   3.408  14.433
  171DOPC  H14Y20885   3.262   3.246  14.211
  171DOPC  C31520886   3.421   3.281  14.640
  171DOPC  H15X20887   3.477   3.191  14.535
  171DOPC  H15Y20888   3.358   3.246  14.895
  171DOPC  C31620889   3.519   3.387  14.799
  171DOPC  H16X20890   3.592   3.416  14.565
  171DOPC  H16Y20891   3.460   3.478  14.874
  171DOPC  C31720892   3.593   3.339  15.177
  171DOPC  H17X20893   3.621   3.428  15.357
  171DOPC  H17Y20894   3.522   3.279  15.357
  171DOPC  C31820895   3.717   3.255  15.102
  171DOPC  H18X20896   3.792   3.311  14.922
  171DOPC  H18Y20897   3.764   3.227  15.396
  171DOPC  H18Z20898   3.691   3.161  14.940
  172DOPC     N20899   3.188   4.435   8.847
  172DOPC   C1220900   3.170   4.410   9.297
  172DOPC  H12A20901   3.195   4.502   9.459
  172DOPC  H12B20902   3.239   4.335   9.399
  172DOPC   C1320903   3.114   4.337   8.583
  172DOPC  H13A20904   3.156   4.237   8.583
  172DOPC  H13B20905   3.011   4.328   8.676
  172DOPC  H13C20906   3.116   4.369   8.268
  172DOPC   C1420907   3.333   4.424   8.754
  172DOPC  H14A20908   3.369   4.324   8.817
  172DOPC  H14B20909   3.351   4.444   8.439
  172DOPC  H14C20910   3.393   4.493   8.928
  172DOPC   C1520911   3.135   4.572   8.751
  172DOPC  H15A20912   3.176   4.646   8.955
  172DOPC  H15B20913   3.028   4.571   8.811
  172DOPC  H15C20914   3.153   4.600   8.442
  172DOPC   C1120915   3.030   4.372   9.456
  172DOPC  H11A20916   2.996   4.278   9.309
  172DOPC  H11B20917   3.036   4.351   9.786
  172DOPC     P20918   2.914   4.599   9.669
  172DOPC   O1320919   2.891   4.552  10.086
  172DOPC   O1420920   2.810   4.682   9.471
  172DOPC   O1220921   2.938   4.476   9.372
  172DOPC   O1120922   3.049   4.682   9.657
  172DOPC    C120923   3.055   4.796   9.927
  172DOPC    HA20924   2.964   4.813  10.116
  172DOPC    HB20925   3.067   4.888   9.744
  172DOPC    C220926   3.176   4.785  10.215
  172DOPC    HS20927   3.254   4.725  10.056
  172DOPC   O2120928   3.136   4.727  10.590
  172DOPC   C2120929   3.179   4.603  10.665
  172DOPC   O2220930   3.252   4.538  10.446
  172DOPC   C2220931   3.139   4.560  11.088
  172DOPC   H2R20932   3.158   4.451  11.112
  172DOPC   H2S20933   3.030   4.578  11.130
  172DOPC    C320934   3.240   4.925  10.296
  172DOPC    HX20935   3.270   4.966   9.999
  172DOPC    HY20936   3.332   4.913  10.476
  172DOPC   O3120937   3.147   5.017  10.476
  172DOPC   C3120938   3.151   5.016  10.872
  172DOPC   O3220939   3.250   4.998  11.079
  172DOPC   C3220940   3.010   5.035  11.028
  172DOPC   H2X20941   3.008   5.119  11.247
  172DOPC   H2Y20942   2.942   5.057  10.773
  172DOPC   C2320943   3.224   4.632  11.409
  172DOPC   H3R20944   3.252   4.734  11.298
  172DOPC   H3S20945   3.315   4.572  11.460
  172DOPC   C2420946   3.155   4.654  11.811
  172DOPC   H4R20947   3.053   4.686  11.733
  172DOPC   H4S20948   3.204   4.739  11.970
  172DOPC   C2520949   3.156   4.532  12.096
  172DOPC   H5R20950   3.097   4.450  11.961
  172DOPC   H5S20951   3.103   4.558  12.381
  172DOPC   C2620952   3.294   4.481  12.228
  172DOPC   H6R20953   3.344   4.432  11.970
  172DOPC   H6S20954   3.277   4.400  12.456
  172DOPC   C2720955   3.392   4.584  12.414
  172DOPC   H7R20956   3.429   4.652  12.177
  172DOPC   H7S20957   3.479   4.529  12.537
  172DOPC   C2820958   3.335   4.671  12.756
  172DOPC   H8R20959   3.263   4.741  12.621
  172DOPC   H8S20960   3.417   4.734  12.885
  172DOPC   C2920961   3.270   4.584  13.071
  172DOPC   H9R20962   3.192   4.517  12.957
  172DOPC  C21020963   3.286   4.589  13.470
  172DOPC  H10R20964   3.226   4.519  13.650
  172DOPC  C21120965   3.372   4.683  13.710
  172DOPC  H11R20966   3.442   4.741  13.518
  172DOPC  H11S20967   3.434   4.626  13.923
  172DOPC  C21220968   3.285   4.783  13.944
  172DOPC  H12R20969   3.237   4.855  13.731
  172DOPC  H12S20970   3.349   4.842  14.151
  172DOPC  C21320971   3.172   4.718  14.190
  172DOPC  H13R20972   3.098   4.677  13.980
  172DOPC  H13S20973   3.119   4.796  14.358
  172DOPC  C21420974   3.212   4.599  14.454
  172DOPC  H14R20975   3.262   4.520  14.274
  172DOPC  H14S20976   3.119   4.554  14.577
  172DOPC  C21520977   3.303   4.638  14.802
  172DOPC  H15R20978   3.394   4.690  14.685
  172DOPC  H15S20979   3.336   4.546  14.961
  172DOPC  C21620980   3.228   4.727  15.096
  172DOPC  H16R20981   3.140   4.671  15.213
  172DOPC  H16S20982   3.193   4.818  14.937
  172DOPC  C21720983   3.312   4.777  15.441
  172DOPC  H17R20984   3.350   4.878  15.357
  172DOPC  H17S20985   3.396   4.706  15.492
  172DOPC  C21820986   3.233   4.793  15.822
  172DOPC  H18R20987   3.221   4.694  15.975
  172DOPC  H18S20988   3.135   4.834  15.735
  172DOPC  H18T20989   3.280   4.864  16.035
  172DOPC   C3320990   2.962   4.907  11.232
  172DOPC   H3X20991   3.019   4.894  11.514
  172DOPC   H3Y20992   2.980   4.816  11.046
  172DOPC   C3420993   2.812   4.916  11.304
  172DOPC   H4X20994   2.755   4.886  11.031
  172DOPC   H4Y20995   2.786   5.021  11.373
  172DOPC   C3520996   2.768   4.834  11.661
  172DOPC   H5X20997   2.800   4.728  11.622
  172DOPC   H5Y20998   2.657   4.842  11.682
  172DOPC   C3620999   2.818   4.888  12.057
  172DOPC   H6X21000   2.927   4.902  12.033
  172DOPC   H6Y21001   2.782   4.991  12.102
  172DOPC   C3721002   2.780   4.792  12.396
  172DOPC   H7X21003   2.756   4.842  12.684
  172DOPC   H7Y21004   2.690   4.733  12.312
  172DOPC   C3821005   2.900   4.702  12.453
  172DOPC   H8X21006   2.925   4.664  12.150
  172DOPC   H8Y21007   2.878   4.609  12.624
  172DOPC   C3921008   3.010   4.787  12.630
  172DOPC   H9X21009   3.077   4.839  12.417
  172DOPC  C31021010   3.033   4.797  13.020
  172DOPC  H10X21011   3.121   4.852  13.128
  172DOPC  C31121012   2.952   4.721  13.317
  172DOPC  H11X21013   3.020   4.649  13.461
  172DOPC  H11Y21014   2.873   4.657  13.188
  172DOPC  C31221015   2.884   4.810  13.626
  172DOPC  H12X21016   2.802   4.868  13.485
  172DOPC  H12Y21017   2.958   4.881  13.755
  172DOPC  C31321018   2.829   4.717  13.947
  172DOPC  H13X21019   2.742   4.663  13.815
  172DOPC  H13Y21020   2.903   4.637  14.019
  172DOPC  C31421021   2.786   4.782  14.340
  172DOPC  H14X21022   2.682   4.817  14.283
  172DOPC  H14Y21023   2.784   4.701  14.571
  172DOPC  C31521024   2.860   4.901  14.523
  172DOPC  H15X21025   2.781   4.968  14.640
  172DOPC  H15Y21026   2.918   4.959  14.301
  172DOPC  C31621027   2.943   4.866  14.892
  172DOPC  H16X21028   2.978   4.761  14.859
  172DOPC  H16Y21029   3.031   4.933  14.904
  172DOPC  C31721030   2.867   4.880  15.291
  172DOPC  H17X21031   2.779   4.811  15.288
  172DOPC  H17Y21032   2.935   4.844  15.531
  172DOPC  C31821033   2.822   5.021  15.405
  172DOPC  H18X21034   2.782   5.022  15.717
  172DOPC  H18Y21035   2.906   5.093  15.387
  172DOPC  H18Z21036   2.741   5.055  15.201
  173DOPC     N21037   2.083   3.023   8.697
  173DOPC   C1221038   2.195   2.978   8.976
  173DOPC  H12A21039   2.292   3.005   8.850
  173DOPC  H12B21040   2.197   2.870   8.985
  173DOPC   C1321041   2.113   2.975   8.280
  173DOPC  H13A21042   2.036   3.008   8.073
  173DOPC  H13B21043   2.209   3.012   8.178
  173DOPC  H13C21044   2.119   2.867   8.268
  173DOPC   C1421045   2.079   3.173   8.688
  173DOPC  H14A21046   2.071   3.209   8.997
  173DOPC  H14B21047   2.174   3.213   8.586
  173DOPC  H14C21048   1.999   3.212   8.508
  173DOPC   C1521049   1.951   2.972   8.844
  173DOPC  H15A21050   1.940   2.992   9.162
  173DOPC  H15B21051   1.945   2.864   8.805
  173DOPC  H15C21052   1.865   3.015   8.691
  173DOPC   C1121053   2.194   3.033   9.411
  173DOPC  H11A21054   2.098   3.003   9.555
  173DOPC  H11B21055   2.277   2.985   9.579
  173DOPC     P21056   2.202   3.255   9.825
  173DOPC   O1321057   2.189   3.401   9.729
  173DOPC   O1421058   2.309   3.210  10.098
  173DOPC   O1221059   2.213   3.175   9.414
  173DOPC   O1121060   2.059   3.207   9.984
  173DOPC    C121061   1.940   3.244   9.771
  173DOPC    HA21062   1.904   3.158   9.588
  173DOPC    HB21063   1.959   3.329   9.561
  173DOPC    C221064   1.819   3.292  10.038
  173DOPC    HS21065   1.743   3.334   9.834
  173DOPC   O2121066   1.865   3.391  10.314
  173DOPC   C2121067   1.785   3.486  10.443
  173DOPC   O2221068   1.684   3.525  10.278
  173DOPC   C2221069   1.861   3.562  10.776
  173DOPC   H2R21070   1.824   3.520  11.064
  173DOPC   H2S21071   1.832   3.668  10.764
  173DOPC    C321072   1.750   3.176  10.275
  173DOPC    HX21073   1.714   3.103  10.050
  173DOPC    HY21074   1.658   3.216  10.428
  173DOPC   O3121075   1.837   3.107  10.554
  173DOPC   C3121076   1.844   3.162  10.914
  173DOPC   O3221077   1.791   3.266  11.016
  173DOPC   C3221078   1.912   3.065  11.202
  173DOPC   H2X21079   1.911   2.963  11.070
  173DOPC   H2Y21080   2.018   3.098  11.238
  173DOPC   C2321081   2.016   3.548  10.773
  173DOPC   H3R21082   2.064   3.643  10.680
  173DOPC   H3S21083   2.056   3.469  10.569
  173DOPC   C2421084   2.066   3.510  11.190
  173DOPC   H4R21085   2.028   3.408  11.265
  173DOPC   H4S21086   2.023   3.581  11.409
  173DOPC   C2521087   2.219   3.508  11.226
  173DOPC   H5R21088   2.255   3.612  11.205
  173DOPC   H5S21089   2.262   3.451  10.968
  173DOPC   C2621090   2.266   3.441  11.619
  173DOPC   H6R21091   2.377   3.441  11.637
  173DOPC   H6S21092   2.234   3.335  11.592
  173DOPC   C2721093   2.205   3.504  11.997
  173DOPC   H7R21094   2.096   3.521  11.958
  173DOPC   H7S21095   2.251   3.602  12.057
  173DOPC   C2821096   2.219   3.423  12.381
  173DOPC   H8R21097   2.176   3.477  12.633
  173DOPC   H8S21098   2.326   3.411  12.450
  173DOPC   C2921099   2.143   3.297  12.309
  173DOPC   H9R21100   2.198   3.212  12.180
  173DOPC  C21021101   2.015   3.278  12.393
  173DOPC  H10R21102   1.975   3.181  12.327
  173DOPC  C21121103   1.910   3.366  12.576
  173DOPC  H11R21104   1.816   3.350  12.408
  173DOPC  H11S21105   1.934   3.474  12.561
  173DOPC  C21221106   1.892   3.314  13.011
  173DOPC  H12R21107   1.789   3.340  13.113
  173DOPC  H12S21108   1.964   3.365  13.218
  173DOPC  C21321109   1.914   3.162  13.056
  173DOPC  H13R21110   2.022   3.137  13.068
  173DOPC  H13S21111   1.869   3.111  12.792
  173DOPC  C21421112   1.841   3.098  13.407
  173DOPC  H14R21113   1.736   3.132  13.377
  173DOPC  H14S21114   1.884   3.134  13.692
  173DOPC  C21521115   1.843   2.944  13.377
  173DOPC  H15R21116   1.948   2.911  13.407
  173DOPC  H15S21117   1.807   2.915  13.074
  173DOPC  C21621118   1.756   2.871  13.686
  173DOPC  H16R21119   1.784   2.763  13.689
  173DOPC  H16S21120   1.650   2.876  13.593
  173DOPC  C21721121   1.774   2.927  14.106
  173DOPC  H17R21122   1.706   2.875  14.319
  173DOPC  H17S21123   1.750   3.034  14.130
  173DOPC  C21821124   1.918   2.919  14.241
  173DOPC  H18R21125   1.976   3.002  14.106
  173DOPC  H18S21126   1.966   2.824  14.151
  173DOPC  H18T21127   1.918   2.928  14.571
  173DOPC   C3321128   1.838   3.068  11.607
  173DOPC   H3X21129   1.736   3.025  11.580
  173DOPC   H3Y21130   1.827   3.174  11.706
  173DOPC   C3421131   1.916   2.997  11.940
  173DOPC   H4X21132   1.868   3.021  12.231
  173DOPC   H4Y21133   2.020   3.037  11.934
  173DOPC   C3521134   1.925   2.846  11.913
  173DOPC   H5X21135   1.954   2.821  11.604
  173DOPC   H5Y21136   1.826   2.799  11.976
  173DOPC   C3621137   2.032   2.788  12.195
  173DOPC   H6X21138   2.033   2.680  12.123
  173DOPC   H6Y21139   2.133   2.830  12.126
  173DOPC   C3721140   2.008   2.799  12.648
  173DOPC   H7X21141   2.036   2.901  12.756
  173DOPC   H7Y21142   1.899   2.783  12.699
  173DOPC   C3821143   2.087   2.691  12.882
  173DOPC   H8X21144   2.193   2.699  12.786
  173DOPC   H8Y21145   2.049   2.594  12.762
  173DOPC   C3921146   2.080   2.683  13.332
  173DOPC   H9X21147   1.997   2.624  13.452
  173DOPC  C31021148   2.164   2.742  13.596
  173DOPC  H10X21149   2.148   2.725  13.917
  173DOPC  C31121150   2.283   2.830  13.500
  173DOPC  H11X21151   2.309   2.826  13.176
  173DOPC  H11Y21152   2.373   2.795  13.668
  173DOPC  C31221153   2.257   2.978  13.611
  173DOPC  H12X21154   2.161   3.012  13.476
  173DOPC  H12Y21155   2.338   3.040  13.476
  173DOPC  C31321156   2.257   3.003  14.067
  173DOPC  H13X21157   2.186   2.934  14.217
  173DOPC  H13Y21158   2.358   2.978  14.181
  173DOPC  C31421159   2.223   3.147  14.199
  173DOPC  H14X21160   2.262   3.220  13.977
  173DOPC  H14Y21161   2.113   3.161  14.202
  173DOPC  C31521162   2.282   3.183  14.616
  173DOPC  H15X21163   2.252   3.286  14.697
  173DOPC  H15Y21164   2.392   3.184  14.610
  173DOPC  C31621165   2.247   3.084  14.952
  173DOPC  H16X21166   2.284   2.982  14.877
  173DOPC  H16Y21167   2.296   3.116  15.237
  173DOPC  C31721168   2.098   3.080  15.009
  173DOPC  H17X21169   2.055   3.047  14.724
  173DOPC  H17Y21170   2.067   3.006  15.234
  173DOPC  C31821171   2.039   3.215  15.099
  173DOPC  H18X21172   2.079   3.260  15.378
  173DOPC  H18Y21173   2.050   3.286  14.847
  173DOPC  H18Z21174   1.931   3.194  15.120
  174DOPC     N21175   4.890   2.472   9.132
  174DOPC   C1221176   4.957   2.364   8.877
  174DOPC  H12A21177   5.057   2.399   8.808
  174DOPC  H12B21178   4.906   2.353   8.589
  174DOPC   C1321179   4.842   2.582   8.865
  174DOPC  H13A21180   4.815   2.670   9.033
  174DOPC  H13B21181   4.922   2.612   8.658
  174DOPC  H13C21182   4.760   2.549   8.679
  174DOPC   C1421183   4.996   2.523   9.414
  174DOPC  H14A21184   5.052   2.437   9.528
  174DOPC  H14B21185   5.071   2.583   9.261
  174DOPC  H14C21186   4.959   2.577   9.669
  174DOPC   C1521187   4.776   2.413   9.360
  174DOPC  H15A21188   4.811   2.326   9.528
  174DOPC  H15B21189   4.697   2.379   9.165
  174DOPC  H15C21190   4.735   2.486   9.564
  174DOPC   C1121191   4.971   2.222   9.057
  174DOPC  H11A21192   4.871   2.177   9.105
  174DOPC  H11B21193   5.022   2.155   8.835
  174DOPC     P21194   5.195   2.208   9.450
  174DOPC   O1321195   5.252   2.338   9.330
  174DOPC   O1421196   5.237   2.093   9.204
  174DOPC   O1221197   5.038   2.224   9.435
  174DOPC   O1121198   5.226   2.185   9.909
  174DOPC    C121199   5.119   2.174  10.194
  174DOPC    HA21200   5.158   2.129  10.476
  174DOPC    HB21201   5.039   2.106  10.080
  174DOPC    C221202   5.055   2.312  10.302
  174DOPC    HS21203   5.042   2.368  10.017
  174DOPC   O2121204   5.141   2.384  10.572
  174DOPC   C2121205   5.111   2.512  10.599
  174DOPC   O2221206   5.028   2.570  10.389
  174DOPC   C2221207   5.191   2.577  10.935
  174DOPC   H2R21208   5.264   2.646  10.797
  174DOPC   H2S21209   5.247   2.498  11.100
  174DOPC    C321210   4.914   2.291  10.488
  174DOPC    HX21211   4.851   2.246  10.248
  174DOPC    HY21212   4.868   2.388  10.575
  174DOPC   O3121213   4.926   2.206  10.830
  174DOPC   C3121214   4.813   2.148  10.938
  174DOPC   O3221215   4.705   2.164  10.776
  174DOPC   C3221216   4.837   2.055  11.292
  174DOPC   H2X21217   4.755   2.070  11.511
  174DOPC   H2Y21218   4.828   1.952  11.175
  174DOPC   C2321219   5.096   2.652  11.223
  174DOPC   H3R21220   5.055   2.742  11.073
  174DOPC   H3S21221   5.156   2.687  11.484
  174DOPC   C2421222   4.980   2.564  11.370
  174DOPC   H4R21223   5.004   2.455  11.343
  174DOPC   H4S21224   4.893   2.583  11.169
  174DOPC   C2521225   4.938   2.593  11.802
  174DOPC   H5R21226   4.832   2.561  11.841
  174DOPC   H5S21227   4.943   2.703  11.850
  174DOPC   C2621228   5.022   2.521  12.123
  174DOPC   H6R21229   5.130   2.529  12.051
  174DOPC   H6S21230   4.995   2.413  12.126
  174DOPC   C2721231   4.993   2.583  12.534
  174DOPC   H7R21232   4.883   2.575  12.591
  174DOPC   H7S21233   5.018   2.692  12.507
  174DOPC   C2821234   5.067   2.528  12.906
  174DOPC   H8R21235   5.065   2.608  13.140
  174DOPC   H8S21236   5.174   2.514  12.828
  174DOPC   C2921237   5.006   2.401  13.065
  174DOPC   H9R21238   5.034   2.311  12.894
  174DOPC  C21021239   4.922   2.385  13.380
  174DOPC  H10R21240   4.885   2.283  13.437
  174DOPC  C21121241   4.866   2.487  13.665
  174DOPC  H11R21242   4.758   2.506  13.599
  174DOPC  H11S21243   4.916   2.586  13.629
  174DOPC  C21221244   4.880   2.448  14.112
  174DOPC  H12R21245   4.819   2.518  14.295
  174DOPC  H12S21246   4.987   2.462  14.193
  174DOPC  C21321247   4.844   2.305  14.250
  174DOPC  H13R21248   4.889   2.293  14.553
  174DOPC  H13S21249   4.890   2.226  14.061
  174DOPC  C21421250   4.695   2.278  14.310
  174DOPC  H14R21251   4.638   2.277  14.025
  174DOPC  H14S21252   4.654   2.362  14.496
  174DOPC  C21521253   4.672   2.146  14.535
  174DOPC  H15R21254   4.592   2.166  14.754
  174DOPC  H15S21255   4.764   2.120  14.703
  174DOPC  C21621256   4.626   2.030  14.265
  174DOPC  H16R21257   4.693   2.023  14.001
  174DOPC  H16S21258   4.524   2.057  14.154
  174DOPC  C21721259   4.620   1.892  14.469
  174DOPC  H17R21260   4.567   1.820  14.271
  174DOPC  H17S21261   4.561   1.900  14.748
  174DOPC  C21821262   4.751   1.823  14.553
  174DOPC  H18R21263   4.735   1.736  14.754
  174DOPC  H18S21264   4.817   1.892  14.709
  174DOPC  H18T21265   4.800   1.790  14.271
  174DOPC   C3321266   4.973   2.071  11.505
  174DOPC   H3X21267   4.993   2.178  11.580
  174DOPC   H3Y21268   5.054   2.037  11.298
  174DOPC   C3421269   4.977   1.992  11.895
  174DOPC   H4X21270   4.925   1.895  11.856
  174DOPC   H4Y21271   4.921   2.049  12.126
  174DOPC   C3521272   5.122   1.979  12.039
  174DOPC   H5X21273   5.191   1.989  11.775
  174DOPC   H5Y21274   5.143   1.880  12.174
  174DOPC   C3621275   5.151   2.091  12.342
  174DOPC   H6X21276   5.115   2.188  12.216
  174DOPC   H6Y21277   5.093   2.071  12.618
  174DOPC   C3721278   5.299   2.108  12.444
  174DOPC   H7X21279   5.340   2.010  12.543
  174DOPC   H7Y21280   5.353   2.140  12.171
  174DOPC   C3821281   5.321   2.211  12.783
  174DOPC   H8X21282   5.270   2.175  13.059
  174DOPC   H8Y21283   5.275   2.309  12.711
  174DOPC   C3921284   5.470   2.224  12.831
  174DOPC   H9X21285   5.519   2.291  12.615
  174DOPC  C31021286   5.543   2.166  13.122
  174DOPC  H10X21287   5.652   2.184  13.140
  174DOPC  C31121288   5.483   2.081  13.446
  174DOPC  H11X21289   5.558   2.014  13.590
  174DOPC  H11Y21290   5.404   2.015  13.320
  174DOPC  C31221291   5.421   2.175  13.758
  174DOPC  H12X21292   5.360   2.253  13.602
  174DOPC  H12Y21293   5.499   2.229  13.929
  174DOPC  C31321294   5.323   2.105  14.040
  174DOPC  H13X21295   5.267   2.027  13.878
  174DOPC  H13Y21296   5.379   2.055  14.286
  174DOPC  C31421297   5.223   2.208  14.196
  174DOPC  H14X21298   5.178   2.267  13.947
  174DOPC  H14Y21299   5.136   2.156  14.328
  174DOPC  C31521300   5.287   2.305  14.490
  174DOPC  H15X21301   5.199   2.340  14.664
  174DOPC  H15Y21302   5.333   2.392  14.337
  174DOPC  C31621303   5.388   2.247  14.790
  174DOPC  H16X21304   5.368   2.139  14.841
  174DOPC  H16Y21305   5.493   2.256  14.679
  174DOPC  C31721306   5.370   2.324  15.180
  174DOPC  H17X21307   5.390   2.431  15.132
  174DOPC  H17Y21308   5.262   2.316  15.261
  174DOPC  C31821309   5.449   2.270  15.534
  174DOPC  H18X21310   5.559   2.277  15.498
  174DOPC  H18Y21311   5.417   2.318  15.816
  174DOPC  H18Z21312   5.424   2.164  15.564
  175DOPC     N21313   3.167   5.701   9.213
  175DOPC   C1221314   3.142   5.850   9.150
  175DOPC  H12A21315   3.075   5.865   8.895
  175DOPC  H12B21316   3.235   5.897   9.069
  175DOPC   C1321317   3.263   5.655   8.895
  175DOPC  H13A21318   3.212   5.647   8.607
  175DOPC  H13B21319   3.345   5.724   8.862
  175DOPC  H13C21320   3.302   5.556   8.961
  175DOPC   C1421321   3.038   5.627   9.162
  175DOPC  H14A21322   3.051   5.520   9.189
  175DOPC  H14B21323   2.963   5.662   9.375
  175DOPC  H14C21324   2.997   5.644   8.862
  175DOPC   C1521325   3.221   5.670   9.624
  175DOPC  H15A21326   3.319   5.714   9.672
  175DOPC  H15B21327   3.232   5.564   9.672
  175DOPC  H15C21328   3.152   5.709   9.846
  175DOPC   C1121329   3.077   5.930   9.495
  175DOPC  H11A21330   3.132   5.915   9.783
  175DOPC  H11B21331   3.082   6.039   9.429
  175DOPC     P21332   2.821   5.969   9.360
  175DOPC   O1321333   2.830   5.975   8.919
  175DOPC   O1421334   2.815   6.100   9.564
  175DOPC   O1221335   2.943   5.886   9.543
  175DOPC   O1121336   2.697   5.882   9.489
  175DOPC    C121337   2.701   5.766   9.738
  175DOPC    HA21338   2.786   5.698   9.666
  175DOPC    HB21339   2.608   5.709   9.672
  175DOPC    C221340   2.698   5.797  10.197
  175DOPC    HS21341   2.621   5.875  10.248
  175DOPC   O2121342   2.829   5.839  10.329
  175DOPC   C2121343   2.835   5.890  10.692
  175DOPC   O2221344   2.743   5.903  10.926
  175DOPC   C2221345   2.981   5.929  10.770
  175DOPC   H2R21346   3.004   6.018  10.587
  175DOPC   H2S21347   3.044   5.844  10.665
  175DOPC    C321348   2.655   5.667  10.416
  175DOPC    HX21349   2.551   5.645  10.314
  175DOPC    HY21350   2.648   5.683  10.746
  175DOPC   O3121351   2.743   5.558  10.299
  175DOPC   C3121352   2.835   5.523  10.569
  175DOPC   O3221353   2.841   5.564  10.911
  175DOPC   C3221354   2.934   5.427  10.377
  175DOPC   H2X21355   2.881   5.370  10.143
  175DOPC   H2Y21356   3.011   5.486  10.224
  175DOPC   C2321357   3.013   5.955  11.217
  175DOPC   H3R21358   3.119   5.925  11.265
  175DOPC   H3S21359   2.952   5.890  11.418
  175DOPC   C2421360   3.002   6.103  11.334
  175DOPC   H4R21361   2.897   6.137  11.295
  175DOPC   H4S21362   3.066   6.162  11.124
  175DOPC   C2521363   3.052   6.128  11.763
  175DOPC   H5R21364   3.065   6.237  11.814
  175DOPC   H5S21365   3.150   6.078  11.787
  175DOPC   C2621366   2.964   6.070  12.096
  175DOPC   H6R21367   3.019   6.071  12.387
  175DOPC   H6S21368   2.941   5.964  12.030
  175DOPC   C2721369   2.835   6.150  12.147
  175DOPC   H7R21370   2.827   6.219  11.889
  175DOPC   H7S21371   2.840   6.212  12.423
  175DOPC   C2821372   2.710   6.061  12.144
  175DOPC   H8R21373   2.718   5.996  11.874
  175DOPC   H8S21374   2.619   6.121  12.099
  175DOPC   C2921375   2.694   5.986  12.528
  175DOPC   H9R21376   2.688   6.047  12.804
  175DOPC  C21021377   2.690   5.852  12.561
  175DOPC  H10R21378   2.681   5.807  12.858
  175DOPC  C21121379   2.700   5.753  12.222
  175DOPC  H11R21380   2.695   5.800  11.919
  175DOPC  H11S21381   2.613   5.684  12.225
  175DOPC  C21221382   2.834   5.679  12.261
  175DOPC  H12R21383   2.917   5.753  12.225
  175DOPC  H12S21384   2.843   5.607  12.006
  175DOPC  C21321385   2.850   5.604  12.663
  175DOPC  H13R21386   2.845   5.676  12.915
  175DOPC  H13S21387   2.951   5.557  12.672
  175DOPC  C21421388   2.739   5.499  12.717
  175DOPC  H14R21389   2.758   5.422  12.480
  175DOPC  H14S21390   2.640   5.544  12.657
  175DOPC  C21521391   2.730   5.432  13.128
  175DOPC  H15R21392   2.826   5.380  13.182
  175DOPC  H15S21393   2.651   5.355  13.104
  175DOPC  C21621394   2.685   5.520  13.482
  175DOPC  H16R21395   2.580   5.492  13.554
  175DOPC  H16S21396   2.685   5.627  13.392
  175DOPC  C21721397   2.767   5.510  13.872
  175DOPC  H17R21398   2.695   5.512  14.127
  175DOPC  H17S21399   2.829   5.602  13.896
  175DOPC  C21821400   2.860   5.388  13.926
  175DOPC  H18R21401   2.959   5.409  13.794
  175DOPC  H18S21402   2.818   5.297  13.782
  175DOPC  H18T21403   2.874   5.365  14.250
  175DOPC   C3321404   2.991   5.329  10.689
  175DOPC   H3X21405   3.032   5.242  10.521
  175DOPC   H3Y21406   2.912   5.291  10.893
  175DOPC   C3421407   3.101   5.384  10.959
  175DOPC   H4X21408   3.136   5.305  11.172
  175DOPC   H4Y21409   3.058   5.465  11.148
  175DOPC   C3521410   3.221   5.435  10.722
  175DOPC   H5X21411   3.191   5.503  10.476
  175DOPC   H5Y21412   3.275   5.348  10.587
  175DOPC   C3621413   3.314   5.513  10.989
  175DOPC   H6X21414   3.335   5.456  11.271
  175DOPC   H6Y21415   3.412   5.527  10.833
  175DOPC   C3721416   3.259   5.651  11.097
  175DOPC   H7X21417   3.239   5.710  10.818
  175DOPC   H7Y21418   3.164   5.645  11.271
  175DOPC   C3821419   3.366   5.716  11.352
  175DOPC   H8X21420   3.461   5.694  11.199
  175DOPC   H8Y21421   3.367   5.659  11.637
  175DOPC   C3921422   3.360   5.863  11.412
  175DOPC   H9X21423   3.358   5.925  11.139
  175DOPC  C31021424   3.366   5.922  11.772
  175DOPC  H10X21425   3.354   6.029  11.772
  175DOPC  C31121426   3.380   5.859  12.180
  175DOPC  H11X21427   3.476   5.891  12.321
  175DOPC  H11Y21428   3.379   5.748  12.174
  175DOPC  C31221429   3.265   5.906  12.450
  175DOPC  H12X21430   3.167   5.885  12.303
  175DOPC  H12Y21431   3.273   6.017  12.492
  175DOPC  C31321432   3.269   5.838  12.858
  175DOPC  H13X21433   3.246   5.729  12.825
  175DOPC  H13Y21434   3.373   5.846  12.975
  175DOPC  C31421435   3.175   5.903  13.164
  175DOPC  H14X21436   3.216   5.879  13.467
  175DOPC  H14Y21437   3.175   6.013  13.122
  175DOPC  C31521438   3.031   5.852  13.152
  175DOPC  H15X21439   3.034   5.741  13.152
  175DOPC  H15Y21440   2.983   5.884  12.864
  175DOPC  C31621441   2.946   5.900  13.506
  175DOPC  H16X21442   2.941   6.011  13.509
  175DOPC  H16Y21443   2.842   5.862  13.464
  175DOPC  C31721444   2.996   5.851  13.917
  175DOPC  H17X21445   3.015   5.741  13.902
  175DOPC  H17Y21446   3.093   5.900  13.992
  175DOPC  C31821447   2.896   5.879  14.253
  175DOPC  H18X21448   2.937   5.849  14.547
  175DOPC  H18Y21449   2.873   5.988  14.265
  175DOPC  H18Z21450   2.801   5.824  14.205
  176DOPC     N21451   2.985   1.859   9.129
  176DOPC   C1221452   2.939   1.791   9.513
  176DOPC  H12A21453   2.830   1.792   9.522
  176DOPC  H12B21454   2.975   1.850   9.765
  176DOPC   C1321455   3.117   1.804   8.991
  176DOPC  H13A21456   3.106   1.699   8.913
  176DOPC  H13B21457   3.157   1.858   8.736
  176DOPC  H13C21458   3.191   1.814   9.225
  176DOPC   C1421459   3.007   2.005   9.219
  176DOPC  H14A21460   2.919   2.055   9.336
  176DOPC  H14B21461   3.084   2.017   9.447
  176DOPC  H14C21462   3.045   2.061   8.964
  176DOPC   C1521463   2.884   1.833   8.805
  176DOPC  H15A21464   2.922   1.858   8.514
  176DOPC  H15B21465   2.788   1.880   8.868
  176DOPC  H15C21466   2.859   1.726   8.799
  176DOPC   C1121467   2.983   1.645   9.588
  176DOPC  H11A21468   3.094   1.638   9.600
  176DOPC  H11B21469   2.948   1.614   9.891
  176DOPC     P21470   2.784   1.512   9.285
  176DOPC   O1321471   2.778   1.383   9.069
  176DOPC   O1421472   2.698   1.624   9.150
  176DOPC   O1221473   2.936   1.558   9.279
  176DOPC   O1121474   2.757   1.483   9.753
  176DOPC    C121475   2.648   1.402   9.888
  176DOPC    HA21476   2.684   1.297   9.915
  176DOPC    HB21477   2.564   1.399   9.666
  176DOPC    C221478   2.584   1.442  10.305
  176DOPC    HS21479   2.479   1.471  10.248
  176DOPC   O2121480   2.652   1.548  10.515
  176DOPC   C2121481   2.653   1.668  10.359
  176DOPC   O2221482   2.602   1.702  10.044
  176DOPC   C2221483   2.717   1.769  10.650
  176DOPC   H2R21484   2.694   1.868  10.512
  176DOPC   H2S21485   2.826   1.758  10.650
  176DOPC    C321486   2.581   1.321  10.599
  176DOPC    HX21487   2.526   1.237  10.461
  176DOPC    HY21488   2.526   1.348  10.878
  176DOPC   O3121489   2.717   1.280  10.671
  176DOPC   C3121490   2.772   1.337  10.995
  176DOPC   O3221491   2.719   1.345  11.322
  176DOPC   C3221492   2.917   1.375  10.884
  176DOPC   H2X21493   2.970   1.362  11.172
  176DOPC   H2Y21494   2.953   1.304  10.653
  176DOPC   C2321495   2.654   1.771  11.076
  176DOPC   H3R21496   2.545   1.753  11.055
  176DOPC   H3S21497   2.668   1.873  11.208
  176DOPC   C2421498   2.711   1.670  11.376
  176DOPC   H4R21499   2.817   1.691  11.445
  176DOPC   H4S21500   2.703   1.570  11.238
  176DOPC   C2521501   2.631   1.670  11.763
  176DOPC   H5R21502   2.532   1.623  11.712
  176DOPC   H5S21503   2.617   1.778  11.841
  176DOPC   C2621504   2.698   1.605  12.126
  176DOPC   H6R21505   2.688   1.681  12.372
  176DOPC   H6S21506   2.806   1.590  12.066
  176DOPC   C2721507   2.633   1.473  12.264
  176DOPC   H7R21508   2.656   1.394  12.039
  176DOPC   H7S21509   2.523   1.486  12.270
  176DOPC   C2821510   2.677   1.426  12.684
  176DOPC   H8R21511   2.784   1.393  12.675
  176DOPC   H8S21512   2.618   1.335  12.762
  176DOPC   C2921513   2.659   1.536  12.990
  176DOPC   H9R21514   2.732   1.617  12.957
  176DOPC  C21021515   2.563   1.552  13.263
  176DOPC  H10R21516   2.565   1.640  13.461
  176DOPC  C21121517   2.447   1.460  13.329
  176DOPC  H11R21518   2.416   1.412  13.047
  176DOPC  H11S21519   2.360   1.518  13.437
  176DOPC  C21221520   2.474   1.356  13.653
  176DOPC  H12R21521   2.383   1.296  13.704
  176DOPC  H12S21522   2.494   1.414  13.929
  176DOPC  C21321523   2.586   1.254  13.575
  176DOPC  H13R21524   2.684   1.306  13.542
  176DOPC  H13S21525   2.570   1.195  13.296
  176DOPC  C21421526   2.593   1.158  13.932
  176DOPC  H14R21527   2.683   1.096  13.875
  176DOPC  H14S21528   2.506   1.090  13.935
  176DOPC  C21521529   2.602   1.233  14.337
  176DOPC  H15R21530   2.612   1.162  14.586
  176DOPC  H15S21531   2.507   1.286  14.397
  176DOPC  C21621532   2.723   1.328  14.325
  176DOPC  H16R21533   2.700   1.418  14.139
  176DOPC  H16S21534   2.801   1.272  14.163
  176DOPC  C21721535   2.782   1.376  14.727
  176DOPC  H17R21536   2.721   1.463  14.811
  176DOPC  H17S21537   2.884   1.416  14.667
  176DOPC  C21821538   2.787   1.276  15.078
  176DOPC  H18R21539   2.693   1.219  15.096
  176DOPC  H18S21540   2.798   1.331  15.363
  176DOPC  H18T21541   2.870   1.204  15.075
  176DOPC   C3321542   2.954   1.518  10.752
  176DOPC   H3X21543   2.904   1.584  10.971
  176DOPC   H3Y21544   2.913   1.540  10.449
  176DOPC   C3421545   3.106   1.542  10.773
  176DOPC   H4X21546   3.160   1.477  10.557
  176DOPC   H4Y21547   3.139   1.511  11.079
  176DOPC   C3521548   3.149   1.688  10.725
  176DOPC   H5X21549   3.117   1.730  10.431
  176DOPC   H5Y21550   3.261   1.696  10.743
  176DOPC   C3621551   3.092   1.770  11.067
  176DOPC   H6X21552   2.983   1.755  11.100
  176DOPC   H6Y21553   3.139   1.733  11.349
  176DOPC   C3721554   3.108   1.920  11.031
  176DOPC   H7X21555   3.213   1.950  10.968
  176DOPC   H7Y21556   3.044   1.958  10.785
  176DOPC   C3821557   3.060   1.979  11.427
  176DOPC   H8X21558   2.955   1.947  11.490
  176DOPC   H8Y21559   3.054   2.086  11.379
  176DOPC   C3921560   3.154   1.948  11.766
  176DOPC   H9X21561   3.258   1.980  11.718
  176DOPC  C31021562   3.123   1.886  12.111
  176DOPC  H10X21563   3.203   1.877  12.339
  176DOPC  C31121564   2.989   1.834  12.240
  176DOPC  H11X21565   2.924   1.810  11.979
  176DOPC  H11Y21566   2.935   1.912  12.414
  176DOPC  C31221567   3.001   1.706  12.495
  176DOPC  H12X21568   3.025   1.621  12.291
  176DOPC  H12Y21569   2.900   1.685  12.624
  176DOPC  C31321570   3.103   1.708  12.840
  176DOPC  H13X21571   3.205   1.711  12.711
  176DOPC  H13Y21572   3.089   1.798  13.032
  176DOPC  C31421573   3.093   1.581  13.098
  176DOPC  H14X21574   3.073   1.497  12.888
  176DOPC  H14Y21575   3.191   1.562  13.248
  176DOPC  C31521576   2.983   1.587  13.419
  176DOPC  H15X21577   2.970   1.487  13.560
  176DOPC  H15Y21578   2.888   1.613  13.272
  176DOPC  C31621579   3.009   1.692  13.743
  176DOPC  H16X21580   3.117   1.716  13.740
  176DOPC  H16Y21581   2.952   1.784  13.659
  176DOPC  C31721582   2.971   1.649  14.166
  176DOPC  H17X21583   2.949   1.740  14.346
  176DOPC  H17Y21584   2.877   1.588  14.157
  176DOPC  C31821585   3.084   1.573  14.376
  176DOPC  H18X21586   3.113   1.483  14.202
  176DOPC  H18Y21587   3.174   1.637  14.403
  176DOPC  H18Z21588   3.054   1.541  14.682
  177DOPC     N21589   4.897   5.995   8.712
  177DOPC   C1221590   4.958   5.934   9.087
  177DOPC  H12A21591   5.042   5.872   9.009
  177DOPC  H12B21592   4.883   5.869   9.228
  177DOPC   C1321593   4.764   6.051   8.832
  177DOPC  H13A21594   4.776   6.109   9.108
  177DOPC  H13B21595   4.715   6.113   8.610
  177DOPC  H13C21596   4.697   5.970   8.931
  177DOPC   C1421597   4.880   5.890   8.394
  177DOPC  H14A21598   4.969   5.831   8.352
  177DOPC  H14B21599   4.800   5.821   8.478
  177DOPC  H14C21600   4.852   5.933   8.109
  177DOPC   C1521601   4.988   6.105   8.571
  177DOPC  H15A21602   5.081   6.061   8.460
  177DOPC  H15B21603   5.014   6.170   8.820
  177DOPC  H15C21604   4.946   6.160   8.322
  177DOPC   C1121605   5.004   6.032   9.420
  177DOPC  H11A21606   5.068   5.979   9.642
  177DOPC  H11B21607   5.070   6.112   9.300
  177DOPC     P21608   4.794   5.999   9.867
  177DOPC   O1321609   4.694   5.943   9.591
  177DOPC   O1421610   4.745   6.074  10.218
  177DOPC   O1221611   4.891   6.092   9.606
  177DOPC   O1121612   4.888   5.878   9.999
  177DOPC    C121613   4.831   5.750  10.086
  177DOPC    HA21614   4.864   5.677   9.855
  177DOPC    HB21615   4.720   5.750  10.083
  177DOPC    C221616   4.878   5.699  10.503
  177DOPC    HS21617   4.832   5.600  10.569
  177DOPC   O2121618   4.842   5.793  10.812
  177DOPC   C2121619   4.713   5.798  10.896
  177DOPC   O2221620   4.627   5.724  10.761
  177DOPC   C2221621   4.689   5.904  11.220
  177DOPC   H2R21622   4.593   5.879  11.373
  177DOPC   H2S21623   4.677   6.000  11.061
  177DOPC    C321624   5.032   5.680  10.503
  177DOPC    HX21625   5.077   5.769  10.362
  177DOPC    HY21626   5.055   5.593  10.305
  177DOPC   O3121627   5.079   5.653  10.905
  177DOPC   C3121628   5.141   5.754  11.082
  177DOPC   O3221629   5.182   5.855  10.917
  177DOPC   C3221630   5.153   5.729  11.526
  177DOPC   H2X21631   5.052   5.731  11.661
  177DOPC   H2Y21632   5.196   5.628  11.571
  177DOPC   C2321633   4.804   5.914  11.529
  177DOPC   H3R21634   4.903   5.914  11.376
  177DOPC   H3S21635   4.801   5.826  11.733
  177DOPC   C2421636   4.799   6.044  11.769
  177DOPC   H4R21637   4.700   6.056  11.919
  177DOPC   H4S21638   4.812   6.129  11.556
  177DOPC   C2521639   4.911   6.048  12.081
  177DOPC   H5R21640   5.006   6.009  11.952
  177DOPC   H5S21641   4.882   5.978  12.327
  177DOPC   C2621642   4.937   6.189  12.243
  177DOPC   H6R21643   4.841   6.243  12.282
  177DOPC   H6S21644   4.995   6.246  12.015
  177DOPC   C2721645   5.013   6.187  12.645
  177DOPC   H7R21646   5.029   6.291  12.744
  177DOPC   H7S21647   5.113   6.141  12.588
  177DOPC   C2821648   4.946   6.106  12.984
  177DOPC   H8R21649   5.001   6.129  13.266
  177DOPC   H8S21650   4.962   5.998  12.927
  177DOPC   C2921651   4.799   6.136  13.011
  177DOPC   H9R21652   4.742   6.113  12.738
  177DOPC  C21021653   4.729   6.173  13.338
  177DOPC  H10R21654   4.621   6.189  13.308
  177DOPC  C21121655   4.782   6.194  13.755
  177DOPC  H11R21656   4.769   6.299  13.857
  177DOPC  H11S21657   4.891   6.170  13.782
  177DOPC  C21221658   4.703   6.100  14.022
  177DOPC  H12R21659   4.594   6.121  13.998
  177DOPC  H12S21660   4.731   6.122  14.337
  177DOPC  C21321661   4.729   5.951  13.932
  177DOPC  H13R21662   4.838   5.931  13.956
  177DOPC  H13S21663   4.698   5.928  13.617
  177DOPC  C21421664   4.649   5.861  14.217
  177DOPC  H14R21665   4.582   5.930  14.385
  177DOPC  H14S21666   4.717   5.819  14.445
  177DOPC  C21521667   4.558   5.758  14.010
  177DOPC  H15R21668   4.506   5.812  13.761
  177DOPC  H15S21669   4.479   5.728  14.223
  177DOPC  C21621670   4.620   5.629  13.827
  177DOPC  H16R21671   4.671   5.659  13.545
  177DOPC  H16S21672   4.539   5.557  13.749
  177DOPC  C21721673   4.724   5.557  14.085
  177DOPC  H17R21674   4.782   5.638  14.211
  177DOPC  H17S21675   4.793   5.494  13.908
  177DOPC  C21821676   4.675   5.483  14.451
  177DOPC  H18R21677   4.659   5.561  14.679
  177DOPC  H18S21678   4.749   5.414  14.583
  177DOPC  H18T21679   4.581   5.427  14.388
  177DOPC   C3321680   5.244   5.834  11.724
  177DOPC   H3X21681   5.195   5.934  11.718
  177DOPC   H3Y21682   5.340   5.844  11.556
  177DOPC   C3421683   5.273   5.792  12.153
  177DOPC   H4X21684   5.323   5.693  12.144
  177DOPC   H4Y21685   5.176   5.779  12.309
  177DOPC   C3521686   5.363   5.888  12.390
  177DOPC   H5X21687   5.317   5.989  12.408
  177DOPC   H5Y21688   5.460   5.898  12.228
  177DOPC   C3621689   5.389   5.834  12.810
  177DOPC   H6X21690   5.422   5.727  12.780
  177DOPC   H6Y21691   5.472   5.888  12.960
  177DOPC   C3721692   5.264   5.837  13.080
  177DOPC   H7X21693   5.262   5.932  13.251
  177DOPC   H7Y21694   5.172   5.840  12.897
  177DOPC   C3821695   5.255   5.713  13.353
  177DOPC   H8X21696   5.242   5.626  13.152
  177DOPC   H8Y21697   5.160   5.718  13.527
  177DOPC   C3921698   5.374   5.689  13.623
  177DOPC   H9X21699   5.410   5.585  13.614
  177DOPC  C31021700   5.438   5.774  13.869
  177DOPC  H10X21701   5.524   5.734  14.037
  177DOPC  C31121702   5.414   5.919  13.962
  177DOPC  H11X21703   5.335   5.966  13.773
  177DOPC  H11Y21704   5.507   5.977  13.911
  177DOPC  C31221705   5.369   5.941  14.397
  177DOPC  H12X21706   5.258   5.927  14.397
  177DOPC  H12Y21707   5.382   6.047  14.481
  177DOPC  C31321708   5.434   5.855  14.733
  177DOPC  H13X21709   5.507   5.780  14.628
  177DOPC  H13Y21710   5.498   5.930  14.886
  177DOPC  C31421711   5.321   5.812  15.027
  177DOPC  H14X21712   5.310   5.904  15.210
  177DOPC  H14Y21713   5.228   5.805  14.856
  177DOPC  C31521714   5.308   5.692  15.324
  177DOPC  H15X21715   5.219   5.712  15.504
  177DOPC  H15Y21716   5.376   5.703  15.573
  177DOPC  C31621717   5.321   5.543  15.204
  177DOPC  H16X21718   5.364   5.539  14.895
  177DOPC  H16Y21719   5.399   5.502  15.408
  177DOPC  C31721720   5.208   5.432  15.219
  177DOPC  H17X21721   5.162   5.427  14.916
  177DOPC  H17Y21722   5.275   5.349  15.279
  177DOPC  C31821723   5.105   5.381  15.531
  177DOPC  H18X21724   5.103   5.271  15.540
  177DOPC  H18Y21725   5.125   5.397  15.846
  177DOPC  H18Z21726   5.001   5.405  15.447
  178DOPC     N21727   2.183   5.778   8.676
  178DOPC   C1221728   2.080   5.805   9.009
  178DOPC  H12A21729   2.093   5.729   9.246
  178DOPC  H12B21730   1.979   5.791   8.904
  178DOPC   C1321731   2.322   5.788   8.853
  178DOPC  H13A21732   2.329   5.881   9.024
  178DOPC  H13B21733   2.343   5.710   9.069
  178DOPC  H13C21734   2.399   5.787   8.628
  178DOPC   C1421735   2.173   5.881   8.352
  178DOPC  H14A21736   2.245   5.865   8.115
  178DOPC  H14B21737   2.075   5.884   8.214
  178DOPC  H14C21738   2.191   5.979   8.481
  178DOPC   C1521739   2.163   5.643   8.496
  178DOPC  H15A21740   2.231   5.629   8.244
  178DOPC  H15B21741   2.062   5.630   8.382
  178DOPC  H15C21742   2.182   5.564   8.709
  178DOPC   C1121743   2.088   5.941   9.240
  178DOPC  H11A21744   2.083   6.026   9.027
  178DOPC  H11B21745   1.997   5.950   9.435
  178DOPC     P21746   2.213   5.855   9.861
  178DOPC   O1321747   2.354   5.822   9.945
  178DOPC   O1421748   2.122   5.741   9.792
  178DOPC   O1221749   2.206   5.951   9.477
  178DOPC   O1121750   2.154   5.942  10.215
  178DOPC    C121751   2.236   5.968  10.557
  178DOPC    HA21752   2.188   6.047  10.740
  178DOPC    HB21753   2.336   6.008  10.464
  178DOPC    C221754   2.255   5.843  10.824
  178DOPC    HS21755   2.281   5.756  10.626
  178DOPC   O2121756   2.133   5.818  11.040
  178DOPC   C2121757   2.116   5.695  11.166
  178DOPC   O2221758   2.199   5.605  11.145
  178DOPC   C2221759   1.973   5.678  11.322
  178DOPC   H2R21760   1.918   5.620  11.094
  178DOPC   H2S21761   1.925   5.777  11.352
  178DOPC    C321762   2.375   5.864  11.109
  178DOPC    HX21763   2.469   5.866  10.932
  178DOPC    HY21764   2.379   5.773  11.304
  178DOPC   O3121765   2.359   5.988  11.328
  178DOPC   C3121766   2.394   5.979  11.712
  178DOPC   O3221767   2.452   5.885  11.859
  178DOPC   C3221768   2.348   6.101  11.943
  178DOPC   H2X21769   2.405   6.100  12.231
  178DOPC   H2Y21770   2.372   6.194  11.775
  178DOPC   C2321771   1.971   5.603  11.724
  178DOPC   H3R21772   2.051   5.525  11.733
  178DOPC   H3S21773   1.875   5.548  11.757
  178DOPC   C2421774   1.990   5.693  12.093
  178DOPC   H4R21775   1.898   5.752  12.153
  178DOPC   H4S21776   2.073   5.764  12.033
  178DOPC   C2521777   2.025   5.609  12.462
  178DOPC   H5R21778   2.099   5.530  12.384
  178DOPC   H5S21779   1.932   5.556  12.561
  178DOPC   C2621780   2.081   5.692  12.810
  178DOPC   H6R21781   2.064   5.636  13.092
  178DOPC   H6S21782   2.022   5.785  12.840
  178DOPC   C2721783   2.232   5.722  12.789
  178DOPC   H7R21784   2.252   5.804  12.573
  178DOPC   H7S21785   2.286   5.632  12.684
  178DOPC   C2821786   2.282   5.761  13.212
  178DOPC   H8R21787   2.255   5.678  13.416
  178DOPC   H8S21788   2.220   5.846  13.314
  178DOPC   C2921789   2.429   5.783  13.275
  178DOPC   H9R21790   2.490   5.692  13.248
  178DOPC  C21021791   2.490   5.901  13.338
  178DOPC  H10R21792   2.599   5.904  13.377
  178DOPC  C21121793   2.422   6.035  13.350
  178DOPC  H11R21794   2.315   6.020  13.278
  178DOPC  H11S21795   2.461   6.098  13.101
  178DOPC  C21221796   2.429   6.119  13.734
  178DOPC  H12R21797   2.374   6.214  13.665
  178DOPC  H12S21798   2.533   6.148  13.809
  178DOPC  C21321799   2.360   6.056  14.100
  178DOPC  H13R21800   2.431   5.991  14.268
  178DOPC  H13S21801   2.276   5.992  13.998
  178DOPC  C21421802   2.304   6.165  14.379
  178DOPC  H14R21803   2.232   6.123  14.595
  178DOPC  H14S21804   2.248   6.238  14.193
  178DOPC  C21521805   2.417   6.239  14.595
  178DOPC  H15R21806   2.487   6.276  14.358
  178DOPC  H15S21807   2.474   6.170  14.793
  178DOPC  C21621808   2.372   6.363  14.829
  178DOPC  H16R21809   2.312   6.429  14.631
  178DOPC  H16S21810   2.465   6.417  14.919
  178DOPC  C21721811   2.294   6.333  15.213
  178DOPC  H17R21812   2.201   6.281  15.123
  178DOPC  H17S21813   2.264   6.428  15.360
  178DOPC  C21821814   2.372   6.250  15.519
  178DOPC  H18R21815   2.478   6.283  15.534
  178DOPC  H18S21816   2.370   6.143  15.432
  178DOPC  H18T21817   2.328   6.259  15.825
  178DOPC   C3321818   2.198   6.087  12.033
  178DOPC   H3X21819   2.180   5.986  12.162
  178DOPC   H3Y21820   2.138   6.095  11.754
  178DOPC   C3421821   2.147   6.188  12.342
  178DOPC   H4X21822   2.130   6.287  12.192
  178DOPC   H4Y21823   2.221   6.203  12.585
  178DOPC   C3521824   2.018   6.134  12.522
  178DOPC   H5X21825   1.960   6.079  12.288
  178DOPC   H5Y21826   1.953   6.217  12.615
  178DOPC   C3621827   2.045   6.042  12.885
  178DOPC   H6X21828   1.954   5.981  12.936
  178DOPC   H6Y21829   2.130   5.975  12.816
  178DOPC   C3721830   2.074   6.120  13.272
  178DOPC   H7X21831   2.178   6.156  13.290
  178DOPC   H7Y21832   2.019   6.214  13.224
  178DOPC   C3821833   2.035   6.050  13.671
  178DOPC   H8X21834   2.072   6.112  13.923
  178DOPC   H8Y21835   2.087   5.952  13.695
  178DOPC   C3921836   1.886   6.033  13.716
  178DOPC   H9X21837   1.836   6.126  13.791
  178DOPC  C31021838   1.810   5.925  13.752
  178DOPC  H10X21839   1.701   5.938  13.731
  178DOPC  C31121840   1.860   5.784  13.764
  178DOPC  H11X21841   1.959   5.774  13.617
  178DOPC  H11Y21842   1.789   5.716  13.611
  178DOPC  C31221843   1.873   5.748  14.211
  178DOPC  H12X21844   1.905   5.642  14.223
  178DOPC  H12Y21845   1.775   5.753  14.370
  178DOPC  C31321846   1.978   5.829  14.448
  178DOPC  H13X21847   2.075   5.818  14.286
  178DOPC  H13Y21848   1.953   5.937  14.457
  178DOPC  C31421849   1.994   5.779  14.877
  178DOPC  H14X21850   1.917   5.816  15.081
  178DOPC  H14Y21851   1.974   5.670  14.883
  178DOPC  C31521852   2.133   5.802  15.051
  178DOPC  H15X21853   2.212   5.776  14.826
  178DOPC  H15Y21854   2.138   5.724  15.291
  178DOPC  C31621855   2.165   5.939  15.246
  178DOPC  H16X21856   2.222   5.918  15.525
  178DOPC  H16Y21857   2.235   5.995  15.054
  178DOPC  C31721858   2.046   6.027  15.363
  178DOPC  H17X21859   2.006   6.081  15.096
  178DOPC  H17Y21860   1.966   5.959  15.471
  178DOPC  C31821861   2.072   6.126  15.708
  178DOPC  H18X21862   1.984   6.134  15.909
  178DOPC  H18Y21863   2.158   6.090  15.894
  178DOPC  H18Z21864   2.094   6.228  15.600
  179DOPC     N21865   5.924   5.223   8.679
  179DOPC   C1221866   5.898   5.150   9.072
  179DOPC  H12A21867   5.953   5.057   9.066
  179DOPC  H12B21868   5.793   5.122   9.099
  179DOPC   C1321869   6.072   5.239   8.634
  179DOPC  H13A21870   6.102   5.310   8.406
  179DOPC  H13B21871   6.114   5.271   8.922
  179DOPC  H13C21872   6.120   5.143   8.571
  179DOPC   C1421873   5.859   5.358   8.682
  179DOPC  H14A21874   5.898   5.413   8.940
  179DOPC  H14B21875   5.880   5.410   8.406
  179DOPC  H14C21876   5.752   5.350   8.712
  179DOPC   C1521877   5.878   5.143   8.328
  179DOPC  H15A21878   5.770   5.136   8.301
  179DOPC  H15B21879   5.918   5.042   8.349
  179DOPC  H15C21880   5.917   5.184   8.052
  179DOPC   C1121881   5.940   5.219   9.468
  179DOPC  H11A21882   5.890   5.317   9.504
  179DOPC  H11B21883   5.909   5.153   9.723
  179DOPC     P21884   6.165   5.271   9.855
  179DOPC   O1321885   6.301   5.302   9.705
  179DOPC   O1421886   6.148   5.166  10.164
  179DOPC   O1221887   6.080   5.235   9.471
  179DOPC   O1121888   6.097   5.406  10.005
  179DOPC    C121889   6.075   5.520   9.753
  179DOPC    HA21890   6.046   5.490   9.441
  179DOPC    HB21891   6.171   5.576   9.735
  179DOPC    C221892   5.967   5.621   9.915
  179DOPC    HS21893   6.005   5.724   9.849
  179DOPC   O2121894   5.946   5.604  10.332
  179DOPC   C2121895   6.041   5.650  10.566
  179DOPC   O2221896   6.129   5.729  10.464
  179DOPC   C2221897   6.013   5.603  10.995
  179DOPC   H2R21898   5.902   5.592  11.025
  179DOPC   H2S21899   6.047   5.683  11.205
  179DOPC    C321900   5.825   5.617   9.711
  179DOPC    HX21901   5.840   5.638   9.387
  179DOPC    HY21902   5.767   5.703   9.834
  179DOPC   O3121903   5.752   5.493   9.753
  179DOPC   C3121904   5.683   5.480  10.092
  179DOPC   O3221905   5.663   5.567  10.341
  179DOPC   C3221906   5.630   5.338  10.125
  179DOPC   H2X21907   5.520   5.338  10.089
  179DOPC   H2Y21908   5.674   5.274   9.888
  179DOPC   C2321909   6.075   5.468  11.103
  179DOPC   H3R21910   6.051   5.394  10.866
  179DOPC   H3S21911   6.035   5.433  11.397
  179DOPC   C2421912   6.225   5.475  11.139
  179DOPC   H4R21913   6.249   5.534  11.415
  179DOPC   H4S21914   6.259   5.528  10.866
  179DOPC   C2521915   6.291   5.339  11.181
  179DOPC   H5R21916   6.402   5.351  11.193
  179DOPC   H5S21917   6.265   5.276  10.917
  179DOPC   C2621918   6.243   5.274  11.568
  179DOPC   H6R21919   6.143   5.230  11.505
  179DOPC   H6S21920   6.226   5.352  11.802
  179DOPC   C2721921   6.342   5.172  11.742
  179DOPC   H7R21922   6.433   5.226  11.844
  179DOPC   H7S21923   6.372   5.101  11.499
  179DOPC   C2821924   6.281   5.098  12.096
  179DOPC   H8R21925   6.248   5.171  12.327
  179DOPC   H8S21926   6.354   5.028  12.234
  179DOPC   C2921927   6.163   5.024  11.931
  179DOPC   H9R21928   6.166   4.999  11.607
  179DOPC  C21021929   6.057   4.988  12.141
  179DOPC  H10R21930   5.976   4.940  11.979
  179DOPC  C21121931   6.038   5.017  12.579
  179DOPC  H11R21932   6.135   5.016  12.747
  179DOPC  H11S21933   5.975   4.938  12.717
  179DOPC  C21221934   5.974   5.154  12.645
  179DOPC  H12R21935   6.009   5.219  12.402
  179DOPC  H12S21936   6.018   5.193  12.927
  179DOPC  C21321937   5.821   5.150  12.705
  179DOPC  H13R21938   5.798   5.048  12.801
  179DOPC  H13S21939   5.763   5.152  12.429
  179DOPC  C21421940   5.759   5.231  13.047
  179DOPC  H14R21941   5.651   5.205  13.050
  179DOPC  H14S21942   5.764   5.340  12.990
  179DOPC  C21521943   5.824   5.197  13.458
  179DOPC  H15R21944   5.753   5.224  13.701
  179DOPC  H15S21945   5.912   5.263  13.488
  179DOPC  C21621946   5.869   5.049  13.515
  179DOPC  H16R21947   5.917   5.010  13.242
  179DOPC  H16S21948   5.782   4.984  13.572
  179DOPC  C21721949   5.983   5.026  13.821
  179DOPC  H17R21950   5.989   5.125  13.971
  179DOPC  H17S21951   6.079   5.009  13.662
  179DOPC  C21821952   5.955   4.920  14.142
  179DOPC  H18R21953   5.999   4.937  14.445
  179DOPC  H18S21954   5.981   4.818  14.061
  179DOPC  H18T21955   5.846   4.919  14.160
  179DOPC   C3321956   5.668   5.279  10.533
  179DOPC   H3X21957   5.628   5.176  10.563
  179DOPC   H3Y21958   5.616   5.339  10.767
  179DOPC   C3421959   5.820   5.280  10.599
  179DOPC   H4X21960   5.850   5.383  10.686
  179DOPC   H4Y21961   5.874   5.257  10.314
  179DOPC   C3521962   5.869   5.182  10.917
  179DOPC   H5X21963   5.971   5.210  11.019
  179DOPC   H5Y21964   5.879   5.080  10.791
  179DOPC   C3621965   5.776   5.179  11.280
  179DOPC   H6X21966   5.679   5.129  11.208
  179DOPC   H6Y21967   5.827   5.117  11.511
  179DOPC   C3721968   5.748   5.318  11.454
  179DOPC   H7X21969   5.836   5.384  11.409
  179DOPC   H7Y21970   5.660   5.369  11.322
  179DOPC   C3821971   5.726   5.300  11.898
  179DOPC   H8X21972   5.825   5.259  11.988
  179DOPC   H8Y21973   5.651   5.218  11.943
  179DOPC   C3921974   5.689   5.419  12.144
  179DOPC   H9X21975   5.583   5.435  12.204
  179DOPC  C31021976   5.778   5.503  12.303
  179DOPC  H10X21977   5.744   5.583  12.504
  179DOPC  C31121978   5.927   5.489  12.252
  179DOPC  H11X21979   5.960   5.531  11.964
  179DOPC  H11Y21980   5.958   5.385  12.234
  179DOPC  C31221981   6.002   5.555  12.597
  179DOPC  H12X21982   5.958   5.654  12.660
  179DOPC  H12Y21983   6.108   5.566  12.504
  179DOPC  C31321984   6.001   5.485  13.002
  179DOPC  H13X21985   5.900   5.490  13.143
  179DOPC  H13Y21986   6.029   5.380  12.969
  179DOPC  C31421987   6.106   5.550  13.263
  179DOPC  H14X21988   6.206   5.521  13.149
  179DOPC  H14Y21989   6.096   5.661  13.236
  179DOPC  C31521990   6.095   5.515  13.704
  179DOPC  H15X21991   6.076   5.407  13.752
  179DOPC  H15Y21992   6.006   5.570  13.821
  179DOPC  C31621993   6.224   5.558  13.908
  179DOPC  H16X21994   6.307   5.491  13.806
  179DOPC  H16Y21995   6.249   5.661  13.803
  179DOPC  C31721996   6.221   5.557  14.364
  179DOPC  H17X21997   6.229   5.453  14.472
  179DOPC  H17Y21998   6.313   5.608  14.472
  179DOPC  C31821999   6.098   5.622  14.556
  179DOPC  H18X22000   6.096   5.732  14.511
  179DOPC  H18Y22001   6.003   5.579  14.442
  179DOPC  H18Z22002   6.103   5.601  14.883
  180DOPC     N22003   6.455   3.260   8.700
  180DOPC   C1222004   6.343   3.276   9.003
  180DOPC  H12A22005   6.315   3.178   9.117
  180DOPC  H12B22006   6.257   3.316   8.847
  180DOPC   C1322007   6.538   3.142   8.817
  180DOPC  H13A22008   6.567   3.151   9.135
  180DOPC  H13B22009   6.483   3.049   8.793
  180DOPC  H13C22010   6.629   3.135   8.643
  180DOPC   C1422011   6.541   3.380   8.721
  180DOPC  H14A22012   6.632   3.369   8.547
  180DOPC  H14B22013   6.486   3.468   8.628
  180DOPC  H14C22014   6.567   3.395   9.039
  180DOPC   C1522015   6.400   3.248   8.283
  180DOPC  H15A22016   6.342   3.157   8.253
  180DOPC  H15B22017   6.480   3.251   8.070
  180DOPC  H15C22018   6.334   3.333   8.223
  180DOPC   C1122019   6.365   3.364   9.381
  180DOPC  H11A22020   6.382   3.469   9.285
  180DOPC  H11B22021   6.271   3.365   9.561
  180DOPC     P22022   6.458   3.183   9.858
  180DOPC   O1322023   6.591   3.117   9.879
  180DOPC   O1422024   6.349   3.105   9.666
  180DOPC   O1222025   6.476   3.319   9.615
  180DOPC   O1122026   6.410   3.231  10.281
  180DOPC    C122027   6.493   3.274  10.602
  180DOPC    HA22028   6.535   3.374  10.542
  180DOPC    HB22029   6.579   3.203  10.641
  180DOPC    C222030   6.406   3.272  10.989
  180DOPC    HS22031   6.465   3.309  11.247
  180DOPC   O2122032   6.381   3.129  11.022
  180DOPC   C2122033   6.475   3.047  11.178
  180DOPC   O2222034   6.580   3.082  11.328
  180DOPC   C2222035   6.423   2.899  11.142
  180DOPC   H2R22036   6.423   2.882  10.812
  180DOPC   H2S22037   6.318   2.901  11.241
  180DOPC    C322038   6.272   3.371  10.932
  180DOPC    HX22039   6.251   3.369  10.605
  180DOPC    HY22040   6.314   3.472  10.995
  180DOPC   O3122041   6.147   3.357  11.169
  180DOPC   C3122042   6.013   3.392  11.067
  180DOPC   O3222043   5.990   3.451  10.758
  180DOPC   C3222044   5.886   3.347  11.358
  180DOPC   H2X22045   5.909   3.384  11.655
  180DOPC   H2Y22046   5.803   3.413  11.256
  180DOPC   C2322047   6.489   2.772  11.346
  180DOPC   H3R22048   6.597   2.769  11.274
  180DOPC   H3S22049   6.442   2.684  11.196
  180DOPC   C2422050   6.470   2.747  11.802
  180DOPC   H4R22051   6.521   2.651  11.880
  180DOPC   H4S22052   6.362   2.733  11.874
  180DOPC   C2522053   6.531   2.859  12.054
  180DOPC   H5R22054   6.485   2.953  11.943
  180DOPC   H5S22055   6.640   2.864  11.994
  180DOPC   C2622056   6.510   2.858  12.510
  180DOPC   H6R22057   6.556   2.769  12.654
  180DOPC   H6S22058   6.400   2.857  12.564
  180DOPC   C2722059   6.569   2.985  12.702
  180DOPC   H7R22060   6.669   3.002  12.564
  180DOPC   H7S22061   6.586   2.972  13.029
  180DOPC   C2822062   6.479   3.108  12.648
  180DOPC   H8R22063   6.390   3.098  12.849
  180DOPC   H8S22064   6.440   3.111  12.336
  180DOPC   C2922065   6.559   3.232  12.747
  180DOPC   H9R22066   6.642   3.216  12.957
  180DOPC  C21022067   6.537   3.357  12.609
  180DOPC  H10R22068   6.603   3.439  12.702
  180DOPC  C21122069   6.426   3.396  12.330
  180DOPC  H11R22070   6.398   3.308  12.144
  180DOPC  H11S22071   6.461   3.473  12.114
  180DOPC  C21222072   6.302   3.450  12.561
  180DOPC  H12R22073   6.217   3.459  12.345
  180DOPC  H12S22074   6.326   3.553  12.666
  180DOPC  C21322075   6.258   3.366  12.930
  180DOPC  H13R22076   6.341   3.361  13.149
  180DOPC  H13S22077   6.237   3.262  12.831
  180DOPC  C21422078   6.135   3.422  13.146
  180DOPC  H14R22079   6.046   3.403  12.957
  180DOPC  H14S22080   6.147   3.532  13.179
  180DOPC  C21522081   6.096   3.361  13.554
  180DOPC  H15R22082   6.184   3.330  13.728
  180DOPC  H15S22083   6.033   3.271  13.494
  180DOPC  C21622084   6.004   3.457  13.782
  180DOPC  H16R22085   5.905   3.452  13.629
  180DOPC  H16S22086   6.044   3.561  13.755
  180DOPC  C21722087   5.972   3.425  14.217
  180DOPC  H17R22088   5.922   3.327  14.217
  180DOPC  H17S22089   5.897   3.499  14.328
  180DOPC  C21822090   6.092   3.427  14.499
  180DOPC  H18R22091   6.138   3.528  14.502
  180DOPC  H18S22092   6.169   3.354  14.397
  180DOPC  H18T22093   6.062   3.400  14.808
  180DOPC   C3322094   5.824   3.196  11.379
  180DOPC   H3X22095   5.914   3.144  11.448
  180DOPC   H3Y22096   5.788   3.162  11.085
  180DOPC   C3422097   5.750   3.112  11.718
  180DOPC   H4X22098   5.643   3.108  11.631
  180DOPC   H4Y22099   5.746   3.161  12.009
  180DOPC   C3522100   5.799   2.958  11.763
  180DOPC   H5X22101   5.832   2.925  11.463
  180DOPC   H5Y22102   5.707   2.902  11.835
  180DOPC   C3622103   5.909   2.916  12.090
  180DOPC   H6X22104   6.008   2.943  11.976
  180DOPC   H6Y22105   5.879   2.978  12.345
  180DOPC   C3722106   5.949   2.777  12.270
  180DOPC   H7X22107   5.869   2.752  12.486
  180DOPC   H7Y22108   5.953   2.700  12.033
  180DOPC   C3822109   6.087   2.765  12.501
  180DOPC   H8X22110   6.140   2.863  12.501
  180DOPC   H8Y22111   6.152   2.697  12.321
  180DOPC   C3922112   6.071   2.706  12.918
  180DOPC   H9X22113   5.966   2.695  13.008
  180DOPC  C31022114   6.165   2.663  13.182
  180DOPC  H10X22115   6.134   2.618  13.470
  180DOPC  C31122116   6.314   2.667  13.107
  180DOPC  H11X22117   6.337   2.772  13.041
  180DOPC  H11Y22118   6.335   2.607  12.834
  180DOPC  C31222119   6.422   2.624  13.422
  180DOPC  H12X22120   6.520   2.633  13.266
  180DOPC  H12Y22121   6.414   2.518  13.509
  180DOPC  C31322122   6.430   2.713  13.797
  180DOPC  H13X22123   6.333   2.717  13.956
  180DOPC  H13Y22124   6.505   2.670  14.007
  180DOPC  C31422125   6.476   2.852  13.671
  180DOPC  H14X22126   6.564   2.837  13.470
  180DOPC  H14Y22127   6.397   2.904  13.497
  180DOPC  C31522128   6.522   2.943  14.010
  180DOPC  H15X22129   6.577   3.026  13.857
  180DOPC  H15Y22130   6.594   2.890  14.208
  180DOPC  C31622131   6.406   3.000  14.253
  180DOPC  H16X22132   6.335   3.050  14.043
  180DOPC  H16Y22133   6.351   2.918  14.406
  180DOPC  C31722134   6.454   3.104  14.559
  180DOPC  H17X22135   6.364   3.155  14.685
  180DOPC  H17Y22136   6.503   3.050  14.814
  180DOPC  C31822137   6.552   3.207  14.388
  180DOPC  H18X22138   6.649   3.159  14.319
  180DOPC  H18Y22139   6.511   3.252  14.109
  180DOPC  H18Z22140   6.573   3.289  14.601
  181DOPC     N22141   0.717   3.842   8.982
  181DOPC   C1222142   0.849   3.919   8.940
  181DOPC  H12A22143   0.874   3.970   9.219
  181DOPC  H12B22144   0.841   3.997   8.718
  181DOPC   C1322145   0.726   3.765   9.369
  181DOPC  H13A22146   0.817   3.705   9.363
  181DOPC  H13B22147   0.741   3.832   9.621
  181DOPC  H13C22148   0.642   3.700   9.420
  181DOPC   C1422149   0.702   3.748   8.637
  181DOPC  H14A22150   0.618   3.682   8.673
  181DOPC  H14B22151   0.690   3.800   8.349
  181DOPC  H14C22152   0.792   3.689   8.607
  181DOPC   C1522153   0.599   3.933   9.009
  181DOPC  H15A22154   0.507   3.876   8.970
  181DOPC  H15B22155   0.596   4.007   8.772
  181DOPC  H15C22156   0.596   3.984   9.294
  181DOPC   C1122157   0.976   3.834   8.841
  181DOPC  H11A22158   0.961   3.777   8.559
  181DOPC  H11B22159   1.062   3.903   8.781
  181DOPC     P22160   1.084   3.802   9.540
  181DOPC   O1322161   1.057   3.948   9.558
  181DOPC   O1422162   1.221   3.748   9.507
  181DOPC   O1222163   1.007   3.743   9.159
  181DOPC   O1122164   1.007   3.718   9.888
  181DOPC    C122165   1.023   3.573   9.879
  181DOPC    HA22166   1.130   3.545   9.885
  181DOPC    HB22167   0.978   3.535   9.591
  181DOPC    C222168   0.955   3.481  10.215
  181DOPC    HS22169   0.917   3.390  10.065
  181DOPC   O2122170   0.845   3.549  10.398
  181DOPC   C2122171   0.770   3.482  10.662
  181DOPC   O2222172   0.783   3.365  10.758
  181DOPC   C2222173   0.668   3.577  10.839
  181DOPC   H2R22174   0.616   3.524  11.085
  181DOPC   H2S22175   0.594   3.593  10.602
  181DOPC    C322176   1.059   3.435  10.545
  181DOPC    HX22177   1.138   3.376  10.389
  181DOPC    HY22178   1.013   3.366  10.761
  181DOPC   O3122179   1.120   3.546  10.746
  181DOPC   C3122180   1.192   3.517  11.070
  181DOPC   O3222181   1.197   3.408  11.232
  181DOPC   C3222182   1.273   3.639  11.193
  181DOPC   H2X22183   1.218   3.696  11.424
  181DOPC   H2Y22184   1.367   3.601  11.334
  181DOPC   C2322185   0.740   3.704  10.983
  181DOPC   H3R22186   0.670   3.779  11.094
  181DOPC   H3S22187   0.800   3.752  10.740
  181DOPC   C2422188   0.830   3.675  11.340
  181DOPC   H4R22189   0.870   3.771  11.460
  181DOPC   H4S22190   0.916   3.616  11.220
  181DOPC   C2522191   0.760   3.598  11.682
  181DOPC   H5R22192   0.738   3.494  11.580
  181DOPC   H5S22193   0.664   3.647  11.766
  181DOPC   C2622194   0.850   3.588  12.048
  181DOPC   H6R22195   0.817   3.504  12.246
  181DOPC   H6S22196   0.845   3.681  12.222
  181DOPC   C2722197   0.994   3.565  11.910
  181DOPC   H7R22198   1.034   3.650  11.736
  181DOPC   H7S22199   0.993   3.473  11.718
  181DOPC   C2822200   1.088   3.550  12.258
  181DOPC   H8R22201   1.029   3.501  12.498
  181DOPC   H8S22202   1.113   3.652  12.375
  181DOPC   C2922203   1.209   3.472  12.120
  181DOPC   H9R22204   1.189   3.389  11.913
  181DOPC  C21022205   1.334   3.492  12.246
  181DOPC  H10R22206   1.419   3.434  12.123
  181DOPC  C21122207   1.364   3.597  12.549
  181DOPC  H11R22208   1.327   3.697  12.453
  181DOPC  H11S22209   1.473   3.608  12.609
  181DOPC  C21222210   1.291   3.552  12.933
  181DOPC  H12R22211   1.341   3.463  13.065
  181DOPC  H12S22212   1.183   3.532  12.906
  181DOPC  C21322213   1.295   3.668  13.206
  181DOPC  H13R22214   1.252   3.760  13.068
  181DOPC  H13S22215   1.404   3.681  13.188
  181DOPC  C21422216   1.237   3.653  13.629
  181DOPC  H14R22217   1.285   3.571  13.800
  181DOPC  H14S22218   1.128   3.632  13.623
  181DOPC  C21522219   1.265   3.784  13.836
  181DOPC  H15R22220   1.241   3.782  14.154
  181DOPC  H15S22221   1.199   3.866  13.725
  181DOPC  C21622222   1.412   3.821  13.752
  181DOPC  H16R22223   1.441   3.908  13.920
  181DOPC  H16S22224   1.412   3.862  13.443
  181DOPC  C21722225   1.522   3.708  13.773
  181DOPC  H17R22226   1.571   3.705  13.473
  181DOPC  H17S22227   1.475   3.609  13.812
  181DOPC  C21822228   1.630   3.716  14.094
  181DOPC  H18R22229   1.698   3.628  14.082
  181DOPC  H18S22230   1.581   3.726  14.391
  181DOPC  H18T22231   1.695   3.803  14.061
  181DOPC   C3322232   1.307   3.727  10.824
  181DOPC   H3X22233   1.331   3.665  10.557
  181DOPC   H3Y22234   1.399   3.779  10.905
  181DOPC   C3422235   1.202   3.833  10.707
  181DOPC   H4X22236   1.113   3.784  10.575
  181DOPC   H4Y22237   1.248   3.897  10.467
  181DOPC   C3522238   1.158   3.924  11.055
  181DOPC   H5X22239   1.249   3.963  11.208
  181DOPC   H5Y22240   1.100   3.865  11.277
  181DOPC   C3622241   1.072   4.043  10.920
  181DOPC   H6X22242   1.122   4.093  10.662
  181DOPC   H6Y22243   0.974   4.003  10.809
  181DOPC   C3722244   1.047   4.149  11.250
  181DOPC   H7X22245   1.136   4.216  11.259
  181DOPC   H7Y22246   0.959   4.211  11.157
  181DOPC   C3822247   1.023   4.092  11.676
  181DOPC   H8X22248   1.111   4.029  11.760
  181DOPC   H8Y22249   0.935   4.025  11.664
  181DOPC   C3922250   1.003   4.200  11.985
  181DOPC   H9X22251   0.960   4.293  11.868
  181DOPC  C31022252   1.025   4.190  12.384
  181DOPC  H10X22253   1.001   4.278  12.570
  181DOPC  C31122254   1.075   4.070  12.615
  181DOPC  H11X22255   1.159   4.102  12.813
  181DOPC  H11Y22256   1.116   3.991  12.414
  181DOPC  C31222257   0.967   4.004  12.885
  181DOPC  H12X22258   0.898   4.081  13.002
  181DOPC  H12Y22259   1.018   3.958  13.149
  181DOPC  C31322260   0.889   3.892  12.669
  181DOPC  H13X22261   0.839   3.931  12.399
  181DOPC  H13Y22262   0.964   3.818  12.558
  181DOPC  C31422263   0.786   3.815  12.927
  181DOPC  H14X22264   0.721   3.883  13.098
  181DOPC  H14Y22265   0.719   3.757  12.723
  181DOPC  C31522266   0.854   3.719  13.221
  181DOPC  H15X22267   0.917   3.781  13.425
  181DOPC  H15Y22268   0.922   3.651  13.053
  181DOPC  C31622269   0.755   3.636  13.470
  181DOPC  H16X22270   0.670   3.699  13.569
  181DOPC  H16Y22271   0.714   3.554  13.278
  181DOPC  C31722272   0.821   3.574  13.842
  181DOPC  H17X22273   0.745   3.511  13.995
  181DOPC  H17Y22274   0.903   3.507  13.740
  181DOPC  C31822275   0.878   3.675  14.142
  181DOPC  H18X22276   0.973   3.720  14.031
  181DOPC  H18Y22277   0.806   3.758  14.193
  181DOPC  H18Z22278   0.900   3.627  14.436
  182DOPC     N22279   2.562   0.933   9.675
  182DOPC   C1222280   2.542   1.028   9.321
  182DOPC  H12A22281   2.542   0.970   9.045
  182DOPC  H12B22282   2.630   1.092   9.300
  182DOPC   C1322283   2.590   1.013  10.044
  182DOPC  H13A22284   2.605   0.948  10.299
  182DOPC  H13B22285   2.681   1.070  10.005
  182DOPC  H13C22286   2.507   1.080  10.104
  182DOPC   C1422287   2.682   0.849   9.579
  182DOPC  H14A22288   2.765   0.912   9.477
  182DOPC  H14B22289   2.717   0.792   9.834
  182DOPC  H14C22290   2.661   0.779   9.336
  182DOPC   C1522291   2.440   0.848   9.729
  182DOPC  H15A22292   2.351   0.912   9.747
  182DOPC  H15B22293   2.447   0.786   9.996
  182DOPC  H15C22294   2.425   0.786   9.468
  182DOPC   C1122295   2.416   1.120   9.312
  182DOPC  H11A22296   2.414   1.179   9.594
  182DOPC  H11B22297   2.429   1.193   9.063
  182DOPC     P22298   2.211   1.043   8.874
  182DOPC   O1322299   2.297   1.027   8.520
  182DOPC   O1422300   2.117   1.158   8.877
  182DOPC   O1222301   2.296   1.045   9.282
  182DOPC   O1122302   2.127   0.909   8.886
  182DOPC    C122303   2.070   0.848   9.225
  182DOPC    HA22304   2.149   0.800   9.411
  182DOPC    HB22305   2.002   0.767   9.126
  182DOPC    C222306   1.990   0.948   9.483
  182DOPC    HS22307   1.959   1.034   9.291
  182DOPC   O2122308   2.082   0.987   9.792
  182DOPC   C2122309   2.060   1.106   9.936
  182DOPC   O2222310   1.962   1.176   9.882
  182DOPC   C2222311   2.185   1.148  10.170
  182DOPC   H2R22312   2.247   1.209   9.963
  182DOPC   H2S22313   2.243   1.058  10.260
  182DOPC    C322314   1.861   0.886   9.651
  182DOPC    HX22315   1.789   0.870   9.402
  182DOPC    HY22316   1.813   0.961   9.852
  182DOPC   O3122317   1.892   0.759   9.837
  182DOPC   C3122318   1.918   0.775  10.227
  182DOPC   O3222319   1.891   0.874  10.422
  182DOPC   C3222320   2.007   0.665  10.386
  182DOPC   H2X22321   1.946   0.601  10.587
  182DOPC   H2Y22322   2.044   0.603  10.131
  182DOPC   C2322323   2.148   1.232  10.539
  182DOPC   H3R22324   2.080   1.314  10.434
  182DOPC   H3S22325   2.238   1.280  10.671
  182DOPC   C2422326   2.075   1.153  10.863
  182DOPC   H4R22327   1.984   1.104  10.734
  182DOPC   H4S22328   2.039   1.227  11.079
  182DOPC   C2522329   2.156   1.048  11.094
  182DOPC   H5R22330   2.249   1.022  10.929
  182DOPC   H5S22331   2.093   0.957  11.115
  182DOPC   C2622332   2.190   1.089  11.529
  182DOPC   H6R22333   2.097   1.121  11.685
  182DOPC   H6S22334   2.260   1.175  11.523
  182DOPC   C2722335   2.252   0.972  11.760
  182DOPC   H7R22336   2.347   0.948  11.604
  182DOPC   H7S22337   2.185   0.884  11.739
  182DOPC   C2822338   2.282   0.996  12.204
  182DOPC   H8R22339   2.342   0.914  12.336
  182DOPC   H8S22340   2.187   0.996  12.375
  182DOPC   C2922341   2.356   1.124  12.267
  182DOPC   H9R22342   2.420   1.157  12.021
  182DOPC  C21022343   2.355   1.189  12.615
  182DOPC  H10R22344   2.415   1.281  12.636
  182DOPC  C21122345   2.281   1.144  12.987
  182DOPC  H11R22346   2.354   1.138  13.236
  182DOPC  H11S22347   2.241   1.041  12.957
  182DOPC  C21222348   2.165   1.231  13.134
  182DOPC  H12R22349   2.078   1.223  12.930
  182DOPC  H12S22350   2.196   1.337  13.143
  182DOPC  C21322351   2.127   1.198  13.569
  182DOPC  H13R22352   2.037   1.254  13.644
  182DOPC  H13S22353   2.202   1.240  13.779
  182DOPC  C21422354   2.114   1.049  13.677
  182DOPC  H14R22355   2.207   0.994  13.596
  182DOPC  H14S22356   2.031   1.001  13.509
  182DOPC  C21522357   2.091   1.031  14.127
  182DOPC  H15R22358   2.030   1.114  14.250
  182DOPC  H15S22359   2.190   1.036  14.274
  182DOPC  C21622360   2.020   0.902  14.238
  182DOPC  H16R22361   2.063   0.822  14.043
  182DOPC  H16S22362   1.912   0.910  14.166
  182DOPC  C21722363   2.042   0.865  14.682
  182DOPC  H17R22364   2.141   0.902  14.772
  182DOPC  H17S22365   2.042   0.756  14.739
  182DOPC  C21822366   1.946   0.934  14.961
  182DOPC  H18R22367   1.947   1.043  14.898
  182DOPC  H18S22368   1.978   0.917  15.276
  182DOPC  H18T22369   1.843   0.895  14.928
  182DOPC   C3322370   2.122   0.728  10.626
  182DOPC   H3X22371   2.099   0.713  10.950
  182DOPC   H3Y22372   2.128   0.838  10.575
  182DOPC   C3422373   2.258   0.672  10.509
  182DOPC   H4X22374   2.275   0.693  10.185
  182DOPC   H4Y22375   2.257   0.562  10.548
  182DOPC   C3522376   2.371   0.733  10.761
  182DOPC   H5X22377   2.374   0.844  10.722
  182DOPC   H5Y22378   2.469   0.692  10.659
  182DOPC   C3622379   2.350   0.697  11.202
  182DOPC   H6X22380   2.262   0.752  11.319
  182DOPC   H6Y22381   2.323   0.589  11.208
  182DOPC   C3722382   2.468   0.720  11.487
  182DOPC   H7X22383   2.559   0.669  11.370
  182DOPC   H7Y22384   2.497   0.827  11.496
  182DOPC   C3822385   2.436   0.671  11.916
  182DOPC   H8X22386   2.372   0.747  12.054
  182DOPC   H8Y22387   2.531   0.671  12.087
  182DOPC   C3922388   2.366   0.537  11.964
  182DOPC   H9X22389   2.410   0.456  11.784
  182DOPC  C31022390   2.258   0.507  12.189
  182DOPC  H10X22391   2.231   0.400  12.222
  182DOPC  C31122392   2.179   0.600  12.456
  182DOPC  H11X22393   2.070   0.578  12.438
  182DOPC  H11Y22394   2.192   0.707  12.372
  182DOPC  C31222395   2.227   0.585  12.891
  182DOPC  H12X22396   2.241   0.477  12.969
  182DOPC  H12Y22397   2.151   0.625  13.104
  182DOPC  C31322398   2.357   0.664  12.948
  182DOPC  H13X22399   2.430   0.630  12.720
  182DOPC  H13Y22400   2.335   0.771  12.882
  182DOPC  C31422401   2.417   0.655  13.368
  182DOPC  H14X22402   2.392   0.559  13.515
  182DOPC  H14Y22403   2.528   0.663  13.353
  182DOPC  C31522404   2.363   0.761  13.653
  182DOPC  H15X22405   2.252   0.749  13.668
  182DOPC  H15Y22406   2.384   0.862  13.530
  182DOPC  C31622407   2.424   0.746  14.073
  182DOPC  H16X22408   2.404   0.643  14.184
  182DOPC  H16Y22409   2.533   0.764  14.067
  182DOPC  C31722410   2.359   0.843  14.367
  182DOPC  H17X22411   2.384   0.948  14.292
  182DOPC  H17Y22412   2.252   0.828  14.301
  182DOPC  C31822413   2.380   0.815  14.814
  182DOPC  H18X22414   2.336   0.897  14.997
  182DOPC  H18Y22415   2.332   0.719  14.901
  182DOPC  H18Z22416   2.487   0.806  14.889
  183DOPC     N22417   6.693   5.198   9.225
  183DOPC   C1222418   6.718   5.327   8.988
  183DOPC  H12A22419   6.627   5.383   8.952
  183DOPC  H12B22420   6.753   5.300   8.691
  183DOPC   C1322421   6.648   5.222   9.648
  183DOPC  H13A22422   6.555   5.279   9.669
  183DOPC  H13B22423   6.631   5.130   9.810
  183DOPC  H13C22424   6.723   5.282   9.807
  183DOPC   C1422425   6.825   5.131   9.237
  183DOPC  H14A22426   6.870   5.130   8.943
  183DOPC  H14B22427   6.894   5.192   9.417
  183DOPC  H14C22428   6.821   5.033   9.366
  183DOPC   C1522429   6.596   5.113   9.006
  183DOPC  H15A22430   6.637   5.082   8.715
  183DOPC  H15B22431   6.505   5.170   8.943
  183DOPC  H15C22432   6.569   5.024   9.171
  183DOPC   C1122433   6.825   5.423   9.153
  183DOPC  H11A22434   6.839   5.512   8.958
  183DOPC  H11B22435   6.786   5.465   9.432
  183DOPC     P22436   7.082   5.381   9.012
  183DOPC   O1322437   7.050   5.414   8.589
  183DOPC   O1422438   7.161   5.257   9.078
  183DOPC   O1222439   6.948   5.360   9.240
  183DOPC   O1122440   7.143   5.503   9.243
  183DOPC    C122441   7.230   5.484   9.576
  183DOPC    HA22442   7.278   5.583   9.624
  183DOPC    HB22443   7.314   5.416   9.507
  183DOPC    C222444   7.165   5.454   9.999
  183DOPC    HS22445   7.244   5.444  10.233
  183DOPC   O2122446   7.072   5.343  10.029
  183DOPC   C2122447   7.133   5.235  10.176
  183DOPC   O2222448   7.250   5.208  10.128
  183DOPC   C2222449   7.046   5.154  10.464
  183DOPC   H2R22450   7.025   5.056  10.323
  183DOPC   H2S22451   6.950   5.206  10.515
  183DOPC    C322452   7.099   5.589  10.098
  183DOPC    HX22453   7.027   5.597   9.849
  183DOPC    HY22454   7.170   5.672  10.044
  183DOPC   O3122455   7.051   5.614  10.497
  183DOPC   C3122456   6.960   5.549  10.692
  183DOPC   O3222457   6.911   5.440  10.617
  183DOPC   C3222458   6.922   5.629  11.061
  183DOPC   H2X22459   6.981   5.723  11.079
  183DOPC   H2Y22460   6.814   5.655  11.055
  183DOPC   C2322461   7.123   5.133  10.866
  183DOPC   H3R22462   7.148   5.231  11.001
  183DOPC   H3S22463   7.220   5.081  10.797
  183DOPC   C2422464   7.051   5.048  11.184
  183DOPC   H4R22465   7.123   5.019  11.424
  183DOPC   H4S22466   7.019   4.953  11.040
  183DOPC   C2522467   6.929   5.114  11.379
  183DOPC   H5R22468   6.864   5.033  11.496
  183DOPC   H5S22469   6.871   5.171  11.151
  183DOPC   C2622470   6.961   5.206  11.736
  183DOPC   H6R22471   7.023   5.291  11.628
  183DOPC   H6S22472   7.023   5.152  11.958
  183DOPC   C2722473   6.832   5.258  11.937
  183DOPC   H7R22474   6.772   5.312  11.706
  183DOPC   H7S22475   6.857   5.330  12.177
  183DOPC   C2822476   6.742   5.148  12.117
  183DOPC   H8R22477   6.695   5.089  11.868
  183DOPC   H8S22478   6.657   5.198  12.273
  183DOPC   C2922479   6.818   5.057  12.396
  183DOPC   H9R22480   6.868   4.971  12.252
  183DOPC  C21022481   6.836   5.078  12.789
  183DOPC  H10R22482   6.898   5.008  12.963
  183DOPC  C21122483   6.782   5.196  13.017
  183DOPC  H11R22484   6.701   5.166  13.230
  183DOPC  H11S22485   6.738   5.272  12.813
  183DOPC  C21222486   6.893   5.267  13.254
  183DOPC  H12R22487   6.988   5.268  13.083
  183DOPC  H12S22488   6.911   5.213  13.542
  183DOPC  C21322489   6.856   5.413  13.338
  183DOPC  H13R22490   6.747   5.424  13.401
  183DOPC  H13S22491   6.877   5.470  13.059
  183DOPC  C21422492   6.937   5.472  13.683
  183DOPC  H14R22493   6.942   5.582  13.635
  183DOPC  H14S22494   7.042   5.436  13.665
  183DOPC  C21522495   6.882   5.452  14.112
  183DOPC  H15R22496   6.892   5.554  14.244
  183DOPC  H15S22497   6.947   5.383  14.286
  183DOPC  C21622498   6.733   5.425  14.181
  183DOPC  H16R22499   6.702   5.328  14.049
  183DOPC  H16S22500   6.678   5.506  14.022
  183DOPC  C21722501   6.690   5.432  14.628
  183DOPC  H17R22502   6.579   5.432  14.646
  183DOPC  H17S22503   6.725   5.529  14.760
  183DOPC  C21822504   6.744   5.323  14.904
  183DOPC  H18R22505   6.855   5.325  14.895
  183DOPC  H18S22506   6.709   5.222  14.817
  183DOPC  H18T22507   6.711   5.343  15.219
  183DOPC   C3322508   6.956   5.535  11.403
  183DOPC   H3X22509   7.061   5.499  11.361
  183DOPC   H3Y22510   6.890   5.446  11.391
  183DOPC   C3422511   6.947   5.601  11.808
  183DOPC   H4X22512   6.847   5.576  11.934
  183DOPC   H4Y22513   6.955   5.712  11.781
  183DOPC   C3522514   7.057   5.548  12.075
  183DOPC   H5X22515   7.152   5.533  11.904
  183DOPC   H5Y22516   7.027   5.448  12.189
  183DOPC   C3622517   7.089   5.640  12.420
  183DOPC   H6X22518   7.145   5.729  12.318
  183DOPC   H6Y22519   6.996   5.674  12.573
  183DOPC   C3722520   7.171   5.557  12.708
  183DOPC   H7X22521   7.117   5.461  12.768
  183DOPC   H7Y22522   7.268   5.532  12.558
  183DOPC   C3822523   7.193   5.630  13.098
  183DOPC   H8X22524   7.096   5.652  13.248
  183DOPC   H8Y22525   7.246   5.725  13.026
  183DOPC   C3922526   7.281   5.540  13.338
  183DOPC   H9X22527   7.266   5.433  13.278
  183DOPC  C31022528   7.346   5.577  13.668
  183DOPC  H10X22529   7.415   5.506  13.809
  183DOPC  C31122530   7.339   5.713  13.848
  183DOPC  H11X22531   7.232   5.730  13.911
  183DOPC  H11Y22532   7.374   5.788  13.626
  183DOPC  C31222533   7.413   5.737  14.250
  183DOPC  H12X22534   7.409   5.845  14.319
  183DOPC  H12Y22535   7.518   5.706  14.211
  183DOPC  C31322536   7.360   5.659  14.607
  183DOPC  H13X22537   7.250   5.651  14.589
  183DOPC  H13Y22538   7.400   5.557  14.559
  183DOPC  C31422539   7.406   5.699  15.036
  183DOPC  H14X22540   7.344   5.637  15.243
  183DOPC  H14Y22541   7.512   5.664  15.060
  183DOPC  C31522542   7.407   5.843  15.207
  183DOPC  H15X22543   7.497   5.893  15.090
  183DOPC  H15Y22544   7.421   5.835  15.537
  183DOPC  C31622545   7.290   5.940  15.132
  183DOPC  H16X22546   7.322   6.040  15.243
  183DOPC  H16Y22547   7.274   5.948  14.808
  183DOPC  C31722548   7.161   5.905  15.360
  183DOPC  H17X22549   7.158   5.796  15.396
  183DOPC  H17Y22550   7.173   5.947  15.666
  183DOPC  C31822551   7.028   5.958  15.192
  183DOPC  H18X22552   6.940   5.906  15.315
  183DOPC  H18Y22553   7.011   6.063  15.273
  183DOPC  H18Z22554   7.020   5.946  14.865
  184DOPC     N22555   4.621   0.479   9.579
  184DOPC   C1222556   4.600   0.557   9.192
  184DOPC  H12A22557   4.500   0.594   9.186
  184DOPC  H12B22558   4.613   0.491   8.934
  184DOPC   C1322559   4.752   0.407   9.558
  184DOPC  H13A22560   4.757   0.342   9.297
  184DOPC  H13B22561   4.833   0.478   9.507
  184DOPC  H13C22562   4.780   0.353   9.825
  184DOPC   C1422563   4.512   0.379   9.645
  184DOPC  H14A22564   4.416   0.427   9.666
  184DOPC  H14B22565   4.510   0.305   9.405
  184DOPC  H14C22566   4.529   0.327   9.927
  184DOPC   C1522567   4.624   0.572   9.933
  184DOPC  H15A22568   4.542   0.642   9.927
  184DOPC  H15B22569   4.717   0.630   9.930
  184DOPC  H15C22570   4.621   0.518  10.215
  184DOPC   C1122571   4.696   0.674   9.108
  184DOPC  H11A22572   4.653   0.744   8.883
  184DOPC  H11B22573   4.715   0.734   9.384
  184DOPC     P22574   4.960   0.646   9.090
  184DOPC   O1322575   5.049   0.670   8.742
  184DOPC   O1422576   5.000   0.537   9.366
  184DOPC   O1222577   4.813   0.616   8.943
  184DOPC   O1122578   4.939   0.780   9.327
  184DOPC    C122579   5.036   0.839   9.585
  184DOPC    HA22580   5.046   0.947   9.513
  184DOPC    HB22581   5.138   0.795   9.543
  184DOPC    C222582   4.996   0.826  10.035
  184DOPC    HS22583   5.085   0.854  10.218
  184DOPC   O2122584   4.946   0.695  10.122
  184DOPC   C2122585   5.036   0.611  10.266
  184DOPC   O2222586   5.153   0.637  10.329
  184DOPC   C2222587   4.969   0.480  10.383
  184DOPC   H2R22588   5.018   0.402  10.197
  184DOPC   H2S22589   4.862   0.484  10.305
  184DOPC    C322590   4.884   0.924  10.158
  184DOPC    HX22591   4.795   0.901   9.972
  184DOPC    HY22592   4.915   1.028  10.083
  184DOPC   O3122593   4.851   0.905  10.581
  184DOPC   C3122594   4.912   0.989  10.833
  184DOPC   O3222595   4.978   1.085  10.734
  184DOPC   C3222596   4.889   0.946  11.268
  184DOPC   H2X22597   4.789   0.902  11.295
  184DOPC   H2Y22598   4.965   0.870  11.343
  184DOPC   C2322599   4.987   0.448  10.833
  184DOPC   H3R22600   5.095   0.452  10.911
  184DOPC   H3S22601   4.952   0.344  10.887
  184DOPC   C2422602   4.908   0.542  11.112
  184DOPC   H4R22603   4.799   0.529  11.049
  184DOPC   H4S22604   4.934   0.648  11.046
  184DOPC   C2522605   4.935   0.513  11.559
  184DOPC   H5R22606   4.954   0.404  11.595
  184DOPC   H5S22607   4.844   0.537  11.739
  184DOPC   C2622608   5.053   0.594  11.724
  184DOPC   H6R22609   5.021   0.700  11.763
  184DOPC   H6S22610   5.135   0.593  11.496
  184DOPC   C2722611   5.110   0.539  12.120
  184DOPC   H7R22612   5.206   0.592  12.183
  184DOPC   H7S22613   5.134   0.431  12.078
  184DOPC   C2822614   5.017   0.553  12.486
  184DOPC   H8R22615   5.063   0.502  12.747
  184DOPC   H8S22616   4.922   0.499  12.423
  184DOPC   C2922617   4.995   0.698  12.588
  184DOPC   H9R22618   5.087   0.757  12.639
  184DOPC  C21022619   4.876   0.760  12.612
  184DOPC  H10R22620   4.874   0.867  12.693
  184DOPC  C21122621   4.741   0.698  12.543
  184DOPC  H11R22622   4.745   0.603  12.372
  184DOPC  H11S22623   4.677   0.768  12.366
  184DOPC  C21222624   4.671   0.672  12.948
  184DOPC  H12R22625   4.730   0.602  13.137
  184DOPC  H12S22626   4.572   0.624  12.891
  184DOPC  C21322627   4.649   0.805  13.164
  184DOPC  H13R22628   4.598   0.871  12.945
  184DOPC  H13S22629   4.747   0.851  13.248
  184DOPC  C21422630   4.564   0.800  13.542
  184DOPC  H14R22631   4.472   0.742  13.485
  184DOPC  H14S22632   4.534   0.905  13.620
  184DOPC  C21522633   4.639   0.743  13.902
  184DOPC  H15R22634   4.726   0.806  13.971
  184DOPC  H15S22635   4.677   0.642  13.821
  184DOPC  C21622636   4.549   0.733  14.271
  184DOPC  H16R22637   4.463   0.666  14.199
  184DOPC  H16S22638   4.507   0.833  14.352
  184DOPC  C21722639   4.623   0.679  14.637
  184DOPC  H17R22640   4.686   0.759  14.763
  184DOPC  H17S22641   4.692   0.598  14.547
  184DOPC  C21822642   4.525   0.626  14.949
  184DOPC  H18R22643   4.465   0.542  14.826
  184DOPC  H18S22644   4.455   0.706  15.045
  184DOPC  H18T22645   4.581   0.591  15.216
  184DOPC   C3322646   4.903   1.068  11.553
  184DOPC   H3X22647   4.844   1.153  11.427
  184DOPC   H3Y22648   5.009   1.100  11.568
  184DOPC   C3422649   4.854   1.045  11.982
  184DOPC   H4X22650   4.934   0.993  12.156
  184DOPC   H4Y22651   4.763   0.981  11.985
  184DOPC   C3522652   4.823   1.180  12.177
  184DOPC   H5X22653   4.742   1.232  12.003
  184DOPC   H5Y22654   4.914   1.244  12.159
  184DOPC   C3622655   4.780   1.170  12.615
  184DOPC   H6X22656   4.841   1.093  12.774
  184DOPC   H6Y22657   4.803   1.268  12.756
  184DOPC   C3722658   4.630   1.141  12.666
  184DOPC   H7X22659   4.572   1.221  12.513
  184DOPC   H7Y22660   4.606   1.046  12.510
  184DOPC   C3822661   4.588   1.132  13.107
  184DOPC   H8X22662   4.641   1.048  13.245
  184DOPC   H8Y22663   4.479   1.108  13.122
  184DOPC   C3922664   4.620   1.255  13.347
  184DOPC   H9X22665   4.549   1.338  13.302
  184DOPC  C31022666   4.729   1.274  13.581
  184DOPC  H10X22667   4.739   1.374  13.719
  184DOPC  C31122668   4.845   1.180  13.671
  184DOPC  H11X22669   4.933   1.221  13.509
  184DOPC  H11Y22670   4.828   1.081  13.530
  184DOPC  C31222671   4.897   1.153  14.106
  184DOPC  H12X22672   4.855   1.225  14.325
  184DOPC  H12Y22673   5.007   1.171  14.112
  184DOPC  C31322674   4.870   1.009  14.244
  184DOPC  H13X22675   4.763   0.999  14.334
  184DOPC  H13Y22676   4.887   0.942  13.980
  184DOPC  C31422677   4.960   0.952  14.580
  184DOPC  H14X22678   4.926   0.847  14.628
  184DOPC  H14Y22679   5.066   0.949  14.487
  184DOPC  C31522680   4.947   1.028  14.976
  184DOPC  H15X22681   4.838   1.043  15.027
  184DOPC  H15Y22682   4.993   1.128  14.946
  184DOPC  C31622683   5.008   0.959  15.348
  184DOPC  H16X22684   5.117   0.980  15.363
  184DOPC  H16Y22685   4.961   1.006  15.618
  184DOPC  C31722686   4.989   0.807  15.384
  184DOPC  H17X22687   4.883   0.780  15.330
  184DOPC  H17Y22688   5.050   0.757  15.147
  184DOPC  C31822689   5.035   0.759  15.798
  184DOPC  H18X22690   5.146   0.747  15.795
  184DOPC  H18Y22691   5.009   0.835  16.029
  184DOPC  H18Z22692   4.990   0.662  15.885
  185DOPC     N22693   6.317   6.056   9.456
  185DOPC   C1222694   6.389   5.929   9.603
  185DOPC  H12A22695   6.331   5.881   9.837
  185DOPC  H12B22696   6.484   5.956   9.738
  185DOPC   C1322697   6.194   6.013   9.231
  185DOPC  H13A22698   6.224   5.947   8.985
  185DOPC  H13B22699   6.123   5.962   9.423
  185DOPC  H13C22700   6.145   6.099   9.096
  185DOPC   C1422701   6.412   6.121   9.168
  185DOPC  H14A22702   6.507   6.146   9.306
  185DOPC  H14B22703   6.440   6.048   8.937
  185DOPC  H14C22704   6.373   6.208   9.021
  185DOPC   C1522705   6.278   6.153   9.780
  185DOPC  H15A22706   6.364   6.192   9.942
  185DOPC  H15B22707   6.210   6.112  10.002
  185DOPC  H15C22708   6.227   6.240   9.651
  185DOPC   C1122709   6.422   5.820   9.279
  185DOPC  H11A22710   6.458   5.728   9.435
  185DOPC  H11B22711   6.328   5.791   9.129
  185DOPC     P22712   6.668   5.815   8.970
  185DOPC   O1322713   6.755   5.927   8.844
  185DOPC   O1422714   6.678   5.684   8.763
  185DOPC   O1222715   6.516   5.863   8.979
  185DOPC   O1122716   6.687   5.790   9.426
  185DOPC    C122717   6.815   5.747   9.552
  185DOPC    HA22718   6.897   5.820   9.480
  185DOPC    HB22719   6.844   5.654   9.399
  185DOPC    C222720   6.814   5.718  10.005
  185DOPC    HS22721   6.866   5.625  10.065
  185DOPC   O2122722   6.680   5.702  10.149
  185DOPC   C2122723   6.637   5.576  10.095
  185DOPC   O2222724   6.702   5.477  10.026
  185DOPC   C2222725   6.495   5.567  10.215
  185DOPC   H2R22726   6.458   5.464  10.155
  185DOPC   H2S22727   6.434   5.640  10.047
  185DOPC    C322728   6.890   5.835  10.212
  185DOPC    HX22729   6.992   5.838  10.083
  185DOPC    HY22730   6.906   5.818  10.536
  185DOPC   O3122731   6.829   5.961  10.125
  185DOPC   C3122732   6.742   5.995  10.395
  185DOPC   O3222733   6.719   5.937  10.710
  185DOPC   C3222734   6.673   6.123  10.272
  185DOPC   H2X22735   6.746   6.181  10.086
  185DOPC   H2Y22736   6.585   6.101  10.086
  185DOPC   C2322737   6.506   5.594  10.659
  185DOPC   H3R22738   6.607   5.584  10.797
  185DOPC   H3S22739   6.448   5.518  10.821
  185DOPC   C2422740   6.458   5.734  10.749
  185DOPC   H4R22741   6.363   5.758  10.590
  185DOPC   H4S22742   6.533   5.809  10.650
  185DOPC   C2522743   6.439   5.736  11.193
  185DOPC   H5R22744   6.518   5.679  11.352
  185DOPC   H5S22745   6.341   5.689  11.247
  185DOPC   C2622746   6.428   5.874  11.355
  185DOPC   H6R22747   6.373   5.938  11.139
  185DOPC   H6S22748   6.530   5.915  11.403
  185DOPC   C2722749   6.346   5.865  11.739
  185DOPC   H7R22750   6.248   5.818  11.670
  185DOPC   H7S22751   6.329   5.971  11.820
  185DOPC   C2822752   6.414   5.789  12.078
  185DOPC   H8R22753   6.445   5.687  11.979
  185DOPC   H8S22754   6.345   5.775  12.336
  185DOPC   C2922755   6.530   5.880  12.168
  185DOPC   H9R22756   6.508   5.987  12.123
  185DOPC  C21022757   6.650   5.846  12.300
  185DOPC  H10R22758   6.728   5.923  12.330
  185DOPC  C21122759   6.690   5.705  12.390
  185DOPC  H11R22760   6.801   5.698  12.408
  185DOPC  H11S22761   6.654   5.634  12.156
  185DOPC  C21222762   6.634   5.671  12.804
  185DOPC  H12R22763   6.638   5.561  12.858
  185DOPC  H12S22764   6.528   5.703  12.834
  185DOPC  C21322765   6.721   5.741  13.116
  185DOPC  H13R22766   6.752   5.842  13.005
  185DOPC  H13S22767   6.815   5.684  13.158
  185DOPC  C21422768   6.654   5.765  13.518
  185DOPC  H14R22769   6.617   5.670  13.650
  185DOPC  H14S22770   6.567   5.834  13.479
  185DOPC  C21522771   6.761   5.831  13.776
  185DOPC  H15R22772   6.798   5.916  13.590
  185DOPC  H15S22773   6.846   5.762  13.827
  185DOPC  C21622774   6.713   5.888  14.172
  185DOPC  H16R22775   6.619   5.945  14.121
  185DOPC  H16S22776   6.789   5.956  14.298
  185DOPC  C21722777   6.691   5.781  14.481
  185DOPC  H17R22778   6.725   5.817  14.781
  185DOPC  H17S22779   6.752   5.692  14.406
  185DOPC  C21822780   6.544   5.749  14.496
  185DOPC  H18R22781   6.504   5.725  14.196
  185DOPC  H18S22782   6.493   5.842  14.598
  185DOPC  H18T22783   6.522   5.666  14.706
  185DOPC   C3322784   6.639   6.202  10.656
  185DOPC   H3X22785   6.640   6.307  10.566
  185DOPC   H3Y22786   6.720   6.194  10.884
  185DOPC   C3422787   6.505   6.161  10.854
  185DOPC   H4X22788   6.528   6.069  11.022
  185DOPC   H4Y22789   6.427   6.139  10.626
  185DOPC   C3522790   6.452   6.264  11.157
  185DOPC   H5X22791   6.358   6.313  11.052
  185DOPC   H5Y22792   6.531   6.341  11.160
  185DOPC   C3622793   6.434   6.218  11.592
  185DOPC   H6X22794   6.340   6.161  11.610
  185DOPC   H6Y22795   6.516   6.148  11.664
  185DOPC   C3722796   6.422   6.338  11.883
  185DOPC   H7X22797   6.428   6.432  11.709
  185DOPC   H7Y22798   6.318   6.340  12.000
  185DOPC   C3822799   6.519   6.347  12.243
  185DOPC   H8X22800   6.453   6.365  12.507
  185DOPC   H8Y22801   6.579   6.439  12.237
  185DOPC   C3922802   6.614   6.233  12.300
  185DOPC   H9X22803   6.670   6.196  12.039
  185DOPC  C31022804   6.638   6.182  12.663
  185DOPC  H10X22805   6.700   6.093  12.705
  185DOPC  C31122806   6.571   6.240  13.023
  185DOPC  H11X22807   6.461   6.226  13.008
  185DOPC  H11Y22808   6.589   6.349  13.041
  185DOPC  C31222809   6.626   6.176  13.398
  185DOPC  H12X22810   6.616   6.065  13.389
  185DOPC  H12Y22811   6.561   6.209  13.653
  185DOPC  C31322812   6.771   6.218  13.482
  185DOPC  H13X22813   6.839   6.168  13.263
  185DOPC  H13Y22814   6.785   6.328  13.452
  185DOPC  C31422815   6.801   6.174  13.908
  185DOPC  H14X22816   6.706   6.136  14.025
  185DOPC  H14Y22817   6.864   6.086  13.893
  185DOPC  C31522818   6.859   6.269  14.220
  185DOPC  H15X22819   6.827   6.373  14.157
  185DOPC  H15Y22820   6.970   6.268  14.193
  185DOPC  C31622821   6.823   6.223  14.655
  185DOPC  H16X22822   6.882   6.131  14.706
  185DOPC  H16Y22823   6.858   6.300  14.871
  185DOPC  C31722824   6.679   6.187  14.772
  185DOPC  H17X22825   6.621   6.280  14.814
  185DOPC  H17Y22826   6.624   6.129  14.541
  185DOPC  C31822827   6.676   6.103  15.156
  185DOPC  H18X22828   6.723   6.004  15.102
  185DOPC  H18Y22829   6.734   6.153  15.399
  185DOPC  H18Z22830   6.572   6.086  15.261
  186DOPC     N22831   0.503   2.991   8.850
  186DOPC   C1222832   0.441   3.122   8.724
  186DOPC  H12A22833   0.353   3.098   8.544
  186DOPC  H12B22834   0.512   3.176   8.535
  186DOPC   C1322835   0.396   2.908   9.033
  186DOPC  H13A22836   0.437   2.814   9.138
  186DOPC  H13B22837   0.351   2.961   9.285
  186DOPC  H13C22838   0.317   2.885   8.820
  186DOPC   C1422839   0.613   3.016   9.150
  186DOPC  H14A22840   0.689   3.083   9.024
  186DOPC  H14B22841   0.573   3.061   9.420
  186DOPC  H14C22842   0.666   2.925   9.228
  186DOPC   C1522843   0.557   2.916   8.499
  186DOPC  H15A22844   0.607   2.824   8.595
  186DOPC  H15B22845   0.628   2.976   8.334
  186DOPC  H15C22846   0.478   2.881   8.304
  186DOPC   C1122847   0.393   3.218   9.060
  186DOPC  H11A22848   0.476   3.232   9.282
  186DOPC  H11B22849   0.374   3.317   8.925
  186DOPC     P22850   0.235   3.216   9.696
  186DOPC   O1322851   0.168   3.348   9.645
  186DOPC   O1422852   0.356   3.218   9.942
  186DOPC   O1222853   0.273   3.169   9.246
  186DOPC   O1122854   0.134   3.108   9.852
  186DOPC    C122855   0.017   3.058   9.657
  186DOPC    HA22856   0.043   3.012   9.363
  186DOPC    HB22857  -0.054   3.142   9.597
  186DOPC    C222858  -0.067   2.956   9.918
  186DOPC    HS22859  -0.173   2.961   9.810
  186DOPC   O2122860  -0.051   2.996  10.338
  186DOPC   C2122861  -0.158   3.051  10.515
  186DOPC   O2222862  -0.271   3.044  10.380
  186DOPC   C2222863  -0.123   3.120  10.923
  186DOPC   H2R22864  -0.177   3.065  11.163
  186DOPC   H2S22865  -0.165   3.222  10.917
  186DOPC    C322866  -0.027   2.802   9.843
  186DOPC    HX22867  -0.012   2.794   9.513
  186DOPC    HY22868  -0.117   2.739   9.900
  186DOPC   O3122869   0.092   2.744  10.014
  186DOPC   C3122870   0.082   2.625  10.203
  186DOPC   O3222871  -0.021   2.573  10.317
  186DOPC   C3222872   0.221   2.555  10.239
  186DOPC   H2X22873   0.198   2.458  10.107
  186DOPC   H2Y22874   0.275   2.601   9.993
  186DOPC   C2322875   0.028   3.131  11.031
  186DOPC   H3R22876   0.075   3.215  10.866
  186DOPC   H3S22877   0.077   3.046  10.893
  186DOPC   C2422878   0.075   3.131  11.475
  186DOPC   H4R22879   0.047   3.040  11.640
  186DOPC   H4S22880   0.026   3.209  11.652
  186DOPC   C2522881   0.229   3.136  11.490
  186DOPC   H5R22882   0.266   3.239  11.421
  186DOPC   H5S22883   0.270   3.073  11.247
  186DOPC   C2622884   0.289   3.084  11.886
  186DOPC   H6R22885   0.394   3.054  11.835
  186DOPC   H6S22886   0.234   2.994  11.988
  186DOPC   C2722887   0.284   3.197  12.198
  186DOPC   H7R22888   0.178   3.217  12.270
  186DOPC   H7S22889   0.328   3.285  12.042
  186DOPC   C2822890   0.367   3.178  12.582
  186DOPC   H8R22891   0.475   3.176  12.501
  186DOPC   H8S22892   0.343   3.078  12.711
  186DOPC   C2922893   0.336   3.292  12.867
  186DOPC   H9R22894   0.378   3.389  12.780
  186DOPC  C21022895   0.259   3.284  13.200
  186DOPC  H10R22896   0.239   3.374  13.380
  186DOPC  C21122897   0.193   3.156  13.335
  186DOPC  H11R22898   0.272   3.078  13.305
  186DOPC  H11S22899   0.110   3.130  13.125
  186DOPC  C21222900   0.142   3.134  13.767
  186DOPC  H12R22901   0.227   3.152  13.980
  186DOPC  H12S22902   0.116   3.026  13.797
  186DOPC  C21322903   0.019   3.215  13.899
  186DOPC  H13R22904  -0.004   3.288  13.653
  186DOPC  H13S22905   0.047   3.275  14.166
  186DOPC  C21422906  -0.112   3.138  13.992
  186DOPC  H14R22907  -0.151   3.093  13.710
  186DOPC  H14S22908  -0.186   3.215  14.088
  186DOPC  C21522909  -0.115   3.027  14.319
  186DOPC  H15R22910  -0.113   2.929  14.163
  186DOPC  H15S22911  -0.214   3.031  14.469
  186DOPC  C21622912  -0.009   3.031  14.649
  186DOPC  H16R22913   0.090   3.053  14.517
  186DOPC  H16S22914  -0.003   2.932  14.799
  186DOPC  C21722915  -0.039   3.136  14.970
  186DOPC  H17R22916  -0.143   3.120  15.081
  186DOPC  H17S22917  -0.035   3.236  14.823
  186DOPC  C21822918   0.057   3.134  15.330
  186DOPC  H18R22919   0.026   3.208  15.558
  186DOPC  H18S22920   0.160   3.158  15.234
  186DOPC  H18T22921   0.057   3.034  15.471
  186DOPC   C3322922   0.307   2.541  10.653
  186DOPC   H3X22923   0.226   2.536  10.875
  186DOPC   H3Y22924   0.322   2.641  10.515
  186DOPC   C3422925   0.432   2.615  10.872
  186DOPC   H4X22926   0.411   2.722  10.941
  186DOPC   H4Y22927   0.517   2.619  10.659
  186DOPC   C3522928   0.485   2.585  11.298
  186DOPC   H5X22929   0.579   2.646  11.322
  186DOPC   H5Y22930   0.516   2.481  11.352
  186DOPC   C3622931   0.403   2.644  11.643
  186DOPC   H6X22932   0.457   2.627  11.934
  186DOPC   H6Y22933   0.393   2.754  11.607
  186DOPC   C3722934   0.264   2.583  11.676
  186DOPC   H7X22935   0.203   2.612  11.412
  186DOPC   H7Y22936   0.273   2.472  11.682
  186DOPC   C3822937   0.194   2.635  12.048
  186DOPC   H8X22938   0.177   2.744  12.027
  186DOPC   H8Y22939   0.264   2.621  12.300
  186DOPC   C3922940   0.065   2.563  12.117
  186DOPC   H9X22941  -0.023   2.601  11.958
  186DOPC  C31022942   0.046   2.467  12.384
  186DOPC  H10X22943  -0.053   2.423  12.396
  186DOPC  C31122944   0.149   2.411  12.666
  186DOPC  H11X22945   0.247   2.452  12.597
  186DOPC  H11Y22946   0.165   2.303  12.597
  186DOPC  C31222947   0.112   2.423  13.116
  186DOPC  H12X22948   0.198   2.391  13.302
  186DOPC  H12Y22949   0.031   2.349  13.140
  186DOPC  C31322950   0.057   2.557  13.290
  186DOPC  H13X22951   0.128   2.624  13.134
  186DOPC  H13Y22952  -0.047   2.576  13.191
  186DOPC  C31422953   0.078   2.599  13.740
  186DOPC  H14X22954   0.009   2.554  13.959
  186DOPC  H14Y22955   0.168   2.540  13.761
  186DOPC  C31522956   0.110   2.751  13.857
  186DOPC  H15X22957   0.026   2.800  14.007
  186DOPC  H15Y22958   0.122   2.799  13.563
  186DOPC  C31622959   0.247   2.802  14.037
  186DOPC  H16X22960   0.312   2.715  14.061
  186DOPC  H16Y22961   0.293   2.875  13.824
  186DOPC  C31722962   0.274   2.855  14.460
  186DOPC  H17X22963   0.262   2.965  14.475
  186DOPC  H17Y22964   0.207   2.806  14.679
  186DOPC  C31822965   0.423   2.821  14.544
  186DOPC  H18X22966   0.432   2.714  14.619
  186DOPC  H18Y22967   0.484   2.839  14.268
  186DOPC  H18Z22968   0.469   2.880  14.787
  187DOPC     N22969   5.805   1.214   9.009
  187DOPC   C1222970   5.949   1.214   9.159
  187DOPC  H12A22971   5.995   1.312   9.156
  187DOPC  H12B22972   6.010   1.158   8.946
  187DOPC   C1322973   5.750   1.351   8.991
  187DOPC  H13A22974   5.822   1.413   8.832
  187DOPC  H13B22975   5.654   1.355   8.841
  187DOPC  H13C22976   5.740   1.393   9.291
  187DOPC   C1422977   5.719   1.120   9.252
  187DOPC  H14A22978   5.767   1.021   9.246
  187DOPC  H14B22979   5.714   1.144   9.567
  187DOPC  H14C22980   5.620   1.105   9.132
  187DOPC   C1522981   5.810   1.148   8.607
  187DOPC  H15A22982   5.862   1.206   8.385
  187DOPC  H15B22983   5.712   1.117   8.499
  187DOPC  H15C22984   5.863   1.053   8.652
  187DOPC   C1122985   5.976   1.139   9.543
  187DOPC  H11A22986   6.075   1.171   9.672
  187DOPC  H11B22987   5.901   1.155   9.783
  187DOPC     P22988   6.107   0.922   9.408
  187DOPC   O1322989   6.213   1.006   9.225
  187DOPC   O1422990   6.074   0.791   9.228
  187DOPC   O1222991   5.975   1.005   9.405
  187DOPC   O1122992   6.113   0.920   9.882
  187DOPC    C122993   6.006   0.847  10.074
  187DOPC    HA22994   6.009   0.740   9.975
  187DOPC    HB22995   5.906   0.888   9.996
  187DOPC    C222996   6.025   0.846  10.536
  187DOPC    HS22997   5.945   0.782  10.671
  187DOPC   O2122998   6.024   0.978  10.716
  187DOPC   C2122999   5.903   1.028  10.731
  187DOPC   O2223000   5.802   0.976  10.605
  187DOPC   C2223001   5.904   1.160  10.968
  187DOPC   H2R23002   5.908   1.242  10.743
  187DOPC   H2S23003   5.994   1.165  11.160
  187DOPC    C323004   6.159   0.777  10.626
  187DOPC    HX23005   6.230   0.814  10.395
  187DOPC    HY23006   6.146   0.668  10.572
  187DOPC   O3123007   6.202   0.803  11.034
  187DOPC   C3123008   6.319   0.865  11.061
  187DOPC   O3223009   6.397   0.884  10.788
  187DOPC   C3223010   6.342   0.912  11.484
  187DOPC   H2X23011   6.368   1.020  11.469
  187DOPC   H2Y23012   6.249   0.901  11.664
  187DOPC   C2323013   5.775   1.177  11.223
  187DOPC   H3R23014   5.686   1.152  11.034
  187DOPC   H3S23015   5.763   1.283  11.313
  187DOPC   C2423016   5.771   1.089  11.601
  187DOPC   H4R23017   5.805   0.986  11.526
  187DOPC   H4S23018   5.664   1.081  11.697
  187DOPC   C2523019   5.851   1.143  11.958
  187DOPC   H5R23020   5.822   1.250  12.000
  187DOPC   H5S23021   5.959   1.141  11.886
  187DOPC   C2623022   5.823   1.071  12.360
  187DOPC   H6R23023   5.713   1.075  12.417
  187DOPC   H6S23024   5.868   1.128  12.606
  187DOPC   C2723025   5.867   0.923  12.390
  187DOPC   H7R23026   5.905   0.891  12.093
  187DOPC   H7S23027   5.776   0.863  12.456
  187DOPC   C2823028   5.974   0.884  12.711
  187DOPC   H8R23029   6.069   0.931  12.609
  187DOPC   H8S23030   5.990   0.774  12.678
  187DOPC   C2923031   5.955   0.920  13.149
  187DOPC   H9R23032   5.941   1.027  13.197
  187DOPC  C21023033   5.951   0.843  13.482
  187DOPC  H10R23034   5.935   0.896  13.770
  187DOPC  C21123035   5.964   0.694  13.545
  187DOPC  H11R23036   5.965   0.638  13.257
  187DOPC  H11S23037   5.873   0.660  13.710
  187DOPC  C21223038   6.078   0.644  13.815
  187DOPC  H12R23039   6.172   0.633  13.644
  187DOPC  H12S23040   6.052   0.542  13.923
  187DOPC  C21323041   6.108   0.731  14.181
  187DOPC  H13R23042   6.015   0.751  14.355
  187DOPC  H13S23043   6.145   0.830  14.079
  187DOPC  C21423044   6.214   0.659  14.433
  187DOPC  H14R23045   6.291   0.622  14.214
  187DOPC  H14S23046   6.170   0.571  14.586
  187DOPC  C21523047   6.289   0.747  14.730
  187DOPC  H15R23048   6.346   0.686  14.949
  187DOPC  H15S23049   6.218   0.807  14.904
  187DOPC  C21623050   6.384   0.838  14.502
  187DOPC  H16R23051   6.326   0.893  14.271
  187DOPC  H16S23052   6.459   0.773  14.355
  187DOPC  C21723053   6.455   0.940  14.760
  187DOPC  H17R23054   6.556   0.903  14.844
  187DOPC  H17S23055   6.394   0.940  15.036
  187DOPC  C21823056   6.460   1.084  14.598
  187DOPC  H18R23057   6.445   1.156  14.844
  187DOPC  H18S23058   6.382   1.101  14.367
  187DOPC  H18T23059   6.559   1.105  14.460
  187DOPC   C3323060   6.457   0.830  11.661
  187DOPC   H3X23061   6.552   0.842  11.505
  187DOPC   H3Y23062   6.434   0.723  11.616
  187DOPC   C3423063   6.480   0.853  12.102
  187DOPC   H4X23064   6.558   0.785  12.225
  187DOPC   H4Y23065   6.384   0.828  12.249
  187DOPC   C3523066   6.512   0.993  12.231
  187DOPC   H5X23067   6.491   1.069  11.997
  187DOPC   H5Y23068   6.619   0.999  12.318
  187DOPC   C3623069   6.434   1.019  12.609
  187DOPC   H6X23070   6.332   0.976  12.600
  187DOPC   H6Y23071   6.489   0.968  12.852
  187DOPC   C3723072   6.419   1.166  12.681
  187DOPC   H7X23073   6.412   1.178  13.008
  187DOPC   H7Y23074   6.513   1.216  12.588
  187DOPC   C3823075   6.299   1.215  12.429
  187DOPC   H8X23076   6.310   1.166  12.132
  187DOPC   H8Y23077   6.312   1.322  12.357
  187DOPC   C3923078   6.157   1.194  12.570
  187DOPC   H9X23079   6.092   1.157  12.330
  187DOPC  C31023080   6.101   1.211  12.936
  187DOPC  H10X23081   5.992   1.205  12.966
  187DOPC  C31123082   6.165   1.257  13.317
  187DOPC  H11X23083   6.127   1.358  13.395
  187DOPC  H11Y23084   6.270   1.269  13.239
  187DOPC  C31223085   6.174   1.173  13.704
  187DOPC  H12X23086   6.263   1.210  13.875
  187DOPC  H12Y23087   6.194   1.065  13.647
  187DOPC  C31323088   6.056   1.194  13.983
  187DOPC  H13X23089   6.005   1.290  13.908
  187DOPC  H13Y23090   5.982   1.112  13.938
  187DOPC  C31423091   6.099   1.197  14.424
  187DOPC  H14X23092   6.009   1.163  14.583
  187DOPC  H14Y23093   6.175   1.119  14.481
  187DOPC  C31523094   6.148   1.330  14.601
  187DOPC  H15X23095   6.075   1.412  14.538
  187DOPC  H15Y23096   6.243   1.358  14.457
  187DOPC  C31623097   6.173   1.315  15.057
  187DOPC  H16X23098   6.109   1.233  15.159
  187DOPC  H16Y23099   6.277   1.282  15.114
  187DOPC  C31723100   6.134   1.429  15.336
  187DOPC  H17X23101   6.131   1.388  15.648
  187DOPC  H17Y23102   6.213   1.506  15.333
  187DOPC  C31823103   5.997   1.489  15.243
  187DOPC  H18X23104   5.950   1.530  15.519
  187DOPC  H18Y23105   6.005   1.570  15.015
  187DOPC  H18Z23106   5.931   1.412  15.117
  188DOPC     N23107   1.422   0.765   8.712
  188DOPC   C1223108   1.407   0.688   9.102
  188DOPC  H12A23109   1.460   0.595   9.096
  188DOPC  H12B23110   1.301   0.669   9.144
  188DOPC   C1323111   1.550   0.844   8.730
  188DOPC  H13A23112   1.637   0.783   8.700
  188DOPC  H13B23113   1.553   0.921   8.505
  188DOPC  H13C23114   1.557   0.897   9.021
  188DOPC   C1423115   1.310   0.866   8.694
  188DOPC  H14A23116   1.213   0.820   8.670
  188DOPC  H14B23117   1.311   0.925   8.973
  188DOPC  H14C23118   1.323   0.934   8.445
  188DOPC   C1523119   1.415   0.683   8.340
  188DOPC  H15A23120   1.506   0.626   8.298
  188DOPC  H15B23121   1.407   0.748   8.076
  188DOPC  H15C23122   1.329   0.617   8.331
  188DOPC   C1123123   1.451   0.763   9.486
  188DOPC  H11A23124   1.415   0.706   9.750
  188DOPC  H11B23125   1.563   0.767   9.507
  188DOPC     P23126   1.452   1.010   9.738
  188DOPC   O1323127   1.377   1.130   9.609
  188DOPC   O1423128   1.598   1.010   9.672
  188DOPC   O1223129   1.394   0.892   9.486
  188DOPC   O1123130   1.413   0.961  10.179
  188DOPC    C123131   1.274   0.935  10.272
  188DOPC    HA23132   1.242   0.839  10.140
  188DOPC    HB23133   1.208   1.014  10.143
  188DOPC    C223134   1.240   0.932  10.737
  188DOPC    HS23135   1.129   0.941  10.755
  188DOPC   O2123136   1.299   1.034  10.986
  188DOPC   C2123137   1.350   1.145  10.851
  188DOPC   O2223138   1.345   1.192  10.518
  188DOPC   C2223139   1.415   1.220  11.193
  188DOPC   H2R23140   1.415   1.327  11.109
  188DOPC   H2S23141   1.521   1.186  11.196
  188DOPC    C323142   1.275   0.799  10.959
  188DOPC    HX23143   1.230   0.710  10.812
  188DOPC    HY23144   1.228   0.805  11.262
  188DOPC   O3123145   1.418   0.788  11.025
  188DOPC   C3123146   1.478   0.750  10.689
  188DOPC   O3223147   1.421   0.683  10.431
  188DOPC   C3223148   1.619   0.807  10.680
  188DOPC   H2X23149   1.666   0.756  10.422
  188DOPC   H2Y23150   1.613   0.915  10.602
  188DOPC   C2323151   1.349   1.197  11.607
  188DOPC   H3R23152   1.256   1.138  11.598
  188DOPC   H3S23153   1.327   1.297  11.739
  188DOPC   C2423154   1.455   1.135  11.874
  188DOPC   H4R23155   1.523   1.217  11.871
  188DOPC   H4S23156   1.506   1.050  11.727
  188DOPC   C2523157   1.434   1.118  12.321
  188DOPC   H5R23158   1.382   1.208  12.438
  188DOPC   H5S23159   1.532   1.109  12.474
  188DOPC   C2623160   1.361   0.991  12.411
  188DOPC   H6R23161   1.261   1.017  12.291
  188DOPC   H6S23162   1.355   0.974  12.738
  188DOPC   C2723163   1.424   0.871  12.195
  188DOPC   H7R23164   1.533   0.889  12.240
  188DOPC   H7S23165   1.406   0.873  11.865
  188DOPC   C2823166   1.386   0.732  12.354
  188DOPC   H8R23167   1.338   0.670  12.114
  188DOPC   H8S23168   1.312   0.742  12.600
  188DOPC   C2923169   1.509   0.667  12.519
  188DOPC   H9R23170   1.568   0.602  12.318
  188DOPC  C21023171   1.555   0.696  12.885
  188DOPC  H10R23172   1.653   0.652  12.966
  188DOPC  C21123173   1.498   0.793  13.194
  188DOPC  H11R23174   1.501   0.895  13.068
  188DOPC  H11S23175   1.570   0.795  13.449
  188DOPC  C21223176   1.362   0.769  13.410
  188DOPC  H12R23177   1.314   0.677  13.299
  188DOPC  H12S23178   1.301   0.856  13.314
  188DOPC  C21323179   1.363   0.765  13.881
  188DOPC  H13R23180   1.286   0.837  13.986
  188DOPC  H13S23181   1.460   0.805  13.986
  188DOPC  C21423182   1.336   0.629  14.103
  188DOPC  H14R23183   1.431   0.576  14.142
  188DOPC  H14S23184   1.268   0.564  13.929
  188DOPC  C21523185   1.280   0.643  14.535
  188DOPC  H15R23186   1.181   0.686  14.514
  188DOPC  H15S23187   1.331   0.729  14.676
  188DOPC  C21623188   1.255   0.518  14.817
  188DOPC  H16R23189   1.192   0.449  14.643
  188DOPC  H16S23190   1.191   0.561  15.054
  188DOPC  C21723191   1.359   0.429  15.048
  188DOPC  H17R23192   1.434   0.485  15.204
  188DOPC  H17S23193   1.418   0.359  14.865
  188DOPC  C21823194   1.314   0.355  15.423
  188DOPC  H18R23195   1.385   0.277  15.492
  188DOPC  H18S23196   1.213   0.310  15.411
  188DOPC  H18T23197   1.333   0.418  15.687
  188DOPC   C3323198   1.702   0.787  11.073
  188DOPC   H3X23199   1.807   0.764  10.989
  188DOPC   H3Y23200   1.666   0.700  11.244
  188DOPC   C3423201   1.708   0.907  11.364
  188DOPC   H4X23202   1.621   0.900  11.568
  188DOPC   H4Y23203   1.696   1.001  11.184
  188DOPC   C3523204   1.837   0.920  11.610
  188DOPC   H5X23205   1.863   1.029  11.616
  188DOPC   H5Y23206   1.924   0.870  11.466
  188DOPC   C3623207   1.828   0.877  12.054
  188DOPC   H6X23208   1.726   0.895  12.171
  188DOPC   H6Y23209   1.850   0.768  12.081
  188DOPC   C3723210   1.923   0.962  12.306
  188DOPC   H7X23211   2.014   0.972  12.120
  188DOPC   H7Y23212   1.880   1.064  12.342
  188DOPC   C3823213   1.961   0.914  12.729
  188DOPC   H8X23214   2.027   0.993  12.861
  188DOPC   H8Y23215   2.023   0.822  12.708
  188DOPC   C3923216   1.843   0.891  12.996
  188DOPC   H9X23217   1.808   0.787  12.993
  188DOPC  C31023218   1.773   0.980  13.215
  188DOPC  H10X23219   1.689   0.943  13.383
  188DOPC  C31123220   1.790   1.129  13.266
  188DOPC  H11X23221   1.698   1.178  13.146
  188DOPC  H11Y23222   1.876   1.162  13.080
  188DOPC  C31223223   1.803   1.193  13.686
  188DOPC  H12X23224   1.847   1.295  13.656
  188DOPC  H12Y23225   1.870   1.130  13.875
  188DOPC  C31323226   1.674   1.216  13.917
  188DOPC  H13X23227   1.699   1.256  14.220
  188DOPC  H13Y23228   1.614   1.294  13.761
  188DOPC  C31423229   1.602   1.083  13.956
  188DOPC  H14X23230   1.537   1.067  13.692
  188DOPC  H14Y23231   1.679   1.003  13.953
  188DOPC  C31523232   1.533   1.062  14.355
  188DOPC  H15X23233   1.447   0.993  14.316
  188DOPC  H15Y23234   1.494   1.159  14.469
  188DOPC  C31623235   1.632   1.002  14.658
  188DOPC  H16X23236   1.655   0.898  14.559
  188DOPC  H16Y23237   1.726   1.060  14.631
  188DOPC  C31723238   1.569   1.010  15.078
  188DOPC  H17X23239   1.558   1.119  15.135
  188DOPC  H17Y23240   1.467   0.967  15.045
  188DOPC  C31823241   1.628   0.951  15.468
  188DOPC  H18X23242   1.586   1.002  15.738
  188DOPC  H18Y23243   1.607   0.846  15.531
  188DOPC  H18Z23244   1.737   0.956  15.468
  189DOPC     N23245   3.692   0.257   9.078
  189DOPC   C1223246   3.637   0.135   9.300
  189DOPC  H12A23247   3.718   0.064   9.339
  189DOPC  H12B23248   3.565   0.085   9.102
  189DOPC   C1323249   3.819   0.220   8.868
  189DOPC  H13A23250   3.813   0.126   8.706
  189DOPC  H13B23251   3.849   0.297   8.655
  189DOPC  H13C23252   3.900   0.210   9.081
  189DOPC   C1423253   3.719   0.374   9.345
  189DOPC  H14A23254   3.630   0.397   9.519
  189DOPC  H14B23255   3.804   0.356   9.534
  189DOPC  H14C23256   3.742   0.461   9.159
  189DOPC   C1523257   3.591   0.298   8.775
  189DOPC  H15A23258   3.579   0.217   8.562
  189DOPC  H15B23259   3.617   0.390   8.625
  189DOPC  H15C23260   3.494   0.310   8.919
  189DOPC   C1123261   3.562   0.159   9.699
  189DOPC  H11A23262   3.541   0.061   9.846
  189DOPC  H11B23263   3.628   0.215   9.909
  189DOPC     P23264   3.313   0.159   9.459
  189DOPC   O1323265   3.358   0.036   9.258
  189DOPC   O1423266   3.231   0.256   9.228
  189DOPC   O1223267   3.442   0.233   9.639
  189DOPC   O1123268   3.233   0.125   9.855
  189DOPC    C123269   3.170   0.237  10.047
  189DOPC    HA23270   3.067   0.250   9.930
  189DOPC    HB23271   3.223   0.334   9.987
  189DOPC    C223272   3.166   0.219  10.509
  189DOPC    HS23273   3.130   0.315  10.644
  189DOPC   O2123274   3.296   0.182  10.668
  189DOPC   C2123275   3.379   0.285  10.662
  189DOPC   O2223276   3.349   0.397  10.560
  189DOPC   C2223277   3.519   0.251  10.809
  189DOPC   H2R23278   3.576   0.213  10.548
  189DOPC   H2S23279   3.514   0.173  11.043
  189DOPC    C323280   3.061   0.113  10.632
  189DOPC    HX23281   3.080   0.019  10.467
  189DOPC    HY23282   2.959   0.148  10.548
  189DOPC   O3123283   3.078   0.090  11.055
  189DOPC   C3123284   2.987   0.134  11.304
  189DOPC   O3223285   2.878   0.181  11.214
  189DOPC   C3223286   3.035   0.107  11.730
  189DOPC   H2X23287   3.144   0.088  11.730
  189DOPC   H2Y23288   3.015   0.198  11.913
  189DOPC   C2323289   3.586   0.379  10.971
  189DOPC   H3R23290   3.567   0.465  10.767
  189DOPC   H3S23291   3.697   0.367  10.983
  189DOPC   C2423292   3.536   0.414  11.391
  189DOPC   H4R23293   3.425   0.401  11.418
  189DOPC   H4S23294   3.556   0.521  11.448
  189DOPC   C2523295   3.609   0.340  11.727
  189DOPC   H5R23296   3.712   0.317  11.628
  189DOPC   H5S23297   3.558   0.244  11.796
  189DOPC   C2623298   3.619   0.429  12.099
  189DOPC   H6R23299   3.682   0.518  12.024
  189DOPC   H6S23300   3.672   0.376  12.342
  189DOPC   C2723301   3.482   0.480  12.243
  189DOPC   H7R23302   3.426   0.526  11.991
  189DOPC   H7S23303   3.499   0.561  12.468
  189DOPC   C2823304   3.389   0.374  12.423
  189DOPC   H8R23305   3.356   0.303  12.186
  189DOPC   H8S23306   3.298   0.426  12.534
  189DOPC   C2923307   3.462   0.302  12.756
  189DOPC   H9R23308   3.520   0.214  12.660
  189DOPC  C21023309   3.462   0.338  13.146
  189DOPC  H10R23310   3.519   0.277  13.359
  189DOPC  C21123311   3.390   0.456  13.323
  189DOPC  H11R23312   3.388   0.543  13.110
  189DOPC  H11S23313   3.441   0.491  13.599
  189DOPC  C21223314   3.244   0.419  13.422
  189DOPC  H12R23315   3.190   0.393  13.143
  189DOPC  H12S23316   3.193   0.509  13.554
  189DOPC  C21323317   3.231   0.302  13.719
  189DOPC  H13R23318   3.280   0.330  14.007
  189DOPC  H13S23319   3.284   0.214  13.599
  189DOPC  C21423320   3.086   0.263  13.800
  189DOPC  H14R23321   3.037   0.235  13.509
  189DOPC  H14S23322   3.031   0.352  13.920
  189DOPC  C21523323   3.072   0.146  14.094
  189DOPC  H15R23324   2.963   0.136  14.160
  189DOPC  H15S23325   3.125   0.169  14.379
  189DOPC  C21623326   3.119   0.012  13.920
  189DOPC  H16R23327   3.224   0.018  13.812
  189DOPC  H16S23328   3.054  -0.006  13.656
  189DOPC  C21723329   3.104  -0.109  14.199
  189DOPC  H17R23330   3.036  -0.080  14.448
  189DOPC  H17S23331   3.201  -0.134  14.343
  189DOPC  C21823332   3.045  -0.235  14.004
  189DOPC  H18R23333   3.125  -0.298  13.875
  189DOPC  H18S23334   2.971  -0.210  13.764
  189DOPC  H18T23335   2.993  -0.296  14.232
  189DOPC   C3323336   2.955  -0.013  11.892
  189DOPC   H3X23337   2.989  -0.107  11.742
  189DOPC   H3Y23338   2.849   0.003  11.811
  189DOPC   C3423339   2.958  -0.031  12.348
  189DOPC   H4X23340   2.870  -0.092  12.435
  189DOPC   H4Y23341   2.951   0.067  12.501
  189DOPC   C3523342   3.083  -0.105  12.483
  189DOPC   H5X23343   3.172  -0.046  12.390
  189DOPC   H5Y23344   3.089  -0.205  12.333
  189DOPC   C3623345   3.086  -0.124  12.936
  189DOPC   H6X23346   3.095  -0.023  13.074
  189DOPC   H6Y23347   2.990  -0.169  13.035
  189DOPC   C3723348   3.202  -0.213  13.071
  189DOPC   H7X23349   3.205  -0.219  13.401
  189DOPC   H7Y23350   3.183  -0.315  12.951
  189DOPC   C3823351   3.342  -0.168  12.939
  189DOPC   H8X23352   3.338  -0.144  12.621
  189DOPC   H8Y23353   3.407  -0.258  12.972
  189DOPC   C3923354   3.405  -0.045  13.107
  189DOPC   H9X23355   3.344   0.047  13.089
  189DOPC  C31023356   3.524  -0.044  13.293
  189DOPC  H10X23357   3.558   0.050  13.434
  189DOPC  C31123358   3.612  -0.166  13.362
  189DOPC  H11X23359   3.713  -0.132  13.458
  189DOPC  H11Y23360   3.624  -0.229  13.092
  189DOPC  C31223361   3.552  -0.253  13.704
  189DOPC  H12X23362   3.626  -0.325  13.824
  189DOPC  H12Y23363   3.464  -0.311  13.605
  189DOPC  C31323364   3.509  -0.158  14.037
  189DOPC  H13X23365   3.590  -0.081  14.067
  189DOPC  H13Y23366   3.415  -0.108  13.935
  189DOPC  C31423367   3.480  -0.208  14.451
  189DOPC  H14X23368   3.391  -0.275  14.460
  189DOPC  H14Y23369   3.566  -0.260  14.595
  189DOPC  C31523370   3.454  -0.075  14.652
  189DOPC  H15X23371   3.386  -0.011  14.466
  189DOPC  H15Y23372   3.550  -0.020  14.673
  189DOPC  C31623373   3.391  -0.084  15.060
  189DOPC  H16X23374   3.284  -0.111  15.024
  189DOPC  H16Y23375   3.441  -0.163  15.240
  189DOPC  C31723376   3.406   0.053  15.255
  189DOPC  H17X23377   3.401   0.038  15.582
  189DOPC  H17Y23378   3.506   0.096  15.195
  189DOPC  C31823379   3.296   0.149  15.120
  189DOPC  H18X23380   3.198   0.096  15.111
  189DOPC  H18Y23381   3.287   0.234  15.333
  189DOPC  H18Z23382   3.317   0.188  14.817
  190DOPC     N23383   2.175   7.140   9.765
  190DOPC   C1223384   2.301   7.189   9.555
  190DOPC  H12A23385   2.387   7.145   9.702
  190DOPC  H12B23386   2.307   7.297   9.591
  190DOPC   C1323387   2.147   6.997   9.651
  190DOPC  H13A23388   2.049   6.963   9.750
  190DOPC  H13B23389   2.145   6.986   9.327
  190DOPC  H13C23390   2.221   6.928   9.762
  190DOPC   C1423391   2.062   7.224   9.618
  190DOPC  H14A23392   2.070   7.329   9.693
  190DOPC  H14B23393   2.059   7.218   9.291
  190DOPC  H14C23394   1.963   7.187   9.705
  190DOPC   C1523395   2.185   7.152  10.209
  190DOPC  H15A23396   2.266   7.091  10.323
  190DOPC  H15B23397   2.095   7.112  10.344
  190DOPC  H15C23398   2.197   7.255  10.305
  190DOPC   C1123399   2.313   7.162   9.096
  190DOPC  H11A23400   2.418   7.184   9.006
  190DOPC  H11B23401   2.301   7.053   9.036
  190DOPC     P23402   2.256   7.388   8.754
  190DOPC   O1323403   2.164   7.449   8.460
  190DOPC   O1423404   2.401   7.393   8.667
  190DOPC   O1223405   2.219   7.237   8.856
  190DOPC   O1123406   2.230   7.454   9.168
  190DOPC    C123407   2.196   7.592   9.177
  190DOPC    HA23408   2.104   7.615   9.000
  190DOPC    HB23409   2.283   7.653   9.072
  190DOPC    C223410   2.172   7.636   9.609
  190DOPC    HS23411   2.193   7.745   9.645
  190DOPC   O2123412   2.253   7.556   9.867
  190DOPC   C2123413   2.372   7.600   9.924
  190DOPC   O2223414   2.439   7.673   9.711
  190DOPC   C2223415   2.406   7.547  10.335
  190DOPC   H2R23416   2.369   7.443  10.368
  190DOPC   H2S23417   2.353   7.611  10.557
  190DOPC    C323418   2.026   7.614   9.738
  190DOPC    HX23419   1.992   7.517   9.609
  190DOPC    HY23420   1.961   7.693   9.612
  190DOPC   O3123421   2.009   7.605  10.158
  190DOPC   C3123422   2.079   7.675  10.419
  190DOPC   O3223423   2.166   7.759  10.368
  190DOPC   C3223424   2.042   7.610  10.812
  190DOPC   H2X23425   1.931   7.616  10.821
  190DOPC   H2Y23426   2.072   7.503  10.794
  190DOPC   C2323427   2.554   7.552  10.428
  190DOPC   H3R23428   2.599   7.651  10.374
  190DOPC   H3S23429   2.607   7.480  10.233
  190DOPC   C2423430   2.568   7.509  10.863
  190DOPC   H4R23431   2.668   7.467  10.902
  190DOPC   H4S23432   2.492   7.432  10.938
  190DOPC   C2523433   2.561   7.618  11.178
  190DOPC   H5R23434   2.457   7.654  11.217
  190DOPC   H5S23435   2.627   7.703  11.091
  190DOPC   C2623436   2.617   7.556  11.559
  190DOPC   H6R23437   2.726   7.539  11.514
  190DOPC   H6S23438   2.570   7.457  11.604
  190DOPC   C2723439   2.597   7.642  11.925
  190DOPC   H7R23440   2.652   7.735  11.850
  190DOPC   H7S23441   2.647   7.598  12.192
  190DOPC   C2823442   2.452   7.685  12.027
  190DOPC   H8R23443   2.427   7.767  11.820
  190DOPC   H8S23444   2.460   7.731  12.330
  190DOPC   C2923445   2.332   7.597  12.021
  190DOPC   H9R23446   2.299   7.566  11.721
  190DOPC  C21023447   2.277   7.539  12.348
  190DOPC  H10R23448   2.188   7.476  12.318
  190DOPC  C21123449   2.335   7.555  12.759
  190DOPC  H11R23450   2.445   7.566  12.711
  190DOPC  H11S23451   2.323   7.458  12.915
  190DOPC  C21223452   2.309   7.659  13.095
  190DOPC  H12R23453   2.297   7.763  12.996
  190DOPC  H12S23454   2.403   7.644  13.266
  190DOPC  C21323455   2.191   7.625  13.359
  190DOPC  H13R23456   2.207   7.517  13.404
  190DOPC  H13S23457   2.099   7.650  13.185
  190DOPC  C21423458   2.177   7.666  13.797
  190DOPC  H14R23459   2.213   7.764  13.893
  190DOPC  H14S23460   2.226   7.587  13.983
  190DOPC  C21523461   2.029   7.665  13.887
  190DOPC  H15R23462   1.975   7.599  13.671
  190DOPC  H15S23463   1.986   7.767  13.851
  190DOPC  C21623464   2.001   7.618  14.307
  190DOPC  H16R23465   2.047   7.687  14.514
  190DOPC  H16S23466   2.052   7.526  14.406
  190DOPC  C21723467   1.851   7.607  14.337
  190DOPC  H17R23468   1.809   7.602  14.025
  190DOPC  H17S23469   1.809   7.699  14.463
  190DOPC  C21823470   1.806   7.479  14.532
  190DOPC  H18R23471   1.876   7.441  14.760
  190DOPC  H18S23472   1.789   7.416  14.268
  190DOPC  H18T23473   1.706   7.473  14.664
  190DOPC   C3323474   2.105   7.671  11.190
  190DOPC   H3X23475   2.083   7.780  11.205
  190DOPC   H3Y23476   2.216   7.664  11.178
  190DOPC   C3423477   2.052   7.598  11.562
  190DOPC   H4X23478   2.062   7.666  11.826
  190DOPC   H4Y23479   2.114   7.508  11.616
  190DOPC   C3523480   1.907   7.545  11.529
  190DOPC   H5X23481   1.906   7.454  11.340
  190DOPC   H5Y23482   1.846   7.624  11.379
  190DOPC   C3623483   1.842   7.517  11.940
  190DOPC   H6X23484   1.919   7.546  12.162
  190DOPC   H6Y23485   1.758   7.590  11.967
  190DOPC   C3723486   1.800   7.372  12.054
  190DOPC   H7X23487   1.729   7.335  11.820
  190DOPC   H7Y23488   1.894   7.312  12.027
  190DOPC   C3823489   1.763   7.353  12.543
  190DOPC   H8X23490   1.688   7.419  12.417
  190DOPC   H8Y23491   1.832   7.432  12.618
  190DOPC   C3923492   1.699   7.336  12.966
  190DOPC   H9X23493   1.635   7.423  13.008
  190DOPC  C31023494   1.694   7.218  13.182
  190DOPC  H10X23495   1.635   7.209  13.467
  190DOPC  C31123496   1.755   7.074  13.053
  190DOPC  H11X23497   1.788   7.024  12.750
  190DOPC  H11Y23498   1.682   6.998  13.122
  190DOPC  C31223499   1.840   7.008  13.443
  190DOPC  H12X23500   1.792   6.922  13.599
  190DOPC  H12Y23501   1.824   7.076  13.698
  190DOPC  C31323502   1.996   6.957  13.455
  190DOPC  H13X23503   2.008   6.859  13.308
  190DOPC  H13Y23504   2.057   7.026  13.281
  190DOPC  C31423505   2.077   6.953  13.869
  190DOPC  H14X23506   2.021   7.028  14.025
  190DOPC  H14Y23507   2.066   6.857  14.034
  190DOPC  C31523508   2.223   7.015  13.938
  190DOPC  H15X23509   2.242   7.091  13.704
  190DOPC  H15Y23510   2.296   6.933  13.893
  190DOPC  C31623511   2.243   7.071  14.379
  190DOPC  H16X23512   2.149   7.115  14.463
  190DOPC  H16Y23513   2.252   6.987  14.586
  190DOPC  C31723514   2.333   7.189  14.535
  190DOPC  H17X23515   2.439   7.174  14.454
  190DOPC  H17Y23516   2.301   7.285  14.400
  190DOPC  C31823517   2.320   7.209  15.000
  190DOPC  H18X23518   2.329   7.112  15.162
  190DOPC  H18Y23519   2.401   7.275  15.120
  190DOPC  H18Z23520   2.223   7.254  15.084
  191DOPC     N23521   4.965   7.284   9.633
  191DOPC   C1223522   4.922   7.423   9.498
  191DOPC  H12A23523   4.973   7.495   9.693
  191DOPC  H12B23524   4.816   7.435   9.543
  191DOPC   C1323525   4.940   7.262  10.068
  191DOPC  H13A23526   4.833   7.257  10.125
  191DOPC  H13B23527   4.983   7.169  10.164
  191DOPC  H13C23528   4.981   7.343  10.248
  191DOPC   C1423529   5.109   7.274   9.537
  191DOPC  H14A23530   5.123   7.299   9.219
  191DOPC  H14B23531   5.169   7.347   9.699
  191DOPC  H14C23532   5.146   7.174   9.588
  191DOPC   C1523533   4.892   7.178   9.396
  191DOPC  H15A23534   4.787   7.171   9.474
  191DOPC  H15B23535   4.933   7.078   9.447
  191DOPC  H15C23536   4.899   7.198   9.078
  191DOPC   C1123537   4.955   7.465   9.054
  191DOPC  H11A23538   4.906   7.395   8.841
  191DOPC  H11B23539   4.907   7.564   9.000
  191DOPC     P23540   5.175   7.601   9.051
  191DOPC   O1323541   5.130   7.706   8.769
  191DOPC   O1423542   5.320   7.578   9.087
  191DOPC   O1223543   5.095   7.468   8.961
  191DOPC   O1123544   5.120   7.636   9.483
  191DOPC    C123545   5.178   7.745   9.702
  191DOPC    HA23546   5.165   7.841   9.537
  191DOPC    HB23547   5.286   7.729   9.753
  191DOPC    C223548   5.104   7.759  10.110
  191DOPC    HS23549   5.141   7.849  10.269
  191DOPC   O2123550   5.120   7.642  10.356
  191DOPC   C2123551   5.239   7.618  10.500
  191DOPC   O2223552   5.339   7.687  10.455
  191DOPC   C2223553   5.233   7.486  10.734
  191DOPC   H2R23554   5.289   7.411  10.557
  191DOPC   H2S23555   5.127   7.453  10.758
  191DOPC    C323556   4.952   7.779  10.029
  191DOPC    HX23557   4.915   7.703   9.813
  191DOPC    HY23558   4.939   7.877   9.879
  191DOPC   O3123559   4.877   7.779  10.398
  191DOPC   C3123560   4.837   7.659  10.527
  191DOPC   O3223561   4.844   7.555  10.335
  191DOPC   C3223562   4.782   7.677  10.953
  191DOPC   H2X23563   4.866   7.712  11.145
  191DOPC   H2Y23564   4.708   7.759  10.935
  191DOPC   C2323565   5.292   7.494  11.163
  191DOPC   H3R23566   5.388   7.550  11.166
  191DOPC   H3S23567   5.314   7.390  11.265
  191DOPC   C2423568   5.194   7.556  11.466
  191DOPC   H4R23569   5.099   7.498  11.451
  191DOPC   H4S23570   5.171   7.661  11.382
  191DOPC   C2523571   5.246   7.552  11.898
  191DOPC   H5R23572   5.342   7.609  11.916
  191DOPC   H5S23573   5.269   7.447  11.982
  191DOPC   C2623574   5.149   7.611  12.210
  191DOPC   H6R23575   5.137   7.720  12.159
  191DOPC   H6S23576   5.193   7.598  12.513
  191DOPC   C2723577   5.009   7.546  12.201
  191DOPC   H7R23578   5.022   7.435  12.210
  191DOPC   H7S23579   4.956   7.571  11.919
  191DOPC   C2823580   4.922   7.586  12.564
  191DOPC   H8R23581   4.977   7.556  12.840
  191DOPC   H8S23582   4.829   7.524  12.558
  191DOPC   C2923583   4.885   7.732  12.558
  191DOPC   H9R23584   4.855   7.772  12.264
  191DOPC  C21023585   4.889   7.816  12.873
  191DOPC  H10R23586   4.863   7.922  12.825
  191DOPC  C21123587   4.930   7.780  13.293
  191DOPC  H11R23588   4.932   7.670  13.341
  191DOPC  H11S23589   4.856   7.819  13.512
  191DOPC  C21223590   5.069   7.836  13.392
  191DOPC  H12R23591   5.065   7.947  13.410
  191DOPC  H12S23592   5.140   7.808  13.146
  191DOPC  C21323593   5.125   7.779  13.785
  191DOPC  H13R23594   5.234   7.801  13.806
  191DOPC  H13S23595   5.113   7.668  13.785
  191DOPC  C21423596   5.056   7.837  14.157
  191DOPC  H14R23597   4.946   7.821  14.127
  191DOPC  H14S23598   5.074   7.946  14.172
  191DOPC  C21523599   5.104   7.771  14.544
  191DOPC  H15R23600   5.215   7.780  14.568
  191DOPC  H15S23601   5.079   7.662  14.532
  191DOPC  C21623602   5.039   7.830  14.922
  191DOPC  H16R23603   5.067   7.937  14.955
  191DOPC  H16S23604   5.077   7.775  15.189
  191DOPC  C21723605   4.886   7.817  14.910
  191DOPC  H17R23606   4.861   7.713  14.817
  191DOPC  H17S23607   4.844   7.886  14.682
  191DOPC  C21823608   4.821   7.845  15.312
  191DOPC  H18R23609   4.872   7.792  15.561
  191DOPC  H18S23610   4.715   7.812  15.306
  191DOPC  H18T23611   4.824   7.954  15.375
  191DOPC   C3323612   4.717   7.553  11.151
  191DOPC   H3X23613   4.796   7.485  11.262
  191DOPC   H3Y23614   4.654   7.496  10.935
  191DOPC   C3423615   4.629   7.597  11.508
  191DOPC   H4X23616   4.529   7.630  11.403
  191DOPC   H4Y23617   4.680   7.684  11.655
  191DOPC   C3523618   4.609   7.492  11.835
  191DOPC   H5X23619   4.551   7.538  12.084
  191DOPC   H5Y23620   4.711   7.470  11.952
  191DOPC   C3623621   4.538   7.364  11.700
  191DOPC   H6X23622   4.436   7.390  11.589
  191DOPC   H6Y23623   4.594   7.319  11.445
  191DOPC   C3723624   4.527   7.260  12.036
  191DOPC   H7X23625   4.461   7.302  12.276
  191DOPC   H7Y23626   4.476   7.169  11.919
  191DOPC   C3823627   4.663   7.221  12.219
  191DOPC   H8X23628   4.719   7.313  12.303
  191DOPC   H8Y23629   4.725   7.171  11.985
  191DOPC   C3923630   4.653   7.136  12.588
  191DOPC   H9X23631   4.657   7.027  12.534
  191DOPC  C31023632   4.638   7.184  12.963
  191DOPC  H10X23633   4.634   7.114  13.218
  191DOPC  C31123634   4.630   7.331  13.068
  191DOPC  H11X23635   4.595   7.390  12.804
  191DOPC  H11Y23636   4.731   7.370  13.143
  191DOPC  C31223637   4.533   7.361  13.413
  191DOPC  H12X23638   4.438   7.306  13.362
  191DOPC  H12Y23639   4.508   7.470  13.410
  191DOPC  C31323640   4.587   7.326  13.833
  191DOPC  H13X23641   4.497   7.308  14.028
  191DOPC  H13Y23642   4.645   7.231  13.830
  191DOPC  C31423643   4.666   7.439  14.034
  191DOPC  H14X23644   4.620   7.537  13.956
  191DOPC  H14Y23645   4.656   7.427  14.364
  191DOPC  C31523646   4.817   7.445  13.935
  191DOPC  H15X23647   4.855   7.536  14.088
  191DOPC  H15Y23648   4.834   7.460  13.611
  191DOPC  C31623649   4.898   7.324  14.085
  191DOPC  H16X23650   4.843   7.274  14.331
  191DOPC  H16Y23651   4.910   7.248  13.842
  191DOPC  C31723652   5.036   7.369  14.244
  191DOPC  H17X23653   5.101   7.398  13.989
  191DOPC  H17Y23654   5.019   7.460  14.430
  191DOPC  C31823655   5.108   7.268  14.511
  191DOPC  H18X23656   5.145   7.181  14.334
  191DOPC  H18Y23657   5.195   7.315  14.664
  191DOPC  H18Z23658   5.039   7.231  14.748
  192DOPC     N23659   7.728   5.114   8.808
  192DOPC   C1223660   7.788   5.051   9.183
  192DOPC  H12A23661   7.796   4.944   9.135
  192DOPC  H12B23662   7.716   5.063   9.426
  192DOPC   C1323663   7.627   5.219   8.928
  192DOPC  H13A23664   7.675   5.292   9.126
  192DOPC  H13B23665   7.584   5.272   8.673
  192DOPC  H13C23666   7.546   5.182   9.111
  192DOPC   C1423667   7.667   5.006   8.562
  192DOPC  H14A23668   7.608   5.045   8.319
  192DOPC  H14B23669   7.745   4.937   8.457
  192DOPC  H14C23670   7.601   4.944   8.742
  192DOPC   C1523671   7.837   5.181   8.577
  192DOPC  H15A23672   7.912   5.109   8.490
  192DOPC  H15B23673   7.887   5.250   8.781
  192DOPC  H15C23674   7.800   5.235   8.322
  192DOPC   C1123675   7.927   5.101   9.336
  192DOPC  H11A23676   7.947   5.054   9.636
  192DOPC  H11B23677   8.006   5.060   9.135
  192DOPC     P23678   7.899   5.325   9.744
  192DOPC   O1323679   7.917   5.468   9.642
  192DOPC   O1423680   7.971   5.269  10.092
  192DOPC   O1223681   7.937   5.244   9.351
  192DOPC   O1123682   7.745   5.301   9.756
  192DOPC    C123683   7.680   5.197   9.966
  192DOPC    HA23684   7.734   5.101   9.936
  192DOPC    HB23685   7.578   5.186   9.828
  192DOPC    C223686   7.655   5.219  10.419
  192DOPC    HS23687   7.582   5.300  10.461
  192DOPC   O2123688   7.773   5.244  10.659
  192DOPC   C2123689   7.799   5.375  10.689
  192DOPC   O2223690   7.744   5.461  10.494
  192DOPC   C2223691   7.898   5.411  11.019
  192DOPC   H2R23692   7.999   5.382  10.917
  192DOPC   H2S23693   7.872   5.353  11.289
  192DOPC    C323694   7.581   5.092  10.560
  192DOPC    HX23695   7.640   5.001  10.485
  192DOPC    HY23696   7.487   5.085  10.386
  192DOPC   O3123697   7.548   5.105  10.980
  192DOPC   C3123698   7.651   5.069  11.202
  192DOPC   O3223699   7.754   5.017  11.076
  192DOPC   C3223700   7.617   5.092  11.640
  192DOPC   H2X23701   7.568   5.192  11.664
  192DOPC   H2Y23702   7.545   5.016  11.742
  192DOPC   C2323703   7.889   5.564  11.103
  192DOPC   H3R23704   7.794   5.585  11.262
  192DOPC   H3S23705   7.883   5.621  10.815
  192DOPC   C2423706   8.005   5.627  11.340
  192DOPC   H4R23707   7.977   5.731  11.421
  192DOPC   H4S23708   8.094   5.634  11.142
  192DOPC   C2523709   8.047   5.552  11.721
  192DOPC   H5R23710   8.121   5.612  11.892
  192DOPC   H5S23711   8.097   5.458  11.622
  192DOPC   C2623712   7.931   5.515  11.997
  192DOPC   H6R23713   7.845   5.478  11.817
  192DOPC   H6S23714   7.894   5.602  12.168
  192DOPC   C2723715   7.971   5.400  12.279
  192DOPC   H7R23716   8.037   5.438  12.522
  192DOPC   H7S23717   8.030   5.326  12.105
  192DOPC   C2823718   7.847   5.328  12.441
  192DOPC   H8R23719   7.873   5.222  12.501
  192DOPC   H8S23720   7.768   5.330  12.204
  192DOPC   C2923721   7.795   5.393  12.810
  192DOPC   H9R23722   7.860   5.472  12.930
  192DOPC  C21023723   7.685   5.359  13.017
  192DOPC  H10R23724   7.660   5.419  13.281
  192DOPC  C21123725   7.589   5.246  12.921
  192DOPC  H11R23726   7.570   5.192  13.203
  192DOPC  H11S23727   7.631   5.174  12.705
  192DOPC  C21223728   7.452   5.296  12.777
  192DOPC  H12R23729   7.464   5.364  12.519
  192DOPC  H12S23730   7.415   5.354  13.032
  192DOPC  C21323731   7.346   5.190  12.666
  192DOPC  H13R23732   7.373   5.146  12.369
  192DOPC  H13S23733   7.249   5.242  12.627
  192DOPC  C21423734   7.325   5.075  12.963
  192DOPC  H14R23735   7.420   5.018  12.990
  192DOPC  H14S23736   7.249   5.005  12.837
  192DOPC  C21523737   7.278   5.117  13.383
  192DOPC  H15R23738   7.174   5.158  13.365
  192DOPC  H15S23739   7.344   5.198  13.494
  192DOPC  C21623740   7.280   5.003  13.692
  192DOPC  H16R23741   7.384   4.963  13.695
  192DOPC  H16S23742   7.210   4.924  13.593
  192DOPC  C21723743   7.244   5.050  14.115
  192DOPC  H17R23744   7.145   5.101  14.103
  192DOPC  H17S23745   7.325   5.121  14.193
  192DOPC  C21823746   7.242   4.954  14.469
  192DOPC  H18R23747   7.208   5.005  14.748
  192DOPC  H18S23748   7.347   4.922  14.523
  192DOPC  H18T23749   7.177   4.866  14.418
  192DOPC   C3323750   7.744   5.090  11.901
  192DOPC   H3X23751   7.713   5.109  12.213
  192DOPC   H3Y23752   7.813   5.170  11.799
  192DOPC   C3423753   7.821   4.958  11.901
  192DOPC   H4X23754   7.887   4.953  11.631
  192DOPC   H4Y23755   7.750   4.873  11.886
  192DOPC   C3523756   7.910   4.936  12.270
  192DOPC   H5X23757   7.851   4.936  12.549
  192DOPC   H5Y23758   7.982   5.021  12.294
  192DOPC   C3623759   7.987   4.805  12.228
  192DOPC   H6X23760   8.038   4.806  11.931
  192DOPC   H6Y23761   8.069   4.806  12.453
  192DOPC   C3723762   7.904   4.674  12.252
  192DOPC   H7X23763   7.876   4.652  11.934
  192DOPC   H7Y23764   7.969   4.590  12.348
  192DOPC   C3823765   7.769   4.672  12.495
  192DOPC   H8X23766   7.710   4.591  12.348
  192DOPC   H8Y23767   7.715   4.766  12.426
  192DOPC   C3923768   7.757   4.640  12.936
  192DOPC   H9X23769   7.773   4.533  13.002
  192DOPC  C31023770   7.720   4.720  13.245
  192DOPC  H10X23771   7.717   4.675  13.548
  192DOPC  C31123772   7.678   4.866  13.227
  192DOPC  H11X23773   7.570   4.865  13.302
  192DOPC  H11Y23774   7.684   4.906  12.918
  192DOPC  C31223775   7.732   4.975  13.512
  192DOPC  H12X23776   7.744   4.939  13.824
  192DOPC  H12Y23777   7.651   5.051  13.539
  192DOPC  C31323778   7.856   5.050  13.365
  192DOPC  H13X23779   7.942   4.981  13.341
  192DOPC  H13Y23780   7.836   5.088  13.056
  192DOPC  C31423781   7.888   5.169  13.638
  192DOPC  H14X23782   7.802   5.239  13.632
  192DOPC  H14Y23783   7.898   5.135  13.953
  192DOPC  C31523784   8.017   5.243  13.521
  192DOPC  H15X23785   8.031   5.232  13.191
  192DOPC  H15Y23786   8.103   5.194  13.671
  192DOPC  C31623787   8.019   5.394  13.620
  192DOPC  H16X23788   8.121   5.434  13.563
  192DOPC  H16Y23789   7.953   5.447  13.413
  192DOPC  C31723790   7.971   5.435  14.040
  192DOPC  H17X23791   7.952   5.545  14.034
  192DOPC  H17Y23792   7.874   5.386  14.106
  192DOPC  C31823793   8.073   5.404  14.367
  192DOPC  H18X23794   8.037   5.442  14.661
  192DOPC  H18Y23795   8.090   5.295  14.388
  192DOPC  H18Z23796   8.170   5.454  14.295
  193DOPC     N23797   7.358   1.644   8.964
  193DOPC   C1223798   7.289   1.653   9.366
  193DOPC  H12A23799   7.280   1.553   9.492
  193DOPC  H12B23800   7.187   1.689   9.321
  193DOPC   C1323801   7.318   1.518   8.751
  193DOPC  H13A23802   7.354   1.521   8.442
  193DOPC  H13B23803   7.358   1.429   8.892
  193DOPC  H13C23804   7.210   1.509   8.742
  193DOPC   C1423805   7.506   1.651   9.024
  193DOPC  H14A23806   7.528   1.745   9.174
  193DOPC  H14B23807   7.542   1.571   9.213
  193DOPC  H14C23808   7.559   1.646   8.742
  193DOPC   C1523809   7.315   1.761   8.718
  193DOPC  H15A23810   7.368   1.767   8.439
  193DOPC  H15B23811   7.329   1.854   8.886
  193DOPC  H15C23812   7.208   1.758   8.664
  193DOPC   C1123813   7.354   1.747   9.681
  193DOPC  H11A23814   7.294   1.734   9.948
  193DOPC  H11B23815   7.456   1.714   9.765
  193DOPC     P23816   7.215   1.964   9.528
  193DOPC   O1323817   7.104   1.867   9.507
  193DOPC   O1423818   7.236   2.048   9.168
  193DOPC   O1223819   7.354   1.885   9.570
  193DOPC   O1123820   7.208   2.059   9.912
  193DOPC    C123821   7.095   2.077  10.173
  193DOPC    HA23822   7.000   2.057  10.011
  193DOPC    HB23823   7.093   2.182  10.275
  193DOPC    C223824   7.100   1.985  10.548
  193DOPC    HS23825   7.183   2.018  10.746
  193DOPC   O2123826   7.119   1.855  10.398
  193DOPC   C2123827   7.194   1.773  10.581
  193DOPC   O2223828   7.284   1.795  10.818
  193DOPC   C2223829   7.143   1.636  10.440
  193DOPC   H2R23830   7.230   1.578  10.323
  193DOPC   H2S23831   7.068   1.647  10.197
  193DOPC    C323832   6.966   1.981  10.791
  193DOPC    HX23833   6.917   1.887  10.689
  193DOPC    HY23834   6.904   2.065  10.686
  193DOPC   O3123835   6.973   1.971  11.226
  193DOPC   C3123836   6.853   1.985  11.400
  193DOPC   O3223837   6.758   2.043  11.253
  193DOPC   C3223838   6.838   1.908  11.787
  193DOPC   H2X23839   6.727   1.903  11.823
  193DOPC   H2Y23840   6.875   1.806  11.748
  193DOPC   C2323841   7.088   1.562  10.800
  193DOPC   H3R23842   7.170   1.572  11.025
  193DOPC   H3S23843   7.080   1.455  10.722
  193DOPC   C2423844   6.953   1.614  10.965
  193DOPC   H4R23845   6.871   1.604  10.740
  193DOPC   H4S23846   6.965   1.722  11.031
  193DOPC   C2523847   6.914   1.548  11.364
  193DOPC   H5R23848   6.863   1.451  11.310
  193DOPC   H5S23849   6.842   1.612  11.523
  193DOPC   C2623850   7.042   1.527  11.610
  193DOPC   H6R23851   7.093   1.624  11.640
  193DOPC   H6S23852   7.110   1.456  11.451
  193DOPC   C2723853   7.033   1.458  12.012
  193DOPC   H7R23854   7.131   1.460  12.168
  193DOPC   H7S23855   7.010   1.353  11.934
  193DOPC   C2823856   6.920   1.500  12.282
  193DOPC   H8R23857   6.896   1.416  12.489
  193DOPC   H8S23858   6.829   1.511  12.096
  193DOPC   C2923859   6.956   1.624  12.504
  193DOPC   H9R23860   6.924   1.718  12.366
  193DOPC  C21023861   6.997   1.624  12.885
  193DOPC  H10R23862   7.021   1.719  13.038
  193DOPC  C21123863   7.010   1.498  13.122
  193DOPC  H11R23864   7.089   1.514  13.335
  193DOPC  H11S23865   7.044   1.411  12.942
  193DOPC  C21223866   6.889   1.463  13.377
  193DOPC  H12R23867   6.915   1.370  13.545
  193DOPC  H12S23868   6.800   1.441  13.191
  193DOPC  C21323869   6.861   1.574  13.683
  193DOPC  H13R23870   6.795   1.651  13.557
  193DOPC  H13S23871   6.956   1.626  13.761
  193DOPC  C21423872   6.803   1.516  14.067
  193DOPC  H14R23873   6.725   1.440  14.001
  193DOPC  H14S23874   6.756   1.598  14.244
  193DOPC  C21523875   6.912   1.453  14.319
  193DOPC  H15R23876   7.008   1.498  14.241
  193DOPC  H15S23877   6.932   1.353  14.205
  193DOPC  C21623878   6.871   1.454  14.760
  193DOPC  H16R23879   6.769   1.412  14.754
  193DOPC  H16S23880   6.864   1.559  14.865
  193DOPC  C21723881   6.952   1.372  15.063
  193DOPC  H17R23882   6.932   1.266  15.018
  193DOPC  H17S23883   6.917   1.398  15.369
  193DOPC  C21823884   7.102   1.394  15.072
  193DOPC  H18R23885   7.119   1.495  15.183
  193DOPC  H18S23886   7.146   1.386  14.766
  193DOPC  H18T23887   7.151   1.320  15.273
  193DOPC   C3323888   6.892   1.977  12.165
  193DOPC   H3X23889   6.857   1.915  12.420
  193DOPC   H3Y23890   6.845   2.077  12.210
  193DOPC   C3423891   7.045   1.984  12.198
  193DOPC   H4X23892   7.071   1.982  12.525
  193DOPC   H4Y23893   7.086   2.077  12.072
  193DOPC   C3523894   7.120   1.873  11.979
  193DOPC   H5X23895   7.125   1.890  11.652
  193DOPC   H5Y23896   7.066   1.778  12.021
  193DOPC   C3623897   7.263   1.854  12.126
  193DOPC   H6X23898   7.328   1.928  11.976
  193DOPC   H6Y23899   7.268   1.869  12.456
  193DOPC   C3723900   7.310   1.712  12.033
  193DOPC   H7X23901   7.244   1.644  12.210
  193DOPC   H7Y23902   7.295   1.690  11.709
  193DOPC   C3823903   7.457   1.690  12.141
  193DOPC   H8X23904   7.480   1.749  12.411
  193DOPC   H8Y23905   7.521   1.728  11.892
  193DOPC   C3923906   7.478   1.542  12.201
  193DOPC   H9X23907   7.480   1.482  11.925
  193DOPC  C31023908   7.485   1.480  12.558
  193DOPC  H10X23909   7.482   1.370  12.558
  193DOPC  C31123910   7.475   1.541  12.969
  193DOPC  H11X23911   7.485   1.651  12.960
  193DOPC  H11Y23912   7.558   1.505  13.161
  193DOPC  C31223913   7.337   1.506  13.155
  193DOPC  H12X23914   7.308   1.401  13.089
  193DOPC  H12Y23915   7.265   1.570  12.984
  193DOPC  C31323916   7.319   1.533  13.611
  193DOPC  H13X23917   7.215   1.539  13.716
  193DOPC  H13Y23918   7.354   1.450  13.794
  193DOPC  C31423919   7.379   1.664  13.746
  193DOPC  H14X23920   7.362   1.675  14.073
  193DOPC  H14Y23921   7.489   1.666  13.692
  193DOPC  C31523922   7.310   1.777  13.521
  193DOPC  H15X23923   7.201   1.778  13.587
  193DOPC  H15Y23924   7.319   1.764  13.188
  193DOPC  C31623925   7.374   1.910  13.611
  193DOPC  H16X23926   7.478   1.906  13.497
  193DOPC  H16Y23927   7.313   1.984  13.440
  193DOPC  C31723928   7.368   1.954  14.049
  193DOPC  H17X23929   7.411   1.878  14.256
  193DOPC  H17Y23930   7.431   2.045  14.079
  193DOPC  C31823931   7.224   1.989  14.151
  193DOPC  H18X23932   7.185   2.063  13.932
  193DOPC  H18Y23933   7.161   1.900  14.127
  193DOPC  H18Z23934   7.212   2.033  14.454
  194DOPC     N23935   1.741   0.393   8.631
  194DOPC   C1223936   1.822   0.280   8.817
  194DOPC  H12A23937   1.925   0.318   8.841
  194DOPC  H12B23938   1.828   0.196   8.616
  194DOPC   C1323939   1.595   0.370   8.697
  194DOPC  H13A23940   1.536   0.452   8.583
  194DOPC  H13B23941   1.562   0.280   8.544
  194DOPC  H13C23942   1.578   0.357   9.018
  194DOPC   C1423943   1.778   0.410   8.196
  194DOPC  H14A23944   1.883   0.441   8.181
  194DOPC  H14B23945   1.771   0.319   8.025
  194DOPC  H14C23946   1.720   0.486   8.046
  194DOPC   C1523947   1.788   0.516   8.847
  194DOPC  H15A23948   1.896   0.526   8.796
  194DOPC  H15B23949   1.777   0.503   9.171
  194DOPC  H15C23950   1.740   0.604   8.739
  194DOPC   C1123951   1.785   0.233   9.243
  194DOPC  H11A23952   1.685   0.186   9.249
  194DOPC  H11B23953   1.860   0.154   9.318
  194DOPC     P23954   1.818   0.312   9.981
  194DOPC   O1323955   1.851   0.439  10.179
  194DOPC   O1423956   1.914   0.201  10.026
  194DOPC   O1223957   1.793   0.342   9.519
  194DOPC   O1123958   1.673   0.261  10.086
  194DOPC    C123959   1.558   0.321   9.903
  194DOPC    HA23960   1.531   0.266   9.627
  194DOPC    HB23961   1.576   0.427   9.819
  194DOPC    C223962   1.438   0.317  10.194
  194DOPC    HS23963   1.366   0.396  10.107
  194DOPC   O2123964   1.476   0.340  10.602
  194DOPC   C2123965   1.559   0.439  10.689
  194DOPC   O2223966   1.612   0.515  10.455
  194DOPC   C2223967   1.566   0.459  11.142
  194DOPC   H2R23968   1.506   0.384  11.295
  194DOPC   H2S23969   1.522   0.558  11.214
  194DOPC    C323970   1.366   0.178  10.152
  194DOPC    HX23971   1.304   0.185   9.879
  194DOPC    HY23972   1.291   0.165  10.395
  194DOPC   O3123973   1.458   0.066  10.110
  194DOPC   C3123974   1.498   0.023  10.473
  194DOPC   O3223975   1.443   0.056  10.782
  194DOPC   C3223976   1.617  -0.069  10.482
  194DOPC   H2X23977   1.606  -0.155  10.275
  194DOPC   H2Y23978   1.706  -0.008  10.401
  194DOPC   C2323979   1.709   0.441  11.292
  194DOPC   H3R23980   1.717   0.477  11.607
  194DOPC   H3S23981   1.781   0.498  11.103
  194DOPC   C2423982   1.741   0.291  11.277
  194DOPC   H4R23983   1.727   0.256  10.959
  194DOPC   H4S23984   1.667   0.235  11.460
  194DOPC   C2523985   1.884   0.255  11.394
  194DOPC   H5R23986   1.953   0.308  11.187
  194DOPC   H5S23987   1.891   0.146  11.331
  194DOPC   C2623988   1.923   0.278  11.835
  194DOPC   H6R23989   1.932   0.388  11.892
  194DOPC   H6S23990   2.024   0.234  11.883
  194DOPC   C2723991   1.826   0.214  12.138
  194DOPC   H7R23992   1.759   0.147  11.961
  194DOPC   H7S23993   1.762   0.292  12.273
  194DOPC   C2823994   1.889   0.122  12.459
  194DOPC   H8R23995   1.979   0.072  12.336
  194DOPC   H8S23996   1.815   0.039  12.501
  194DOPC   C2923997   1.922   0.178  12.867
  194DOPC   H9R23998   2.012   0.241  12.885
  194DOPC  C21023999   1.838   0.175  13.182
  194DOPC  H10R24000   1.863   0.227  13.461
  194DOPC  C21124001   1.699   0.115  13.167
  194DOPC  H11R24002   1.659   0.105  13.476
  194DOPC  H11S24003   1.698   0.013  13.035
  194DOPC  C21224004   1.609   0.210  12.915
  194DOPC  H12R24005   1.504   0.193  13.014
  194DOPC  H12S24006   1.612   0.181  12.597
  194DOPC  C21324007   1.642   0.363  12.954
  194DOPC  H13R24008   1.602   0.426  12.714
  194DOPC  H13S24009   1.749   0.387  12.948
  194DOPC  C21424010   1.583   0.397  13.356
  194DOPC  H14R24011   1.630   0.318  13.539
  194DOPC  H14S24012   1.472   0.380  13.341
  194DOPC  C21524013   1.611   0.519  13.611
  194DOPC  H15R24014   1.584   0.489  13.920
  194DOPC  H15S24015   1.534   0.593  13.557
  194DOPC  C21624016   1.754   0.572  13.614
  194DOPC  H16R24017   1.747   0.683  13.653
  194DOPC  H16S24018   1.807   0.554  13.329
  194DOPC  C21724019   1.827   0.519  13.983
  194DOPC  H17R24020   1.887   0.428  13.920
  194DOPC  H17S24021   1.750   0.490  14.208
  194DOPC  C21824022   1.905   0.625  14.199
  194DOPC  H18R24023   1.915   0.602  14.523
  194DOPC  H18S24024   1.849   0.721  14.184
  194DOPC  H18T24025   2.006   0.637  14.067
  194DOPC   C3324026   1.631  -0.118  10.926
  194DOPC   H3X24027   1.628  -0.032  11.136
  194DOPC   H3Y24028   1.729  -0.166  10.965
  194DOPC   C3424029   1.524  -0.220  11.052
  194DOPC   H4X24030   1.556  -0.319  10.929
  194DOPC   H4Y24031   1.426  -0.195  10.908
  194DOPC   C3524032   1.502  -0.226  11.508
  194DOPC   H5X24033   1.597  -0.199  11.655
  194DOPC   H5Y24034   1.472  -0.329  11.598
  194DOPC   C3624035   1.398  -0.127  11.670
  194DOPC   H6X24036   1.434  -0.024  11.619
  194DOPC   H6Y24037   1.312  -0.139  11.475
  194DOPC   C3724038   1.341  -0.146  12.096
  194DOPC   H7X24039   1.285  -0.057  12.201
  194DOPC   H7Y24040   1.270  -0.231  12.081
  194DOPC   C3824041   1.447  -0.181  12.405
  194DOPC   H8X24042   1.499  -0.091  12.519
  194DOPC   H8Y24043   1.515  -0.245  12.228
  194DOPC   C3924044   1.395  -0.272  12.720
  194DOPC   H9X24045   1.346  -0.361  12.588
  194DOPC  C31024046   1.407  -0.259  13.122
  194DOPC  H10X24047   1.371  -0.342  13.311
  194DOPC  C31124048   1.479  -0.147  13.350
  194DOPC  H11X24049   1.470  -0.051  13.185
  194DOPC  H11Y24050   1.589  -0.156  13.398
  194DOPC  C31224051   1.434  -0.139  13.782
  194DOPC  H12X24052   1.386  -0.235  13.863
  194DOPC  H12Y24053   1.359  -0.059  13.773
  194DOPC  C31324054   1.543  -0.111  14.097
  194DOPC  H13X24055   1.605  -0.203  14.091
  194DOPC  H13Y24056   1.604  -0.024  14.004
  194DOPC  C31424057   1.492  -0.089  14.535
  194DOPC  H14X24058   1.403  -0.025  14.493
  194DOPC  H14Y24059   1.458  -0.187  14.652
  194DOPC  C31524060   1.577  -0.019  14.871
  194DOPC  H15X24061   1.569   0.090  14.844
  194DOPC  H15Y24062   1.685  -0.033  14.883
  194DOPC  C31624063   1.538  -0.056  15.303
  194DOPC  H16X24064   1.479  -0.150  15.300
  194DOPC  H16Y24065   1.629  -0.064  15.492
  194DOPC  C31724066   1.461   0.055  15.489
  194DOPC  H17X24067   1.431   0.056  15.807
  194DOPC  H17Y24068   1.529   0.143  15.453
  194DOPC  C31824069   1.339   0.060  15.237
  194DOPC  H18X24070   1.374   0.140  15.030
  194DOPC  H18Y24071   1.325  -0.036  15.072
  194DOPC  H18Z24072   1.244   0.089  15.384
  195DOPC     N24073   5.699   7.563   9.261
  195DOPC   C1224074   5.695   7.473   9.630
  195DOPC  H12A24075   5.608   7.410   9.603
  195DOPC  H12B24076   5.683   7.535   9.897
  195DOPC   C1324077   5.591   7.665   9.288
  195DOPC  H13A24078   5.492   7.619   9.297
  195DOPC  H13B24079   5.602   7.729   9.546
  195DOPC  H13C24080   5.587   7.726   9.018
  195DOPC   C1424081   5.677   7.482   8.889
  195DOPC  H14A24082   5.696   7.540   8.622
  195DOPC  H14B24083   5.749   7.400   8.892
  195DOPC  H14C24084   5.577   7.441   8.877
  195DOPC   C1524085   5.834   7.625   9.222
  195DOPC  H15A24086   5.860   7.685   9.480
  195DOPC  H15B24087   5.842   7.686   8.952
  195DOPC  H15C24088   5.909   7.547   9.180
  195DOPC   C1124089   5.814   7.379   9.717
  195DOPC  H11A24090   5.906   7.437   9.795
  195DOPC  H11B24091   5.786   7.318   9.984
  195DOPC     P24092   5.973   7.262   9.192
  195DOPC   O1324093   5.999   7.375   8.919
  195DOPC   O1424094   5.960   7.128   9.006
  195DOPC   O1224095   5.833   7.290   9.393
  195DOPC   O1124096   6.077   7.259   9.546
  195DOPC    C124097   6.185   7.352   9.588
  195DOPC    HA24098   6.150   7.456   9.540
  195DOPC    HB24099   6.267   7.330   9.372
  195DOPC    C224100   6.242   7.344  10.020
  195DOPC    HS24101   6.304   7.250  10.026
  195DOPC   O2124102   6.130   7.346  10.293
  195DOPC   C2124103   6.104   7.226  10.437
  195DOPC   O2224104   6.180   7.131  10.419
  195DOPC   C2224105   5.968   7.223  10.638
  195DOPC   H2R24106   5.897   7.274  10.440
  195DOPC   H2S24107   5.979   7.281  10.920
  195DOPC    C324108   6.336   7.458  10.143
  195DOPC    HX24109   6.427   7.460   9.951
  195DOPC    HY24110   6.371   7.433  10.455
  195DOPC   O3124111   6.267   7.584  10.116
  195DOPC   C3124112   6.243   7.647  10.461
  195DOPC   O3224113   6.292   7.619  10.782
  195DOPC   C3224114   6.142   7.759  10.392
  195DOPC   H2X24115   6.154   7.833  10.638
  195DOPC   H2Y24116   6.168   7.808  10.104
  195DOPC   C2324117   5.914   7.081  10.737
  195DOPC   H3R24118   5.988   7.029  10.935
  195DOPC   H3S24119   5.905   7.019  10.458
  195DOPC   C2424120   5.777   7.085  10.950
  195DOPC   H4R24121   5.751   6.984  11.058
  195DOPC   H4S24122   5.700   7.113  10.725
  195DOPC   C2524123   5.768   7.186  11.295
  195DOPC   H5R24124   5.669   7.177  11.445
  195DOPC   H5S24125   5.775   7.289  11.172
  195DOPC   C2624126   5.877   7.172  11.613
  195DOPC   H6R24127   5.867   7.264  11.793
  195DOPC   H6S24128   5.979   7.178  11.487
  195DOPC   C2724129   5.864   7.041  11.850
  195DOPC   H7R24130   5.959   6.984  11.823
  195DOPC   H7S24131   5.783   6.977  11.730
  195DOPC   C2824132   5.839   7.058  12.300
  195DOPC   H8R24133   5.925   7.006  12.435
  195DOPC   H8S24134   5.749   7.001  12.399
  195DOPC   C2924135   5.843   7.195  12.471
  195DOPC   H9R24136   5.750   7.249  12.408
  195DOPC  C21024137   5.952   7.273  12.519
  195DOPC  H10R24138   5.935   7.361  12.702
  195DOPC  C21124139   6.097   7.248  12.411
  195DOPC  H11R24140   6.103   7.178  12.150
  195DOPC  H11S24141   6.159   7.207  12.657
  195DOPC  C21224142   6.169   7.380  12.318
  195DOPC  H12R24143   6.121   7.426  12.051
  195DOPC  H12S24144   6.275   7.359  12.231
  195DOPC  C21324145   6.168   7.481  12.669
  195DOPC  H13R24146   6.084   7.461  12.876
  195DOPC  H13S24147   6.145   7.578  12.531
  195DOPC  C21424148   6.294   7.485  12.936
  195DOPC  H14R24149   6.381   7.519  12.756
  195DOPC  H14S24150   6.316   7.382  13.044
  195DOPC  C21524151   6.286   7.577  13.308
  195DOPC  H15R24152   6.295   7.680  13.194
  195DOPC  H15S24153   6.375   7.561  13.500
  195DOPC  C21624154   6.158   7.568  13.566
  195DOPC  H16R24155   6.149   7.465  13.686
  195DOPC  H16S24156   6.070   7.588  13.371
  195DOPC  C21724157   6.146   7.669  13.917
  195DOPC  H17R24158   6.050   7.651  14.079
  195DOPC  H17S24159   6.136   7.771  13.788
  195DOPC  C21824160   6.259   7.666  14.229
  195DOPC  H18R24161   6.249   7.753  14.439
  195DOPC  H18S24162   6.358   7.674  14.085
  195DOPC  H18T24163   6.256   7.573  14.409
  195DOPC   C3324164   5.996   7.706  10.374
  195DOPC   H3X24165   5.991   7.608  10.218
  195DOPC   H3Y24166   5.939   7.778  10.185
  195DOPC   C3424167   5.925   7.698  10.785
  195DOPC   H4X24168   5.816   7.690  10.728
  195DOPC   H4Y24169   5.942   7.793  10.953
  195DOPC   C3524170   5.967   7.579  11.043
  195DOPC   H5X24171   6.073   7.592  11.142
  195DOPC   H5Y24172   5.963   7.488  10.854
  195DOPC   C3624173   5.881   7.556  11.421
  195DOPC   H6X24174   5.775   7.539  11.340
  195DOPC   H6Y24175   5.919   7.462  11.565
  195DOPC   C3724176   5.892   7.668  11.733
  195DOPC   H7X24177   6.000   7.695  11.760
  195DOPC   H7Y24178   5.838   7.759  11.631
  195DOPC   C3824179   5.846   7.628  12.159
  195DOPC   H8X24180   5.890   7.701  12.375
  195DOPC   H8Y24181   5.892   7.530  12.228
  195DOPC   C3924182   5.696   7.625  12.228
  195DOPC   H9X24183   5.635   7.671  11.988
  195DOPC  C31024184   5.635   7.566  12.543
  195DOPC  H10X24185   5.525   7.564  12.558
  195DOPC  C31124186   5.706   7.493  12.879
  195DOPC  H11X24187   5.816   7.502  12.843
  195DOPC  H11Y24188   5.679   7.385  12.864
  195DOPC  C31224189   5.681   7.532  13.317
  195DOPC  H12X24190   5.573   7.520  13.389
  195DOPC  H12Y24191   5.710   7.638  13.371
  195DOPC  C31324192   5.763   7.440  13.596
  195DOPC  H13X24193   5.712   7.342  13.614
  195DOPC  H13Y24194   5.864   7.421  13.464
  195DOPC  C31424195   5.783   7.496  14.019
  195DOPC  H14X24196   5.839   7.422  14.202
  195DOPC  H14Y24197   5.845   7.588  13.998
  195DOPC  C31524198   5.650   7.531  14.226
  195DOPC  H15X24199   5.588   7.439  14.247
  195DOPC  H15Y24200   5.594   7.604  14.037
  195DOPC  C31624201   5.668   7.591  14.646
  195DOPC  H16X24202   5.728   7.685  14.628
  195DOPC  H16Y24203   5.567   7.618  14.760
  195DOPC  C31724204   5.734   7.494  14.940
  195DOPC  H17X24205   5.691   7.393  14.889
  195DOPC  H17Y24206   5.843   7.488  14.874
  195DOPC  C31824207   5.714   7.532  15.381
  195DOPC  H18X24208   5.757   7.455  15.582
  195DOPC  H18Y24209   5.763   7.630  15.447
  195DOPC  H18Z24210   5.606   7.542  15.450
  196DOPC     N24211   0.785   1.147   8.820
  196DOPC   C1224212   0.921   1.088   8.922
  196DOPC  H12A24213   0.981   1.168   9.042
  196DOPC  H12B24214   0.971   1.053   8.655
  196DOPC   C1324215   0.685   1.035   8.796
  196DOPC  H13A24216   0.724   0.954   8.619
  196DOPC  H13B24217   0.670   0.992   9.093
  196DOPC  H13C24218   0.591   1.067   8.673
  196DOPC   C1424219   0.792   1.222   8.433
  196DOPC  H14A24220   0.818   1.151   8.193
  196DOPC  H14B24221   0.697   1.265   8.340
  196DOPC  H14C24222   0.867   1.300   8.430
  196DOPC   C1524223   0.738   1.231   9.165
  196DOPC  H15A24224   0.636   1.265   9.135
  196DOPC  H15B24225   0.804   1.313   9.228
  196DOPC  H15C24226   0.738   1.166   9.432
  196DOPC   C1124227   0.921   0.972   9.228
  196DOPC  H11A24228   0.882   0.879   9.090
  196DOPC  H11B24229   1.025   0.952   9.333
  196DOPC     P24230   0.770   0.914   9.852
  196DOPC   O1324231   0.706   1.002  10.155
  196DOPC   O1424232   0.869   0.815   9.984
  196DOPC   O1224233   0.842   1.012   9.558
  196DOPC   O1124234   0.660   0.847   9.570
  196DOPC    C124235   0.628   0.707   9.603
  196DOPC    HA24236   0.701   0.650   9.792
  196DOPC    HB24237   0.634   0.662   9.300
  196DOPC    C224238   0.485   0.684   9.774
  196DOPC    HS24239   0.413   0.723   9.549
  196DOPC   O2124240   0.477   0.747  10.155
  196DOPC   C2124241   0.416   0.860  10.152
  196DOPC   O2224242   0.366   0.917   9.864
  196DOPC   C2224243   0.399   0.905  10.584
  196DOPC   H2R24244   0.303   0.864  10.689
  196DOPC   H2S24245   0.392   1.015  10.563
  196DOPC    C324246   0.442   0.537   9.852
  196DOPC    HX24247   0.431   0.485   9.561
  196DOPC    HY24248   0.342   0.538   9.999
  196DOPC   O3124249   0.542   0.472  10.092
  196DOPC   C3124250   0.537   0.497  10.479
  196DOPC   O3224251   0.440   0.534  10.671
  196DOPC   C3224252   0.674   0.473  10.659
  196DOPC   H2X24253   0.653   0.455  10.977
  196DOPC   H2Y24254   0.716   0.381  10.527
  196DOPC   C2324255   0.513   0.866  10.875
  196DOPC   H3R24256   0.605   0.836  10.716
  196DOPC   H3S24257   0.482   0.783  11.076
  196DOPC   C2424258   0.547   0.990  11.115
  196DOPC   H4R24259   0.461   1.006  11.319
  196DOPC   H4S24260   0.559   1.076  10.908
  196DOPC   C2524261   0.674   0.982  11.361
  196DOPC   H5R24262   0.763   0.969  11.166
  196DOPC   H5S24263   0.665   0.897  11.574
  196DOPC   C2624264   0.684   1.109  11.610
  196DOPC   H6R24265   0.596   1.105  11.814
  196DOPC   H6S24266   0.676   1.198  11.412
  196DOPC   C2724267   0.809   1.118  11.859
  196DOPC   H7R24268   0.817   1.220  11.994
  196DOPC   H7S24269   0.898   1.102  11.661
  196DOPC   C2824270   0.808   1.014  12.192
  196DOPC   H8R24271   0.908   1.029  12.321
  196DOPC   H8S24272   0.800   0.910  12.078
  196DOPC   C2924273   0.708   1.039  12.513
  196DOPC   H9R24274   0.741   1.116  12.726
  196DOPC  C21024275   0.596   0.972  12.597
  196DOPC  H10R24276   0.542   1.002  12.867
  196DOPC  C21124277   0.531   0.852  12.408
  196DOPC  H11R24278   0.560   0.838  12.090
  196DOPC  H11S24279   0.421   0.862  12.423
  196DOPC  C21224280   0.574   0.732  12.660
  196DOPC  H12R24281   0.679   0.704  12.588
  196DOPC  H12S24282   0.510   0.644  12.585
  196DOPC  C21324283   0.562   0.756  13.116
  196DOPC  H13R24284   0.455   0.776  13.185
  196DOPC  H13S24285   0.623   0.841  13.227
  196DOPC  C21424286   0.609   0.637  13.350
  196DOPC  H14R24287   0.719   0.641  13.389
  196DOPC  H14S24288   0.589   0.545  13.173
  196DOPC  C21524289   0.542   0.634  13.761
  196DOPC  H15R24290   0.492   0.537  13.809
  196DOPC  H15S24291   0.467   0.715  13.788
  196DOPC  C21624292   0.645   0.642  14.088
  196DOPC  H16R24293   0.696   0.740  14.061
  196DOPC  H16S24294   0.719   0.563  14.019
  196DOPC  C21724295   0.589   0.621  14.511
  196DOPC  H17R24296   0.653   0.678  14.727
  196DOPC  H17S24297   0.594   0.514  14.592
  196DOPC  C21824298   0.444   0.664  14.559
  196DOPC  H18R24299   0.417   0.668  14.880
  196DOPC  H18S24300   0.373   0.598  14.403
  196DOPC  H18T24301   0.431   0.765  14.424
  196DOPC   C3324302   0.772   0.592  10.590
  196DOPC   H3X24303   0.716   0.685  10.518
  196DOPC   H3Y24304   0.833   0.571  10.317
  196DOPC   C3424305   0.867   0.622  10.938
  196DOPC   H4X24306   0.927   0.713  10.860
  196DOPC   H4Y24307   0.938   0.537  10.965
  196DOPC   C3524308   0.798   0.647  11.340
  196DOPC   H5X24309   0.709   0.582  11.385
  196DOPC   H5Y24310   0.759   0.749  11.340
  196DOPC   C3624311   0.889   0.625  11.697
  196DOPC   H6X24312   0.821   0.610  11.961
  196DOPC   H6Y24313   0.953   0.536  11.673
  196DOPC   C3724314   0.984   0.739  11.790
  196DOPC   H7X24315   1.078   0.727  11.619
  196DOPC   H7Y24316   0.941   0.837  11.706
  196DOPC   C3824317   1.013   0.724  12.237
  196DOPC   H8X24318   1.075   0.633  12.270
  196DOPC   H8Y24319   0.919   0.709  12.408
  196DOPC   C3924320   1.087   0.842  12.381
  196DOPC   H9X24321   1.158   0.873  12.153
  196DOPC  C31024322   1.068   0.914  12.717
  196DOPC  H10X24323   1.128   1.004  12.771
  196DOPC  C31124324   0.962   0.887  13.023
  196DOPC  H11X24325   0.906   0.793  12.963
  196DOPC  H11Y24326   0.888   0.969  13.029
  196DOPC  C31224327   1.024   0.878  13.437
  196DOPC  H12X24328   1.061   0.977  13.539
  196DOPC  H12Y24329   1.110   0.809  13.422
  196DOPC  C31324330   0.928   0.819  13.740
  196DOPC  H13X24331   0.856   0.897  13.839
  196DOPC  H13Y24332   0.873   0.734  13.608
  196DOPC  C31424333   1.012   0.766  14.082
  196DOPC  H14X24334   1.065   0.675  13.977
  196DOPC  H14Y24335   1.090   0.843  14.142
  196DOPC  C31524336   0.939   0.741  14.481
  196DOPC  H15X24337   0.838   0.785  14.472
  196DOPC  H15Y24338   0.995   0.793  14.721
  196DOPC  C31624339   0.938   0.591  14.580
  196DOPC  H16X24340   0.865   0.543  14.385
  196DOPC  H16Y24341   1.033   0.547  14.484
  196DOPC  C31724342   0.913   0.558  15.024
  196DOPC  H17X24343   0.961   0.640  15.198
  196DOPC  H17Y24344   0.804   0.566  15.081
  196DOPC  C31824345   0.965   0.423  15.177
  196DOPC  H18X24346   0.945   0.339  14.979
  196DOPC  H18Y24347   1.073   0.420  15.210
  196DOPC  H18Z24348   0.923   0.394  15.468
  197DOPC     N24349   1.300   7.369   8.844
  197DOPC   C1224350   1.363   7.429   9.222
  197DOPC  H12A24351   1.287   7.477   9.399
  197DOPC  H12B24352   1.438   7.502   9.135
  197DOPC   C1324353   1.193   7.269   8.943
  197DOPC  H13A24354   1.154   7.222   8.673
  197DOPC  H13B24355   1.233   7.190   9.132
  197DOPC  H13C24356   1.107   7.311   9.096
  197DOPC   C1424357   1.409   7.294   8.625
  197DOPC  H14A24358   1.441   7.209   8.808
  197DOPC  H14B24359   1.376   7.260   8.331
  197DOPC  H14C24360   1.497   7.356   8.589
  197DOPC   C1524361   1.246   7.476   8.586
  197DOPC  H15A24362   1.153   7.516   8.706
  197DOPC  H15B24363   1.227   7.437   8.286
  197DOPC  H15C24364   1.319   7.556   8.544
  197DOPC   C1124365   1.439   7.332   9.495
  197DOPC  H11A24366   1.437   7.373   9.810
  197DOPC  H11B24367   1.383   7.236   9.492
  197DOPC     P24368   1.650   7.200   9.615
  197DOPC   O1324369   1.629   7.227  10.044
  197DOPC   O1424370   1.789   7.188   9.471
  197DOPC   O1224371   1.575   7.315   9.366
  197DOPC   O1124372   1.565   7.076   9.465
  197DOPC    C124373   1.538   6.958   9.690
  197DOPC    HA24374   1.600   6.952   9.966
  197DOPC    HB24375   1.562   6.870   9.504
  197DOPC    C224376   1.388   6.945   9.816
  197DOPC    HS24377   1.332   6.919   9.537
  197DOPC   O2124378   1.342   7.070   9.975
  197DOPC   C2124379   1.213   7.091   9.948
  197DOPC   O2224380   1.131   7.016   9.804
  197DOPC   C2224381   1.186   7.231  10.113
  197DOPC   H2R24382   1.079   7.251  10.125
  197DOPC   H2S24383   1.231   7.307   9.918
  197DOPC    C324384   1.366   6.830  10.125
  197DOPC    HX24385   1.420   6.741  10.008
  197DOPC    HY24386   1.257   6.804  10.128
  197DOPC   O3124387   1.420   6.867  10.515
  197DOPC   C3124388   1.332   6.880  10.815
  197DOPC   O3224389   1.218   6.839  10.806
  197DOPC   C3224390   1.385   6.957  11.181
  197DOPC   H2X24391   1.302   7.025  11.268
  197DOPC   H2Y24392   1.398   6.888  11.436
  197DOPC   C2324393   1.240   7.243  10.536
  197DOPC   H3R24394   1.351   7.251  10.539
  197DOPC   H3S24395   1.211   7.152  10.707
  197DOPC   C2424396   1.178   7.362  10.740
  197DOPC   H4R24397   1.069   7.373  10.665
  197DOPC   H4S24398   1.230   7.455  10.644
  197DOPC   C2524399   1.189   7.341  11.187
  197DOPC   H5R24400   1.166   7.436  11.340
  197DOPC   H5S24401   1.292   7.305  11.259
  197DOPC   C2624402   1.086   7.244  11.352
  197DOPC   H6R24403   1.118   7.141  11.280
  197DOPC   H6S24404   0.986   7.261  11.214
  197DOPC   C2724405   1.075   7.272  11.802
  197DOPC   H7R24406   1.016   7.365  11.850
  197DOPC   H7S24407   1.179   7.292  11.910
  197DOPC   C2824408   1.020   7.158  12.048
  197DOPC   H8R24409   0.921   7.124  11.949
  197DOPC   H8S24410   1.003   7.200  12.354
  197DOPC   C2924411   1.130   7.054  12.027
  197DOPC   H9R24412   1.152   7.011  11.730
  197DOPC  C21024413   1.187   7.001  12.348
  197DOPC  H10R24414   1.265   6.924  12.315
  197DOPC  C21124415   1.146   7.036  12.762
  197DOPC  H11R24416   1.136   6.938  12.906
  197DOPC  H11S24417   1.042   7.073  12.771
  197DOPC  C21224418   1.232   7.120  13.035
  197DOPC  H12R24419   1.193   7.117  13.350
  197DOPC  H12S24420   1.231   7.227  12.954
  197DOPC  C21324421   1.369   7.059  13.077
  197DOPC  H13R24422   1.421   7.132  13.266
  197DOPC  H13S24423   1.418   7.040  12.783
  197DOPC  C21424424   1.361   6.935  13.335
  197DOPC  H14R24425   1.428   6.857  13.224
  197DOPC  H14S24426   1.260   6.893  13.311
  197DOPC  C21524427   1.377   6.961  13.782
  197DOPC  H15R24428   1.315   7.048  13.872
  197DOPC  H15S24429   1.483   6.982  13.860
  197DOPC  C21624430   1.320   6.836  13.980
  197DOPC  H16R24431   1.370   6.746  13.854
  197DOPC  H16S24432   1.212   6.831  13.899
  197DOPC  C21724433   1.328   6.840  14.427
  197DOPC  H17R24434   1.298   6.943  14.511
  197DOPC  H17S24435   1.432   6.821  14.526
  197DOPC  C21824436   1.231   6.746  14.637
  197DOPC  H18R24437   1.252   6.640  14.565
  197DOPC  H18S24438   1.127   6.770  14.550
  197DOPC  H18T24439   1.237   6.758  14.964
  197DOPC   C3324440   1.510   7.043  11.091
  197DOPC   H3X24441   1.474   7.126  10.896
  197DOPC   H3Y24442   1.581   6.984  10.905
  197DOPC   C3424443   1.588   7.102  11.448
  197DOPC   H4X24444   1.526   7.107  11.724
  197DOPC   H4Y24445   1.614   7.206  11.364
  197DOPC   C3524446   1.722   7.027  11.511
  197DOPC   H5X24447   1.768   7.009  11.211
  197DOPC   H5Y24448   1.701   6.931  11.646
  197DOPC   C3624449   1.829   7.090  11.781
  197DOPC   H6X24450   1.862   7.180  11.610
  197DOPC   H6Y24451   1.782   7.117  12.075
  197DOPC   C3724452   1.954   7.004  11.850
  197DOPC   H7X24453   1.920   6.898  11.823
  197DOPC   H7Y24454   2.026   7.024  11.604
  197DOPC   C3824455   2.028   7.013  12.258
  197DOPC   H8X24456   2.075   6.913  12.300
  197DOPC   H8Y24457   1.954   7.015  12.498
  197DOPC   C3924458   2.139   7.113  12.342
  197DOPC   H9X24459   2.234   7.089  12.198
  197DOPC  C31024460   2.135   7.217  12.600
  197DOPC  H10X24461   2.223   7.274  12.678
  197DOPC  C31124462   2.016   7.249  12.849
  197DOPC  H11X24463   1.978   7.158  12.972
  197DOPC  H11Y24464   1.944   7.257  12.627
  197DOPC  C31224465   2.011   7.358  13.179
  197DOPC  H12X24466   1.931   7.435  13.143
  197DOPC  H12Y24467   2.100   7.414  13.095
  197DOPC  C31324468   1.972   7.290  13.590
  197DOPC  H13X24469   1.867   7.320  13.644
  197DOPC  H13Y24470   1.977   7.186  13.545
  197DOPC  C31424471   2.038   7.294  14.007
  197DOPC  H14X24472   2.148   7.285  14.016
  197DOPC  H14Y24473   2.018   7.400  14.031
  197DOPC  C31524474   1.958   7.238  14.388
  197DOPC  H15X24475   1.854   7.255  14.295
  197DOPC  H15Y24476   1.997   7.293  14.655
  197DOPC  C31624477   1.909   7.102  14.565
  197DOPC  H16X24478   1.854   7.042  14.334
  197DOPC  H16Y24479   1.988   7.037  14.697
  197DOPC  C31724480   1.805   7.124  14.892
  197DOPC  H17X24481   1.854   7.160  15.171
  197DOPC  H17Y24482   1.729   7.200  14.802
  197DOPC  C31824483   1.734   6.993  14.967
  197DOPC  H18X24484   1.804   6.907  14.961
  197DOPC  H18Y24485   1.687   6.997  15.264
  197DOPC  H18Z24486   1.656   6.974  14.736
  198DOPC     N24487   7.126   6.725   8.946
  198DOPC   C1224488   7.065   6.612   8.694
  198DOPC  H12A24489   7.118   6.607   8.412
  198DOPC  H12B24490   6.961   6.636   8.622
  198DOPC   C1324491   7.053   6.738   9.336
  198DOPC  H13A24492   6.947   6.749   9.297
  198DOPC  H13B24493   7.064   6.645   9.507
  198DOPC  H13C24494   7.090   6.816   9.528
  198DOPC   C1424495   7.113   6.850   8.706
  198DOPC  H14A24496   7.013   6.862   8.583
  198DOPC  H14B24497   7.129   6.936   8.898
  198DOPC  H14C24498   7.186   6.855   8.469
  198DOPC   C1524499   7.268   6.689   9.054
  198DOPC  H15A24500   7.337   6.685   8.805
  198DOPC  H15B24501   7.267   6.590   9.198
  198DOPC  H15C24502   7.309   6.757   9.279
  198DOPC   C1124503   7.060   6.473   8.889
  198DOPC  H11A24504   7.020   6.399   8.670
  198DOPC  H11B24505   7.161   6.441   8.988
  198DOPC     P24506   6.896   6.376   9.450
  198DOPC   O1324507   6.988   6.298   9.699
  198DOPC   O1424508   6.802   6.314   9.162
  198DOPC   O1224509   6.976   6.485   9.222
  198DOPC   O1124510   6.812   6.477   9.705
  198DOPC    C124511   6.740   6.582   9.504
  198DOPC    HA24512   6.654   6.540   9.330
  198DOPC    HB24513   6.804   6.644   9.309
  198DOPC    C224514   6.686   6.664   9.846
  198DOPC    HS24515   6.778   6.690  10.029
  198DOPC   O2124516   6.595   6.578  10.041
  198DOPC   C2124517   6.630   6.545  10.398
  198DOPC   O2224518   6.743   6.538  10.536
  198DOPC   C2224519   6.499   6.519  10.605
  198DOPC   H2R24520   6.478   6.412  10.602
  198DOPC   H2S24521   6.416   6.557  10.416
  198DOPC    C324522   6.607   6.793   9.804
  198DOPC    HX24523   6.501   6.772   9.720
  198DOPC    HY24524   6.649   6.865   9.585
  198DOPC   O3124525   6.613   6.836  10.212
  198DOPC   C3124526   6.601   6.958  10.338
  198DOPC   O3224527   6.569   7.056  10.143
  198DOPC   C3224528   6.624   6.957  10.788
  198DOPC   H2X24529   6.592   7.055  10.908
  198DOPC   H2Y24530   6.561   6.877  10.917
  198DOPC   C2324531   6.488   6.591  11.013
  198DOPC   H3R24532   6.406   6.549  11.196
  198DOPC   H3S24533   6.456   6.690  10.902
  198DOPC   C2424534   6.612   6.631  11.259
  198DOPC   H4R24535   6.575   6.721  11.418
  198DOPC   H4S24536   6.698   6.664  11.076
  198DOPC   C2524537   6.661   6.538  11.589
  198DOPC   H5R24538   6.627   6.436  11.547
  198DOPC   H5S24539   6.616   6.580  11.868
  198DOPC   C2624540   6.812   6.526  11.652
  198DOPC   H6R24541   6.866   6.542  11.364
  198DOPC   H6S24542   6.835   6.422  11.754
  198DOPC   C2724543   6.853   6.622  11.982
  198DOPC   H7R24544   6.785   6.611  12.246
  198DOPC   H7S24545   6.838   6.724  11.865
  198DOPC   C2824546   6.995   6.598  12.126
  198DOPC   H8R24547   7.054   6.550  11.883
  198DOPC   H8S24548   6.990   6.527  12.384
  198DOPC   C2924549   7.057   6.728  12.234
  198DOPC   H9R24550   7.052   6.804  11.994
  198DOPC  C21024551   7.115   6.763  12.579
  198DOPC  H10R24552   7.163   6.859  12.564
  198DOPC  C21124553   7.136   6.682  12.960
  198DOPC  H11R24554   7.245   6.661  12.987
  198DOPC  H11S24555   7.085   6.584  12.927
  198DOPC  C21224556   7.092   6.736  13.377
  198DOPC  H12R24557   7.158   6.819  13.473
  198DOPC  H12S24558   7.106   6.654  13.599
  198DOPC  C21324559   6.945   6.779  13.398
  198DOPC  H13R24560   6.884   6.696  13.278
  198DOPC  H13S24561   6.928   6.867  13.197
  198DOPC  C21424562   6.893   6.814  13.824
  198DOPC  H14R24563   6.895   6.722  14.010
  198DOPC  H14S24564   6.787   6.846  13.794
  198DOPC  C21524565   6.968   6.925  14.046
  198DOPC  H15R24566   6.983   7.009  13.836
  198DOPC  H15S24567   7.069   6.888  14.136
  198DOPC  C21624568   6.894   6.979  14.418
  198DOPC  H16R24569   6.930   6.928  14.691
  198DOPC  H16S24570   6.785   6.957  14.385
  198DOPC  C21724571   6.909   7.130  14.478
  198DOPC  H17R24572   7.017   7.155  14.496
  198DOPC  H17S24573   6.863   7.156  14.775
  198DOPC  C21824574   6.841   7.211  14.148
  198DOPC  H18R24575   6.824   7.315  14.250
  198DOPC  H18S24576   6.742   7.166  14.073
  198DOPC  H18T24577   6.903   7.213  13.875
  198DOPC   C3324578   6.767   6.923  10.920
  198DOPC   H3X24579   6.835   7.001  10.803
  198DOPC   H3Y24580   6.799   6.824  10.800
  198DOPC   C3424581   6.781   6.920  11.379
  198DOPC   H4X24582   6.882   6.886  11.469
  198DOPC   H4Y24583   6.713   6.848  11.520
  198DOPC   C3524584   6.751   7.054  11.565
  198DOPC   H5X24585   6.644   7.080  11.514
  198DOPC   H5Y24586   6.813   7.132  11.418
  198DOPC   C3624587   6.777   7.049  12.012
  198DOPC   H6X24588   6.835   6.958  12.099
  198DOPC   H6Y24589   6.837   7.137  12.099
  198DOPC   C3724590   6.650   7.060  12.258
  198DOPC   H7X24591   6.683   7.110  12.540
  198DOPC   H7Y24592   6.574   7.123  12.108
  198DOPC   C3824593   6.595   6.924  12.366
  198DOPC   H8X24594   6.681   6.857  12.435
  198DOPC   H8Y24595   6.540   6.877  12.111
  198DOPC   C3924596   6.510   6.954  12.723
  198DOPC   H9X24597   6.438   7.037  12.693
  198DOPC  C31024598   6.513   6.881  13.056
  198DOPC  H10X24599   6.449   6.908  13.314
  198DOPC  C31124600   6.600   6.762  13.104
  198DOPC  H11X24601   6.697   6.796  13.221
  198DOPC  H11Y24602   6.618   6.707  12.819
  198DOPC  C31224603   6.532   6.664  13.389
  198DOPC  H12X24604   6.453   6.608  13.230
  198DOPC  H12Y24605   6.485   6.718  13.644
  198DOPC  C31324606   6.633   6.566  13.563
  198DOPC  H13X24607   6.686   6.514  13.314
  198DOPC  H13Y24608   6.712   6.622  13.725
  198DOPC  C31424609   6.562   6.466  13.839
  198DOPC  H14X24610   6.485   6.413  13.659
  198DOPC  H14Y24611   6.635   6.391  13.947
  198DOPC  C31524612   6.494   6.526  14.211
  198DOPC  H15X24613   6.477   6.444  14.430
  198DOPC  H15Y24614   6.395   6.567  14.127
  198DOPC  C31624615   6.571   6.637  14.421
  198DOPC  H16X24616   6.581   6.727  14.229
  198DOPC  H16Y24617   6.513   6.668  14.691
  198DOPC  C31724618   6.707   6.589  14.550
  198DOPC  H17X24619   6.699   6.488  14.694
  198DOPC  H17Y24620   6.776   6.578  14.292
  198DOPC  C31824621   6.766   6.684  14.850
  198DOPC  H18X24622   6.707   6.685  15.129
  198DOPC  H18Y24623   6.869   6.651  14.910
  198DOPC  H18Z24624   6.769   6.787  14.727
  199DOPC     N24625   6.428   0.293   8.904
  199DOPC   C1224626   6.398   0.442   8.895
  199DOPC  H12A24627   6.399   0.475   8.586
  199DOPC  H12B24628   6.477   0.496   9.054
  199DOPC   C1324629   6.453   0.251   9.327
  199DOPC  H13A24630   6.537   0.307   9.453
  199DOPC  H13B24631   6.368   0.283   9.510
  199DOPC  H13C24632   6.469   0.145   9.354
  199DOPC   C1424633   6.545   0.257   8.646
  199DOPC  H14A24634   6.553   0.149   8.625
  199DOPC  H14B24635   6.533   0.297   8.346
  199DOPC  H14C24636   6.637   0.295   8.775
  199DOPC   C1524637   6.308   0.223   8.736
  199DOPC  H15A24638   6.295   0.250   8.421
  199DOPC  H15B24639   6.219   0.259   8.892
  199DOPC  H15C24640   6.314   0.116   8.757
  199DOPC   C1124641   6.264   0.488   9.087
  199DOPC  H11A24642   6.250   0.598   9.039
  199DOPC  H11B24643   6.179   0.441   8.925
  199DOPC     P24644   6.339   0.547   9.789
  199DOPC   O1324645   6.258   0.667   9.864
  199DOPC   O1424646   6.478   0.562   9.636
  199DOPC   O1224647   6.257   0.452   9.504
  199DOPC   O1124648   6.342   0.463  10.188
  199DOPC    C124649   6.379   0.526  10.554
  199DOPC    HA24650   6.305   0.498  10.788
  199DOPC    HB24651   6.381   0.638  10.539
  199DOPC    C224652   6.519   0.479  10.680
  199DOPC    HS24653   6.593   0.517  10.455
  199DOPC   O2124654   6.517   0.337  10.710
  199DOPC   C2124655   6.591   0.268  10.464
  199DOPC   O2224656   6.663   0.309  10.197
  199DOPC   C2224657   6.582   0.125  10.605
  199DOPC   H2R24658   6.615   0.059  10.356
  199DOPC   H2S24659   6.477   0.101  10.683
  199DOPC    C324660   6.555   0.535  11.097
  199DOPC    HX24661   6.563   0.645  11.076
  199DOPC    HY24662   6.656   0.492  11.169
  199DOPC   O3124663   6.453   0.498  11.382
  199DOPC   C3124664   6.498   0.477  11.748
  199DOPC   O3224665   6.613   0.484  11.856
  199DOPC   C3224666   6.380   0.454  12.027
  199DOPC   H2X24667   6.293   0.415  11.859
  199DOPC   H2Y24668   6.412   0.383  12.264
  199DOPC   C2324669   6.674   0.109  10.971
  199DOPC   H3R24670   6.775   0.150  10.911
  199DOPC   H3S24671   6.681   0.001  11.025
  199DOPC   C2424672   6.622   0.160  11.373
  199DOPC   H4R24673   6.603   0.269  11.364
  199DOPC   H4S24674   6.701   0.142  11.604
  199DOPC   C2524675   6.496   0.083  11.499
  199DOPC   H5R24676   6.510  -0.026  11.445
  199DOPC   H5S24677   6.410   0.116  11.313
  199DOPC   C2624678   6.467   0.105  11.940
  199DOPC   H6R24679   6.460   0.213  11.985
  199DOPC   H6S24680   6.551   0.069  12.132
  199DOPC   C2724681   6.336   0.042  12.081
  199DOPC   H7R24682   6.356  -0.064  12.165
  199DOPC   H7S24683   6.262   0.040  11.832
  199DOPC   C2824684   6.284   0.123  12.441
  199DOPC   H8R24685   6.371   0.171  12.594
  199DOPC   H8S24686   6.242   0.055  12.660
  199DOPC   C2924687   6.179   0.224  12.333
  199DOPC   H9R24688   6.170   0.247  12.009
  199DOPC  C21024689   6.095   0.281  12.597
  199DOPC  H10R24690   6.022   0.356  12.489
  199DOPC  C21124691   6.092   0.253  13.041
  199DOPC  H11R24692   6.145   0.158  13.116
  199DOPC  H11S24693   5.986   0.235  13.125
  199DOPC  C21224694   6.147   0.361  13.326
  199DOPC  H12R24695   6.098   0.347  13.623
  199DOPC  H12S24696   6.118   0.461  13.215
  199DOPC  C21324697   6.299   0.360  13.410
  199DOPC  H13R24698   6.323   0.455  13.569
  199DOPC  H13S24699   6.360   0.356  13.134
  199DOPC  C21424700   6.341   0.244  13.677
  199DOPC  H14R24701   6.332   0.151  13.506
  199DOPC  H14S24702   6.273   0.238  13.938
  199DOPC  C21524703   6.483   0.253  13.827
  199DOPC  H15R24704   6.552   0.260  13.563
  199DOPC  H15S24705   6.510   0.160  13.989
  199DOPC  C21624706   6.502   0.373  14.100
  199DOPC  H16R24707   6.505   0.466  13.920
  199DOPC  H16S24708   6.602   0.354  14.226
  199DOPC  C21724709   6.411   0.392  14.463
  199DOPC  H17R24710   6.304   0.372  14.403
  199DOPC  H17S24711   6.419   0.500  14.547
  199DOPC  C21824712   6.462   0.316  14.832
  199DOPC  H18R24713   6.423   0.364  15.108
  199DOPC  H18S24714   6.572   0.320  14.847
  199DOPC  H18T24715   6.430   0.210  14.820
  199DOPC   C3324716   6.347   0.585  12.237
  199DOPC   H3X24717   6.303   0.657  12.021
  199DOPC   H3Y24718   6.443   0.622  12.366
  199DOPC   C3424719   6.249   0.576  12.582
  199DOPC   H4X24720   6.280   0.489  12.762
  199DOPC   H4Y24721   6.148   0.556  12.462
  199DOPC   C3524722   6.248   0.701  12.852
  199DOPC   H5X24723   6.163   0.689  13.062
  199DOPC   H5Y24724   6.227   0.791  12.669
  199DOPC   C3624725   6.377   0.725  13.092
  199DOPC   H6X24726   6.407   0.630  13.239
  199DOPC   H6Y24727   6.454   0.754  12.870
  199DOPC   C3724728   6.367   0.838  13.407
  199DOPC   H7X24729   6.317   0.926  13.275
  199DOPC   H7Y24730   6.299   0.799  13.644
  199DOPC   C3824731   6.497   0.884  13.638
  199DOPC   H8X24732   6.528   0.795  13.812
  199DOPC   H8Y24733   6.458   0.960  13.851
  199DOPC   C3924734   6.625   0.944  13.479
  199DOPC   H9X24735   6.650   1.046  13.581
  199DOPC  C31024736   6.712   0.878  13.248
  199DOPC  H10X24737   6.803   0.929  13.143
  199DOPC  C31124738   6.693   0.735  13.116
  199DOPC  H11X24739   6.676   0.732  12.786
  199DOPC  H11Y24740   6.605   0.692  13.269
  199DOPC  C31224741   6.794   0.626  13.212
  199DOPC  H12X24742   6.891   0.644  13.068
  199DOPC  H12Y24743   6.749   0.531  13.107
  199DOPC  C31324744   6.816   0.609  13.656
  199DOPC  H13X24745   6.918   0.644  13.722
  199DOPC  H13Y24746   6.743   0.678  13.797
  199DOPC  C31424747   6.804   0.464  13.803
  199DOPC  H14X24748   6.712   0.418  13.686
  199DOPC  H14Y24749   6.890   0.403  13.707
  199DOPC  C31524750   6.823   0.451  14.250
  199DOPC  H15X24751   6.932   0.462  14.307
  199DOPC  H15Y24752   6.798   0.349  14.355
  199DOPC  C31624753   6.746   0.558  14.481
  199DOPC  H16X24754   6.746   0.660  14.355
  199DOPC  H16Y24755   6.639   0.532  14.511
  199DOPC  C31724756   6.813   0.575  14.880
  199DOPC  H17X24757   6.875   0.486  14.940
  199DOPC  H17Y24758   6.879   0.665  14.859
  199DOPC  C31824759   6.709   0.591  15.201
  199DOPC  H18X24760   6.757   0.577  15.495
  199DOPC  H18Y24761   6.661   0.691  15.183
  199DOPC  H18Z24762   6.629   0.514  15.171
  200DOPC     N24763   1.202   0.204   8.811
  200DOPC   C1224764   1.204   0.354   8.904
  200DOPC  H12A24765   1.155   0.403   8.649
  200DOPC  H12B24766   1.306   0.389   8.925
  200DOPC   C1324767   1.253   0.124   9.159
  200DOPC  H13A24768   1.193   0.147   9.423
  200DOPC  H13B24769   1.244   0.018   9.111
  200DOPC  H13C24770   1.356   0.146   9.228
  200DOPC   C1424771   1.279   0.181   8.436
  200DOPC  H14A24772   1.385   0.195   8.487
  200DOPC  H14B24773   1.263   0.080   8.322
  200DOPC  H14C24774   1.249   0.249   8.199
  200DOPC   C1524775   1.064   0.149   8.727
  200DOPC  H15A24776   1.017   0.192   8.463
  200DOPC  H15B24777   0.997   0.172   8.979
  200DOPC  H15C24778   1.062   0.042   8.700
  200DOPC   C1124779   1.128   0.405   9.273
  200DOPC  H11A24780   1.179   0.380   9.561
  200DOPC  H11B24781   1.112   0.515   9.264
  200DOPC     P24782   0.880   0.340   9.495
  200DOPC   O1324783   0.827   0.202   9.501
  200DOPC   O1424784   0.793   0.450   9.357
  200DOPC   O1224785   1.006   0.342   9.231
  200DOPC   O1124786   0.945   0.368   9.921
  200DOPC    C124787   1.005   0.255  10.119
  200DOPC    HA24788   1.090   0.291  10.302
  200DOPC    HB24789   1.050   0.181   9.909
  200DOPC    C224790   0.902   0.182  10.389
  200DOPC    HS24791   0.801   0.188  10.245
  200DOPC   O2124792   0.902   0.251  10.770
  200DOPC   C2124793   0.843   0.206  11.100
  200DOPC   O2224794   0.790   0.099  11.145
  200DOPC   C2224795   0.858   0.313  11.427
  200DOPC   H2R24796   0.770   0.379  11.409
  200DOPC   H2S24797   0.946   0.373  11.343
  200DOPC    C324798   0.941   0.032  10.410
  200DOPC    HX24799   0.945  -0.005  10.092
  200DOPC    HY24800   0.862  -0.026  10.566
  200DOPC   O3124801   1.072   0.018  10.581
  200DOPC   C3124802   1.066  -0.024  10.959
  200DOPC   O3224803   0.985  -0.101  11.100
  200DOPC   C3224804   1.173   0.046  11.199
  200DOPC   H2X24805   1.161   0.019  11.520
  200DOPC   H2Y24806   1.265   0.000  11.097
  200DOPC   C2324807   0.873   0.270  11.874
  200DOPC   H3R24808   0.773   0.253  12.006
  200DOPC   H3S24809   0.919   0.355  12.042
  200DOPC   C2424810   0.958   0.146  11.955
  200DOPC   H4R24811   1.052   0.175  12.111
  200DOPC   H4S24812   0.984   0.097  11.670
  200DOPC   C2524813   0.887   0.040  12.204
  200DOPC   H5R24814   0.834  -0.025  11.985
  200DOPC   H5S24815   0.815   0.089  12.408
  200DOPC   C2624816   0.982  -0.041  12.468
  200DOPC   H6R24817   1.071  -0.071  12.291
  200DOPC   H6S24818   0.931  -0.133  12.570
  200DOPC   C2724819   1.021   0.044  12.834
  200DOPC   H7R24820   0.935   0.050  13.047
  200DOPC   H7S24821   1.038   0.146  12.723
  200DOPC   C2824822   1.145   0.000  13.062
  200DOPC   H8R24823   1.153   0.057  13.347
  200DOPC   H8S24824   1.237   0.026  12.888
  200DOPC   C2924825   1.136  -0.148  13.125
  200DOPC   H9R24826   1.160  -0.205  12.852
  200DOPC  C21024827   1.097  -0.216  13.449
  200DOPC  H10R24828   1.095  -0.326  13.431
  200DOPC  C21124829   1.049  -0.158  13.836
  200DOPC  H11R24830   0.958  -0.211  13.932
  200DOPC  H11S24831   1.013  -0.056  13.773
  200DOPC  C21224832   1.131  -0.164  14.226
  200DOPC  H12R24833   1.240  -0.176  14.193
  200DOPC  H12S24834   1.097  -0.250  14.415
  200DOPC  C21324835   1.114  -0.033  14.448
  200DOPC  H13R24836   1.183  -0.038  14.703
  200DOPC  H13S24837   1.015  -0.031  14.592
  200DOPC  C21424838   1.152   0.088  14.181
  200DOPC  H14R24839   1.073   0.126  13.992
  200DOPC  H14S24840   1.228   0.053  13.968
  200DOPC  C21524841   1.219   0.200  14.409
  200DOPC  H15R24842   1.279   0.137  14.592
  200DOPC  H15S24843   1.147   0.255  14.601
  200DOPC  C21624844   1.320   0.285  14.181
  200DOPC  H16R24845   1.351   0.376  14.331
  200DOPC  H16S24846   1.267   0.322  13.908
  200DOPC  C21724847   1.459   0.225  14.073
  200DOPC  H17R24848   1.466   0.304  13.854
  200DOPC  H17S24849   1.455   0.133  13.890
  200DOPC  C21824850   1.596   0.248  14.292
  200DOPC  H18R24851   1.669   0.301  14.100
  200DOPC  H18S24852   1.651   0.153  14.337
  200DOPC  H18T24853   1.593   0.307  14.571
  200DOPC   C3324854   1.171   0.198  11.136
  200DOPC   H3X24855   1.089   0.241  11.313
  200DOPC   H3Y24856   1.156   0.226  10.818
  200DOPC   C3424857   1.293   0.271  11.280
  200DOPC   H4X24858   1.282   0.380  11.217
  200DOPC   H4Y24859   1.382   0.235  11.118
  200DOPC   C3524860   1.316   0.244  11.721
  200DOPC   H5X24861   1.392   0.164  11.757
  200DOPC   H5Y24862   1.221   0.206  11.847
  200DOPC   C3624863   1.354   0.365  11.970
  200DOPC   H6X24864   1.456   0.399  11.892
  200DOPC   H6Y24865   1.283   0.449  11.928
  200DOPC   C3724866   1.353   0.317  12.402
  200DOPC   H7X24867   1.382   0.209  12.411
  200DOPC   H7Y24868   1.431   0.372  12.561
  200DOPC   C3824869   1.221   0.339  12.624
  200DOPC   H8X24870   1.212   0.256  12.843
  200DOPC   H8Y24871   1.136   0.333  12.411
  200DOPC   C3924872   1.223   0.469  12.846
  200DOPC   H9X24873   1.323   0.512  12.894
  200DOPC  C31024874   1.116   0.535  12.990
  200DOPC  H10X24875   1.131   0.634  13.122
  200DOPC  C31124876   0.974   0.491  12.963
  200DOPC  H11X24877   0.946   0.474  12.645
  200DOPC  H11Y24878   0.907   0.571  13.077
  200DOPC  C31224879   0.950   0.362  13.203
  200DOPC  H12X24880   1.027   0.287  13.131
  200DOPC  H12Y24881   0.852   0.319  13.110
  200DOPC  C31324882   0.953   0.378  13.659
  200DOPC  H13X24883   1.059   0.375  13.761
  200DOPC  H13Y24884   0.912   0.477  13.740
  200DOPC  C31424885   0.874   0.267  13.863
  200DOPC  H14X24886   0.774   0.264  13.743
  200DOPC  H14Y24887   0.909   0.167  13.782
  200DOPC  C31524888   0.859   0.287  14.313
  200DOPC  H15X24889   0.786   0.369  14.349
  200DOPC  H15Y24890   0.959   0.318  14.418
  200DOPC  C31624891   0.805   0.164  14.535
  200DOPC  H16X24892   0.712   0.140  14.379
  200DOPC  H16Y24893   0.873   0.082  14.481
  200DOPC  C31724894   0.762   0.175  14.976
  200DOPC  H17X24895   0.709   0.082  15.069
  200DOPC  H17Y24896   0.850   0.179  15.177
  200DOPC  C31824897   0.671   0.296  15.045
  200DOPC  H18X24898   0.665   0.323  15.366
  200DOPC  H18Y24899   0.711   0.384  14.889
  200DOPC  H18Z24900   0.569   0.276  14.919
  201SOD    SOD24901   7.232   1.902  22.587
  202SOD    SOD24902   6.580   6.403   7.407
  203SOD    SOD24903   7.052   1.849  29.883
  204SOD    SOD24904   7.373   6.963  -0.054
  205SOD    SOD24905   6.185   3.149  29.142
  206SOD    SOD24906   2.714   2.568   4.344
  207SOD    SOD24907   1.628   1.192   6.066
  208SOD    SOD24908   3.731   3.191  26.376
  209SOD    SOD24909   1.069   2.707   7.986
  210SOD    SOD24910   4.706   0.718  21.741
  211SOD    SOD24911   2.359   2.549  27.873
  212SOD    SOD24912   0.548   5.029  27.582
  213SOD    SOD24913   2.469   5.577   0.093
  214SOD    SOD24914   2.312   3.229  26.451
  215SOD    SOD24915   6.657   5.096  28.110
  216SOD    SOD24916   1.904   5.698  25.695
  217SOD    SOD24917   0.947   2.670   4.470
  218SOD    SOD24918   5.921   4.122  28.170
  219SOD    SOD24919   7.093   2.841  28.947
  220SOD    SOD24920   4.025   2.158   1.785
  221SOD    SOD24921   0.338   7.032   3.876
  222SOD    SOD24922   4.931   5.409  24.267
  223SOD    SOD24923   2.802   6.096   4.593
  224SOD    SOD24924   0.384   4.700   2.223
  225SOD    SOD24925   3.101   2.126   4.650
  226SOD    SOD24926   0.881   7.293  28.143
  227CLA    CLA24927   6.017   3.624   4.620
  228CLA    CLA24928   4.970   4.893   0.360
  229CLA    CLA24929   0.455   4.669   5.742
  230CLA    CLA24930   5.826   3.096  24.381
  231CLA    CLA24931   4.588   6.648  29.697
  232CLA    CLA24932   4.703   2.804  29.196
  233CLA    CLA24933   4.592   1.257  24.600
  234CLA    CLA24934   6.232   5.713  27.066
  235CLA    CLA24935   1.470   0.681   0.273
  236CLA    CLA24936   2.691   0.600  25.527
  237CLA    CLA24937   2.522   2.126  23.172
  238CLA    CLA24938   5.286   1.444   5.199
  239CLA    CLA24939   7.302   0.712   6.612
  240CLA    CLA24940   6.433   4.039  21.477
  241CLA    CLA24941   4.859   7.277   7.176
  242CLA    CLA24942   5.226   3.184  24.648
  243CLA    CLA24943   0.806   0.662   4.701
  244CLA    CLA24944   3.430   2.502   6.249
  245CLA    CLA24945   7.168   6.374   6.042
  246CLA    CLA24946   1.099   0.767  29.202
  247CLA    CLA24947   4.101   0.760   4.728
  248CLA    CLA24948   4.539   4.452   5.589
  249CLA    CLA24949   1.901   6.194   5.727
  250CLA    CLA24950   4.613   2.815  26.352
  251CLA    CLA24951   1.272   3.287  23.919
  252CLA    CLA24952   0.657   2.299   7.134
  253TIP3   OH224953   4.100   4.888  20.895
  253TIP3    H124954   4.097   4.800  20.769
  253TIP3    H224955   4.160   4.874  21.117
  254TIP3   OH224956   4.100   4.471  21.447
  254TIP3    H124957   4.027   4.514  21.588
  254TIP3    H224958   4.091   4.507  21.180
  255TIP3   OH224959   2.844   4.425  20.931
  255TIP3    H124960   2.870   4.495  21.114
  255TIP3    H224961   2.778   4.470  20.763
  256TIP3   OH224962   2.523   4.750  21.153
  256TIP3    H124963   2.442   4.759  21.000
  256TIP3    H224964   2.487   4.724  21.414
  257TIP3   OH224965   2.313   2.854  20.982
  257TIP3    H124966   2.332   2.903  21.225
  257TIP3    H224967   2.397   2.862  20.838
  258TIP3   OH224968   6.046   4.052  21.606
  258TIP3    H124969   6.077   4.142  21.549
  258TIP3    H224970   6.088   4.001  21.390
  259TIP3   OH224971   5.817   4.040  20.673
  259TIP3    H124972   5.888   4.102  20.604
  259TIP3    H224973   5.763   4.034  20.436
  260TIP3   OH224974   6.190   3.920  21.051
  260TIP3    H124975   6.271   3.939  21.207
  260TIP3    H224976   6.210   3.835  20.922
  261TIP3   OH224977   1.656   2.476  21.072
  261TIP3    H124978   1.723   2.463  20.868
  261TIP3    H224979   1.579   2.499  20.916
  262TIP3   OH224980   6.246   2.379  21.177
  262TIP3    H124981   6.174   2.398  20.985
  262TIP3    H224982   6.251   2.283  21.189
  263TIP3   OH224983   5.818   2.546  20.961
  263TIP3    H124984   5.831   2.635  21.069
  263TIP3    H224985   5.758   2.561  20.739
  264TIP3   OH224986   2.910   6.312  21.180
  264TIP3    H124987   2.911   6.274  21.447
  264TIP3    H224988   2.821   6.354  21.177
  265TIP3   OH224989   2.758   6.056  20.925
  265TIP3    H124990   2.712   6.006  21.135
  265TIP3    H224991   2.832   6.093  21.069
  266TIP3   OH224992   2.661   6.506  21.135
  266TIP3    H124993   2.630   6.597  21.078
  266TIP3    H224994   2.643   6.460  20.880
  267TIP3   OH224995   1.358   5.770  21.390
  267TIP3    H124996   1.398   5.683  21.357
  267TIP3    H224997   1.369   5.815  21.132
  268TIP3   OH224998   1.057   5.606  21.102
  268TIP3    H124999   1.124   5.572  21.285
  268TIP3    H225000   1.095   5.690  21.021
  269TIP3   OH225001   1.237   5.458  21.516
  269TIP3    H125002   1.242   5.447  21.225
  269TIP3    H225003   1.282   5.379  21.618
  270TIP3   OH225004   1.216   5.207  20.883
  270TIP3    H125005   1.176   5.221  21.144
  270TIP3    H225006   1.213   5.110  20.856
  271TIP3   OH225007   3.425   0.652  21.318
  271TIP3    H125008   3.408   0.742  21.417
  271TIP3    H225009   3.348   0.600  21.408
  272TIP3   OH225010   0.637   5.345  21.162
  272TIP3    H125011   0.668   5.254  21.150
  272TIP3    H225012   0.626   5.370  20.883
  273TIP3   OH225013   5.574   7.065  21.030
  273TIP3    H125014   5.488   7.107  20.970
  273TIP3    H225015   5.638   7.133  20.976
  274TIP3   OH225016   1.899   0.469  21.009
  274TIP3    H125017   1.914   0.454  21.294
  274TIP3    H225018   1.986   0.447  20.904
  275TIP3   OH225019   2.644   0.082  21.216
  275TIP3    H125020   2.727   0.110  21.333
  275TIP3    H225021   2.580   0.123  21.399
  276TIP3   OH225022   2.397   0.365  21.357
  276TIP3    H125023   2.433   0.442  21.492
  276TIP3    H225024   2.460   0.354  21.138
  277TIP3   OH225025   5.295   0.169  21.363
  277TIP3    H125026   5.254   0.147  21.108
  277TIP3    H225027   5.313   0.263  21.330
  278TIP3   OH225028   5.434   0.575  20.901
  278TIP3    H125029   5.468   0.606  20.649
  278TIP3    H225030   5.374   0.646  20.976
  279TIP3   OH225031   7.202   1.836  20.949
  279TIP3    H125032   7.119   1.835  20.802
  279TIP3    H225033   7.239   1.923  20.880
  280TIP3   OH225034   7.491   1.693  21.549
  280TIP3    H125035   7.524   1.761  21.366
  280TIP3    H225036   7.497   1.615  21.375
  281TIP3   OH225037   7.404   1.079  20.109
  281TIP3    H125038   7.421   1.151  20.295
  281TIP3    H225039   7.478   1.022  20.199
  282TIP3   OH225040   1.011   0.248  21.069
  282TIP3    H125041   0.935   0.189  21.042
  282TIP3    H225042   1.024   0.251  21.357
  283TIP3   OH225043   1.477   0.487  20.679
  283TIP3    H125044   1.443   0.423  20.874
  283TIP3    H225045   1.420   0.465  20.454
  284TIP3   OH225046   4.147   3.660   8.739
  284TIP3    H125047   4.217   3.606   8.856
  284TIP3    H225048   4.168   3.746   8.856
  285TIP3   OH225049   4.468   3.969   8.787
  285TIP3    H125050   4.424   4.019   8.577
  285TIP3    H225051   4.561   3.975   8.703
  286TIP3   OH225052   5.002   3.709   9.081
  286TIP3    H125053   5.054   3.783   9.192
  286TIP3    H225054   5.062   3.634   9.108
  287TIP3   OH225055   4.837   4.067   9.030
  287TIP3    H125056   4.916   4.115   8.952
  287TIP3    H225057   4.781   4.135   9.147
  288TIP3   OH225058   3.231   5.227   9.159
  288TIP3    H125059   3.225   5.131   9.159
  288TIP3    H225060   3.146   5.251   9.030
  289TIP3   OH225061   3.790   5.282   8.928
  289TIP3    H125062   3.757   5.369   8.856
  289TIP3    H225063   3.721   5.253   9.117
  290TIP3   OH225064   4.552   5.418   8.970
  290TIP3    H125065   4.511   5.338   9.078
  290TIP3    H225066   4.578   5.463   9.216
  291TIP3   OH225067   4.328   5.018   8.847
  291TIP3    H125068   4.258   4.953   8.790
  291TIP3    H225069   4.407   4.962   8.823
  292TIP3   OH225070   2.945   5.228   8.850
  292TIP3    H125071   2.871   5.289   8.904
  292TIP3    H225072   2.902   5.141   8.859
  293TIP3   OH225073   2.383   5.289   8.625
  293TIP3    H125074   2.399   5.195   8.568
  293TIP3    H225075   2.418   5.295   8.895
  294TIP3   OH225076   2.583   5.495   9.231
  294TIP3    H125077   2.592   5.458   8.964
  294TIP3    H225078   2.596   5.415   9.399
  295TIP3   OH225079   2.527   5.065   8.751
  295TIP3    H125080   2.500   4.975   8.823
  295TIP3    H225081   2.598   5.048   8.562
  296TIP3   OH225082   2.670   5.337   8.460
  296TIP3    H125083   2.698   5.307   8.196
  296TIP3    H225084   2.578   5.306   8.478
  297TIP3   OH225085   2.446   1.624   9.447
  297TIP3    H125086   2.503   1.565   9.291
  297TIP3    H225087   2.515   1.657   9.633
  298TIP3   OH225088   2.526   1.910   9.480
  298TIP3    H125089   2.521   1.842   9.279
  298TIP3    H225090   2.515   1.860   9.726
  299TIP3   OH225091   1.927   1.517   9.024
  299TIP3    H125092   1.846   1.481   8.907
  299TIP3    H225093   1.999   1.486   8.844
  300TIP3   OH225094   2.160   1.473   8.631
  300TIP3    H125095   2.221   1.548   8.676
  300TIP3    H225096   2.200   1.397   8.766
  301TIP3   OH225097   1.991   1.981   8.838
  301TIP3    H125098   2.021   1.918   9.039
  301TIP3    H225099   1.972   2.061   8.985
  302TIP3   OH225100   2.309   1.718   8.799
  302TIP3    H125101   2.239   1.752   8.973
  302TIP3    H225102   2.375   1.692   9.000
  303TIP3   OH225103   5.822   6.047   8.811
  303TIP3    H125104   5.761   6.090   8.625
  303TIP3    H225105   5.897   6.107   8.802
  304TIP3   OH225106   2.835   6.587   8.829
  304TIP3    H125107   2.889   6.627   8.619
  304TIP3    H225108   2.872   6.499   8.859
  305TIP3   OH225109   2.371   6.727   9.279
  305TIP3    H125110   2.423   6.645   9.306
  305TIP3    H225111   2.307   6.705   9.078
  306TIP3   OH225112   0.800   5.481   9.027
  306TIP3    H125113   0.797   5.569   9.156
  306TIP3    H225114   0.875   5.437   9.144
  307TIP3   OH225115   0.588   5.132   8.742
  307TIP3    H125116   0.682   5.120   8.799
  307TIP3    H225117   0.558   5.041   8.757
  308TIP3   OH225118   0.810   4.934   8.712
  308TIP3    H125119   0.905   4.931   8.742
  308TIP3    H225120   0.781   4.844   8.784
  309TIP3   OH225121   3.988   7.252   8.991
  309TIP3    H125122   3.936   7.184   9.129
  309TIP3    H225123   4.061   7.200   8.883
  310TIP3   OH225124   3.628   7.220   8.754
  310TIP3    H125125   3.619   7.262   8.493
  310TIP3    H225126   3.551   7.256   8.889
  311TIP3   OH225127   1.033   2.398   8.700
  311TIP3    H125128   1.055   2.316   8.550
  311TIP3    H225129   1.114   2.450   8.694
  312TIP3   OH225130   0.691   2.494   8.607
  312TIP3    H125131   0.682   2.409   8.472
  312TIP3    H225132   0.680   2.469   8.886
  313TIP3   OH225133   7.057   2.560   8.415
  313TIP3    H125134   7.140   2.516   8.472
  313TIP3    H225135   6.999   2.516   8.607
  314TIP3   OH225136   6.723   2.295   9.126
  314TIP3    H125137   6.683   2.217   9.243
  314TIP3    H225138   6.742   2.264   8.856
  315TIP3   OH225139   6.789   2.825   9.228
  315TIP3    H125140   6.821   2.737   9.303
  315TIP3    H225141   6.713   2.839   9.402
  316TIP3   OH225142   5.492   0.234   8.844
  316TIP3    H125143   5.419   0.177   8.766
  316TIP3    H225144   5.452   0.295   9.039
  317TIP3   OH225145   5.748   0.237   9.120
  317TIP3    H125146   5.735   0.143   9.078
  317TIP3    H225147   5.664   0.273   9.015
  318TIP3   OH225148   5.931   0.441   8.985
  318TIP3    H125149   5.843   0.412   9.066
  318TIP3    H225150   5.967   0.484   9.225
  319TIP3   OH225151   6.971   1.192   8.721
  319TIP3    H125152   6.911   1.186   8.952
  319TIP3    H225153   6.942   1.119   8.559
  320TIP3   OH225154   0.245   6.720   8.676
  320TIP3    H125155   0.267   6.814   8.703
  320TIP3    H225156   0.244   6.691   8.952
  321TIP3   OH225157   7.312   0.281   8.925
  321TIP3    H125158   7.252   0.231   8.739
  321TIP3    H225159   7.383   0.299   8.739
  322TIP3   OH225160   6.999   0.390   8.718
  322TIP3    H125161   7.019   0.300   8.628
  322TIP3    H225162   7.048   0.400   8.967
  323TIP3   OH225163   1.214   1.010  23.043
  323TIP3    H125164   1.216   1.101  23.151
  323TIP3    H225165   1.147   1.018  22.833
  324TIP3   OH225166   1.106   0.887  24.087
  324TIP3    H125167   1.107   0.852  24.366
  324TIP3    H225168   1.062   0.813  23.943
  325TIP3   OH225169   0.341   0.918  24.615
  325TIP3    H125170   0.299   0.842  24.750
  325TIP3    H225171   0.413   0.938  24.801
  326TIP3   OH225172   1.419   1.202  23.634
  326TIP3    H125173   1.406   1.131  23.829
  326TIP3    H225174   1.433   1.277  23.811
  327TIP3   OH225175   0.371   1.352  24.057
  327TIP3    H125176   0.350   1.260  23.967
  327TIP3    H225177   0.467   1.346  24.048
  328TIP3   OH225178   0.143   0.757  22.599
  328TIP3    H125179   0.050   0.725  22.596
  328TIP3    H225180   0.193   0.676  22.533
  329TIP3   OH225181   0.171   0.936  23.469
  329TIP3    H125182   0.166   0.843  23.550
  329TIP3    H225183   0.176   0.929  23.178
  330TIP3   OH225184   1.188   1.756  23.586
  330TIP3    H125185   1.257   1.699  23.460
  330TIP3    H225186   1.147   1.689  23.757
  331TIP3   OH225187   0.923   1.207  24.282
  331TIP3    H125188   0.958   1.135  24.120
  331TIP3    H225189   1.003   1.225  24.450
  332TIP3   OH225190   1.787   0.300  24.321
  332TIP3    H125191   1.800   0.380  24.486
  332TIP3    H225192   1.851   0.318  24.108
  333TIP3   OH225193   1.287   0.631  24.390
  333TIP3    H125194   1.306   0.538  24.456
  333TIP3    H225195   1.264   0.622  24.108
  334TIP3   OH225196   1.328   0.417  22.962
  334TIP3    H125197   1.379   0.393  23.202
  334TIP3    H225198   1.388   0.484  22.857
  335TIP3   OH225199   0.199   0.655  23.685
  335TIP3    H125200   0.288   0.627  23.754
  335TIP3    H225201   0.185   0.615  23.424
  336TIP3   OH225202   1.806   0.475  24.999
  336TIP3    H125203   1.761   0.562  24.966
  336TIP3    H225204   1.804   0.462  25.287
  337TIP3   OH225205   0.449   0.331  24.747
  337TIP3    H125206   0.421   0.388  24.531
  337TIP3    H225207   0.376   0.344  24.942
  338TIP3   OH225208   1.150   1.283  22.728
  338TIP3    H125209   1.097   1.278  22.485
  338TIP3    H225210   1.134   1.377  22.797
  339TIP3   OH225211   0.725   1.094  24.717
  339TIP3    H125212   0.668   1.166  24.813
  339TIP3    H225213   0.788   1.144  24.546
  340TIP3   OH225214   1.514   0.418  23.517
  340TIP3    H125215   1.488   0.404  23.793
  340TIP3    H225216   1.608   0.434  23.550
  341TIP3   OH225217   0.565   1.311  24.921
  341TIP3    H125218   0.562   1.381  24.723
  341TIP3    H225219   0.472   1.309  25.011
  342TIP3   OH225220   0.087   1.236  22.407
  342TIP3    H125221   0.124   1.218  22.146
  342TIP3    H225222   0.161   1.277  22.548
  343TIP3   OH225223   1.519   1.405  24.231
  343TIP3    H125224   1.427   1.424  24.315
  343TIP3    H225225   1.539   1.488  24.090
  344TIP3   OH225226   1.567   0.214  24.726
  344TIP3    H125227   1.506   0.242  24.516
  344TIP3    H225228   1.651   0.220  24.573
  345TIP3   OH225229   0.875   0.116  23.853
  345TIP3    H125230   0.852   0.025  23.940
  345TIP3    H225231   0.799   0.167  23.955
  346TIP3   OH225232   1.349   1.583  23.241
  346TIP3    H125233   1.363   1.503  23.076
  346TIP3    H225234   1.435   1.630  23.199
  347TIP3   OH225235   1.462   1.378  22.779
  347TIP3    H125236   1.447   1.315  22.560
  347TIP3    H225237   1.438   1.322  23.007
  348TIP3   OH225238   1.614   1.247  25.392
  348TIP3    H125239   1.634   1.177  25.191
  348TIP3    H225240   1.627   1.326  25.221
  349TIP3   OH225241   1.081   0.943  22.305
  349TIP3    H125242   1.016   1.000  22.167
  349TIP3    H225243   1.155   0.937  22.119
  350TIP3   OH225244   1.100   0.809  21.393
  350TIP3    H125245   1.182   0.812  21.546
  350TIP3    H225246   1.137   0.840  21.135
  351TIP3   OH225247   1.819   0.897  24.783
  351TIP3    H125248   1.751   0.966  24.738
  351TIP3    H225249   1.878   0.917  24.555
  352TIP3   OH225250   1.433   0.940  22.611
  352TIP3    H125251   1.359   0.958  22.797
  352TIP3    H225252   1.500   0.899  22.791
  353TIP3   OH225253   1.402   0.749  25.350
  353TIP3    H125254   1.385   0.842  25.425
  353TIP3    H225255   1.337   0.740  25.131
  354TIP3   OH225256   0.596   1.022  23.136
  354TIP3    H125257   0.546   1.004  22.887
  354TIP3    H225258   0.643   0.940  23.181
  355TIP3   OH225259   0.714   1.334  23.958
  355TIP3    H125260   0.715   1.316  23.673
  355TIP3    H225261   0.795   1.291  24.060
  356TIP3   OH225262   0.632   0.892  24.234
  356TIP3    H125263   0.664   0.940  24.003
  356TIP3    H225264   0.633   0.962  24.441
  357TIP3   OH225265   1.269   1.453  24.471
  357TIP3    H125266   1.256   1.523  24.672
  357TIP3    H225267   1.219   1.379  24.591
  358TIP3   OH225268   0.706   1.334  25.617
  358TIP3    H125269   0.633   1.374  25.779
  358TIP3    H225270   0.661   1.323  25.356
  359TIP3   OH225271   1.318   0.876  21.903
  359TIP3    H125272   1.367   0.908  22.146
  359TIP3    H225273   1.359   0.930  21.693
  360TIP3   OH225274   0.456   0.959  25.359
  360TIP3    H125275   0.438   1.035  25.536
  360TIP3    H225276   0.365   0.927  25.317
  361TIP3   OH225277   1.062   1.585  22.800
  361TIP3    H125278   1.065   1.612  23.076
  361TIP3    H225279   1.031   1.667  22.668
  362TIP3   OH225280   0.527   1.509  25.905
  362TIP3    H125281   0.520   1.533  25.620
  362TIP3    H225282   0.433   1.511  25.983
  363TIP3   OH225283   1.683   0.096  21.873
  363TIP3    H125284   1.624   0.152  22.035
  363TIP3    H225285   1.672   0.139  21.618
  364TIP3   OH225286   0.478   0.912  22.461
  364TIP3    H125287   0.419   0.976  22.335
  364TIP3    H225288   0.441   0.829  22.362
  365TIP3   OH225289   0.168   1.147  25.179
  365TIP3    H125290   0.079   1.158  25.062
  365TIP3    H225291   0.166   1.052  25.251
  366TIP3   OH225292   0.132   1.463  24.135
  366TIP3    H125293   0.207   1.400  24.129
  366TIP3    H225294   0.166   1.521  24.351
  367TIP3   OH225295   1.881   1.490  25.884
  367TIP3    H125296   1.867   1.397  25.815
  367TIP3    H225297   1.791   1.510  25.986
  368TIP3   OH225298   0.957   1.435  25.584
  368TIP3    H125299   0.963   1.512  25.761
  368TIP3    H225300   0.862   1.409  25.593
  369TIP3   OH225301   1.023   1.814  22.404
  369TIP3    H125302   0.983   1.844  22.158
  369TIP3    H225303   1.023   1.896  22.557
  370TIP3   OH225304   1.309   1.739  22.449
  370TIP3    H125305   1.213   1.727  22.425
  370TIP3    H225306   1.334   1.658  22.593
  371TIP3   OH225307   1.567   0.651  25.962
  371TIP3    H125308   1.520   0.691  25.731
  371TIP3    H225309   1.566   0.557  25.884
  372TIP3   OH225310   0.320   1.352  25.296
  372TIP3    H125311   0.333   1.325  25.572
  372TIP3    H225312   0.259   1.279  25.209
  373TIP3   OH225313   0.606   0.238  24.111
  373TIP3    H125314   0.513   0.222  24.033
  373TIP3    H225315   0.592   0.274  24.381
  374TIP3   OH225316   1.002   0.183  25.314
  374TIP3    H125317   1.055   0.102  25.314
  374TIP3    H225318   0.926   0.149  25.158
  375TIP3   OH225319   1.367   0.482  25.404
  375TIP3    H125320   1.307   0.468  25.635
  375TIP3    H225321   1.391   0.576  25.437
  376TIP3   OH225322   0.575   0.634  24.438
  376TIP3    H125323   0.504   0.640  24.636
  376TIP3    H225324   0.592   0.729  24.393
  377TIP3   OH225325   1.124   0.677  22.392
  377TIP3    H125326   1.119   0.775  22.374
  377TIP3    H225327   1.208   0.658  22.251
  378TIP3   OH225328   1.032   0.739  26.007
  378TIP3    H125329   0.988   0.656  26.103
  378TIP3    H225330   1.107   0.740  26.190
  379TIP3   OH225331   1.268   0.629  23.538
  379TIP3    H125332   1.234   0.708  23.403
  379TIP3    H225333   1.254   0.562  23.331
  380TIP3   OH225334   0.345   0.648  24.939
  380TIP3    H125335   0.380   0.687  25.182
  380TIP3    H225336   0.313   0.562  25.032
  381TIP3   OH225337   1.127   0.784  24.840
  381TIP3    H125338   1.184   0.729  24.666
  381TIP3    H225339   1.084   0.714  25.005
  382TIP3   OH225340   1.287   0.329  24.231
  382TIP3    H125341   1.230   0.335  24.471
  382TIP3    H225342   1.226   0.295  24.027
  383TIP3   OH225343   1.587   1.896  26.205
  383TIP3    H125344   1.612   1.939  25.950
  383TIP3    H225345   1.668   1.914  26.355
  384TIP3   OH225346   0.414   1.152  25.923
  384TIP3    H125347   0.480   1.149  26.142
  384TIP3    H225348   0.332   1.136  26.076
  385TIP3   OH225349   0.992   0.663  23.826
  385TIP3    H125350   1.036   0.584  23.724
  385TIP3    H225351   0.942   0.624  24.042
  386TIP3   OH225352   0.855   0.524  24.528
  386TIP3    H125353   0.779   0.581  24.591
  386TIP3    H225354   0.921   0.557  24.720
  387TIP3   OH225355   0.881   1.123  22.104
  387TIP3    H125356   0.805   1.066  22.089
  387TIP3    H225357   0.866   1.164  22.371
  388TIP3   OH225358   1.633   1.099  24.741
  388TIP3    H125359   1.683   1.151  24.534
  388TIP3    H225360   1.545   1.093  24.618
  389TIP3   OH225361   1.229   0.421  21.612
  389TIP3    H125362   1.159   0.470  21.477
  389TIP3    H225363   1.291   0.493  21.681
  390TIP3   OH225364   1.002   1.174  25.464
  390TIP3    H125365   0.980   1.145  25.731
  390TIP3    H225366   1.001   1.271  25.497
  391TIP3   OH225367   1.367   0.604  22.044
  391TIP3    H125368   1.442   0.601  22.227
  391TIP3    H225369   1.374   0.695  21.942
  392TIP3   OH225370   0.429   1.101  23.799
  392TIP3    H125371   0.468   1.083  23.538
  392TIP3    H225372   0.451   1.024  23.961
  393TIP3   OH225373   0.183   0.872  25.359
  393TIP3    H125374   0.180   0.858  25.647
  393TIP3    H225375   0.088   0.868  25.290
  394TIP3   OH225376   0.797   0.881  25.950
  394TIP3    H125377   0.740   0.827  25.779
  394TIP3    H225378   0.883   0.834  25.941
  395TIP3   OH225379   1.294   1.408  25.554
  395TIP3    H125380   1.213   1.417  25.401
  395TIP3    H225381   1.266   1.447  25.812
  396TIP3   OH225382   1.825   0.629  22.029
  396TIP3    H125383   1.761   0.612  21.813
  396TIP3    H225384   1.852   0.719  21.960
  397TIP3   OH225385   1.852   1.198  25.761
  397TIP3    H125386   1.762   1.214  25.653
  397TIP3    H225387   1.906   1.199  25.515
  398TIP3   OH225388   1.655   1.497  21.981
  398TIP3    H125389   1.665   1.434  22.200
  398TIP3    H225390   1.736   1.487  21.825
  399TIP3   OH225391   1.379   1.003  24.162
  399TIP3    H125392   1.291   0.971  24.093
  399TIP3    H225393   1.435   0.935  24.033
  400TIP3   OH225394   0.627   1.385  23.142
  400TIP3    H125395   0.680   1.461  23.040
  400TIP3    H225396   0.540   1.405  23.028
  401TIP3   OH225397   0.211   0.905  21.522
  401TIP3    H125398   0.194   0.929  21.246
  401TIP3    H225399   0.130   0.852  21.558
  402TIP3   OH225400   0.791   1.192  22.863
  402TIP3    H125401   0.738   1.270  22.938
  402TIP3    H225402   0.750   1.125  23.034
  403TIP3   OH225403   0.851   1.597  24.921
  403TIP3    H125404   0.909   1.668  24.816
  403TIP3    H225405   0.905   1.563  25.146
  404TIP3   OH225406   0.667   1.630  22.791
  404TIP3    H125407   0.576   1.642  22.869
  404TIP3    H225408   0.701   1.720  22.812
  405TIP3   OH225409   1.136   1.201  24.729
  405TIP3    H125410   1.095   1.154  24.960
  405TIP3    H225411   1.188   1.130  24.606
  406TIP3   OH225412   1.471   1.642  25.428
  406TIP3    H125413   1.383   1.600  25.389
  406TIP3    H225414   1.482   1.704  25.203
  407TIP3   OH225415   0.266   0.410  25.314
  407TIP3    H125416   0.188   0.459  25.395
  407TIP3    H225417   0.233   0.318  25.314
  408TIP3   OH225418   1.478   1.165  22.212
  408TIP3    H125419   1.465   1.078  22.344
  408TIP3    H225420   1.575   1.169  22.185
  409TIP3   OH225421   0.255   1.579  24.756
  409TIP3    H125422   0.308   1.499  24.795
  409TIP3    H225423   0.235   1.602  25.029
  410TIP3   OH225424   0.679   1.374  21.744
  410TIP3    H125425   0.759   1.364  21.906
  410TIP3    H225426   0.672   1.470  21.729
  411TIP3   OH225427   1.165   0.368  24.975
  411TIP3    H125428   1.248   0.379  25.131
  411TIP3    H225429   1.116   0.301  25.134
  412TIP3   OH225430   1.210   0.296  22.347
  412TIP3    H125431   1.230   0.348  22.104
  412TIP3    H225432   1.251   0.348  22.566
  413TIP3   OH225433   0.951   1.508  21.912
  413TIP3    H125434   0.874   1.570  21.921
  413TIP3    H225435   1.015   1.560  22.065
  414TIP3   OH225436   0.968   0.479  22.752
  414TIP3    H125437   1.020   0.522  22.536
  414TIP3    H225438   0.932   0.554  22.896
  415TIP3   OH225439   1.010   0.604  25.335
  415TIP3    H125440   1.017   0.665  25.566
  415TIP3    H225441   1.040   0.518  25.437
  416TIP3   OH225442   1.020   0.172  22.794
  416TIP3    H125443   1.023   0.239  23.004
  416TIP3    H225444   1.093   0.208  22.626
  417TIP3   OH225445   0.737   1.666  21.957
  417TIP3    H125446   0.707   1.754  21.873
  417TIP3    H225447   0.696   1.656  22.221
  418TIP3   OH225448   1.608   0.399  25.572
  418TIP3    H125449   1.510   0.413  25.557
  418TIP3    H225450   1.624   0.367  25.305
  419TIP3   OH225451   1.487   0.762  23.742
  419TIP3    H125452   1.412   0.698  23.739
  419TIP3    H225453   1.550   0.717  23.922
  420TIP3   OH225454   1.572   1.698  24.219
  420TIP3    H125455   1.573   1.762  23.997
  420TIP3    H225456   1.668   1.689  24.255
  421TIP3   OH225457   0.306   0.185  23.877
  421TIP3    H125458   0.302   0.175  23.580
  421TIP3    H225459   0.316   0.090  23.949
  422TIP3   OH225460   0.230   1.469  22.644
  422TIP3    H125461   0.145   1.485  22.764
  422TIP3    H225462   0.241   1.552  22.494
  423TIP3   OH225463   0.162   1.775  26.109
  423TIP3    H125464   0.224   1.776  26.337
  423TIP3    H225465   0.133   1.683  26.139
  424TIP3   OH225466   0.634   1.677  26.535
  424TIP3    H125467   0.713   1.629  26.625
  424TIP3    H225468   0.610   1.627  26.298
  425TIP3   OH225469   1.237   1.518  26.265
  425TIP3    H125470   1.203   1.432  26.373
  425TIP3    H225471   1.325   1.523  26.400
  426TIP3   OH225472   1.504   1.571  21.087
  426TIP3    H125473   1.492   1.511  21.312
  426TIP3    H225474   1.600   1.563  21.060
  427TIP3   OH225475   0.202   1.165  26.472
  427TIP3    H125476   0.218   1.069  26.448
  427TIP3    H225477   0.105   1.162  26.424
  428TIP3   OH225478   0.792   1.150  26.145
  428TIP3    H125479   0.773   1.206  25.908
  428TIP3    H225480   0.799   1.058  26.034
  429TIP3   OH225481   1.358   1.118  25.518
  429TIP3    H125482   1.446   1.164  25.518
  429TIP3    H225483   1.303   1.197  25.551
  430TIP3   OH225484   0.229   0.869  26.388
  430TIP3    H125485   0.286   0.795  26.307
  430TIP3    H225486   0.245   0.878  26.676
  431TIP3   OH225487   0.620   0.749  25.299
  431TIP3    H125488   0.569   0.828  25.377
  431TIP3    H225489   0.697   0.791  25.167
  432TIP3   OH225490   1.152   1.047  26.457
  432TIP3    H125491   1.220   0.995  26.319
  432TIP3    H225492   1.123   0.983  26.661
  433TIP3   OH225493   1.690   1.041  20.985
  433TIP3    H125494   1.751   0.995  20.808
  433TIP3    H225495   1.726   1.133  20.976
  434TIP3   OH225496   0.661   0.526  25.680
  434TIP3    H125497   0.712   0.475  25.482
  434TIP3    H225498   0.654   0.613  25.542
  435TIP3   OH225499   0.710   0.355  25.005
  435TIP3    H125500   0.764   0.392  24.783
  435TIP3    H225501   0.618   0.381  24.936
  436TIP3   OH225502   0.836   0.875  25.020
  436TIP3    H125503   0.929   0.901  25.008
  436TIP3    H225504   0.792   0.957  24.921
  437TIP3   OH225505   1.279   0.637  26.580
  437TIP3    H125506   1.313   0.546  26.589
  437TIP3    H225507   1.359   0.690  26.619
  438TIP3   OH225508   1.421   0.953  26.121
  438TIP3    H125509   1.387   1.008  25.899
  438TIP3    H225510   1.513   0.940  26.031
  439TIP3   OH225511   0.460   0.639  26.232
  439TIP3    H125512   0.411   0.558  26.298
  439TIP3    H225513   0.528   0.603  26.055
  440TIP3   OH225514   0.762   0.099  25.035
  440TIP3    H125515   0.756   0.198  25.077
  440TIP3    H225516   0.667   0.077  25.029
  441TIP3   OH225517   0.922   0.510  26.304
  441TIP3    H125518   0.872   0.486  26.544
  441TIP3    H225519   0.855   0.486  26.106
  442TIP3   OH225520   1.194   0.397  26.019
  442TIP3    H125521   1.102   0.410  26.103
  442TIP3    H225522   1.234   0.359  26.262
  443TIP3   OH225523   1.372   0.320  26.685
  443TIP3    H125524   1.364   0.221  26.697
  443TIP3    H225525   1.332   0.344  26.949
  444TIP3   OH225526   0.333   0.407  26.430
  444TIP3    H125527   0.330   0.345  26.205
  444TIP3    H225528   0.296   0.350  26.643
  445TIP3   OH225529   0.776   0.082  25.866
  445TIP3    H125530   0.771  -0.015  25.878
  445TIP3    H225531   0.810   0.097  25.593
  446TIP3   OH225532   0.835   0.164  26.616
  446TIP3    H125533   0.828   0.131  26.340
  446TIP3    H225534   0.771   0.237  26.619
  447TIP3   OH225535   0.827   1.878  21.444
  447TIP3    H125536   0.813   1.953  21.630
  447TIP3    H225537   0.741   1.879  21.306
  448TIP3   OH225538   0.118   1.659  23.589
  448TIP3    H125539   0.125   1.564  23.658
  448TIP3    H225540   0.195   1.692  23.733
  449TIP3   OH225541   1.845   1.747  24.258
  449TIP3    H125542   1.882   1.758  24.522
  449TIP3    H225543   1.891   1.816  24.111
  450TIP3   OH225544   1.778   1.708  25.140
  450TIP3    H125545   1.749   1.630  24.978
  450TIP3    H225546   1.803   1.661  25.383
  451TIP3   OH225547   1.661   1.272  26.625
  451TIP3    H125548   1.569   1.277  26.730
  451TIP3    H225549   1.698   1.352  26.757
  452TIP3   OH225550   1.772   1.124  22.188
  452TIP3    H125551   1.855   1.175  22.227
  452TIP3    H225552   1.781   1.059  22.407
  453TIP3   OH225553   1.811   0.947  22.812
  453TIP3    H125554   1.733   0.894  22.902
  453TIP3    H225555   1.867   0.949  23.058
  454TIP3   OH225556   1.801   1.199  24.204
  454TIP3    H125557   1.864   1.123  24.180
  454TIP3    H225558   1.853   1.271  24.084
  455TIP3   OH225559   1.653   1.477  24.939
  455TIP3    H125560   1.585   1.512  25.119
  455TIP3    H225561   1.602   1.452  24.699
  456TIP3   OH225562   1.852   0.919  21.645
  456TIP3    H125563   1.770   0.912  21.489
  456TIP3    H225564   1.835   0.999  21.801
  457TIP3   OH225565   1.672   0.629  21.312
  457TIP3    H125566   1.701   0.699  21.132
  457TIP3    H225567   1.633   0.566  21.120
  458TIP3   OH225568   1.611   0.788  23.031
  458TIP3    H125569   1.577   0.704  22.923
  458TIP3    H225570   1.579   0.785  23.310
  459TIP3   OH225571   0.165   1.086  24.156
  459TIP3    H125572   0.182   1.032  23.916
  459TIP3    H225573   0.237   1.055  24.333
  460TIP3   OH225574   1.705   0.969  25.848
  460TIP3    H125575   1.754   0.884  25.869
  460TIP3    H225576   1.776   1.035  25.803
  461TIP3   OH225577   1.820   0.717  25.995
  461TIP3    H125578   1.730   0.678  25.989
  461TIP3    H225579   1.876   0.637  26.055
  462TIP3   OH225580   1.578   0.567  22.524
  462TIP3    H125581   1.590   0.474  22.614
  462TIP3    H225582   1.665   0.580  22.401
  463TIP3   OH225583   1.656   0.594  24.189
  463TIP3    H125584   1.752   0.620  24.195
  463TIP3    H225585   1.642   0.592  24.477
  464TIP3   OH225586   1.642   0.700  24.930
  464TIP3    H125587   1.550   0.729  24.969
  464TIP3    H225588   1.689   0.785  24.900
  465TIP3   OH225589   0.123   0.548  26.148
  465TIP3    H125590   0.211   0.524  26.256
  465TIP3    H225591   0.101   0.475  25.974
  466TIP3   OH225592   1.926   0.092  26.598
  466TIP3    H125593   2.004   0.082  26.421
  466TIP3    H225594   1.881   0.158  26.430
  467TIP3   OH225595   1.657   0.302  22.587
  467TIP3    H125596   1.680   0.259  22.842
  467TIP3    H225597   1.587   0.242  22.491
  468TIP3   OH225598   0.133   0.377  24.123
  468TIP3    H125599   0.190   0.302  24.039
  468TIP3    H225600   0.191   0.431  24.285
  469TIP3   OH225601   0.075   0.678  24.399
  469TIP3    H125602   0.125   0.661  24.153
  469TIP3    H225603   0.051   0.772  24.381
  470TIP3   OH225604   1.796   0.292  26.154
  470TIP3    H125605   1.722   0.356  26.163
  470TIP3    H225606   1.777   0.248  25.899
  471TIP3   OH225607   1.540   1.758  23.130
  471TIP3    H125608   1.592   1.761  22.881
  471TIP3    H225609   1.576   1.831  23.286
  472TIP3   OH225610   0.119   0.216  24.906
  472TIP3    H125611   0.039   0.181  25.035
  472TIP3    H225612   0.076   0.292  24.774
  473TIP3   OH225613   0.258   1.441  26.169
  473TIP3    H125614   0.182   1.439  25.995
  473TIP3    H225615   0.269   1.348  26.244
  474TIP3   OH225616   0.579   1.607  25.134
  474TIP3    H125617   0.577   1.691  24.984
  474TIP3    H225618   0.673   1.583  25.116
  475TIP3   OH225619   0.987   1.710  25.842
  475TIP3    H125620   0.988   1.688  26.127
  475TIP3    H225621   1.077   1.746  25.809
  476TIP3   OH225622   1.211   1.863  25.710
  476TIP3    H125623   1.280   1.806  25.608
  476TIP3    H225624   1.250   1.894  25.965
  477TIP3   OH225625   1.747   0.155  25.410
  477TIP3    H125626   1.663   0.181  25.284
  477TIP3    H225627   1.728   0.059  25.455
  478TIP3   OH225628   0.324   1.910  25.059
  478TIP3    H125629   0.235   1.940  24.963
  478TIP3    H225630   0.301   1.872  25.317
  479TIP3   OH225631   0.555   1.864  24.678
  479TIP3    H125632   0.463   1.863  24.786
  479TIP3    H225633   0.566   1.959  24.630
  480TIP3   OH225634   1.015   1.803  24.492
  480TIP3    H125635   1.002   1.872  24.288
  480TIP3    H225636   1.041   1.862  24.714
  481TIP3   OH225637   1.223   1.678  24.933
  481TIP3    H125638   1.157   1.710  24.741
  481TIP3    H225639   1.294   1.742  24.876
  482TIP3   OH225640   1.478   1.836  24.840
  482TIP3    H125641   1.498   1.924  24.729
  482TIP3    H225642   1.511   1.781  24.615
  483TIP3   OH225643   0.449   1.594  23.718
  483TIP3    H125644   0.425   1.508  23.838
  483TIP3    H225645   0.532   1.610  23.859
  484TIP3   OH225646   0.712   1.616  24.117
  484TIP3    H125647   0.738   1.522  24.093
  484TIP3    H225648   0.745   1.635  24.384
  485TIP3   OH225649   1.081   0.281  23.700
  485TIP3    H125650   1.010   0.214  23.742
  485TIP3    H225651   1.148   0.226  23.562
  486TIP3   OH225652   1.527   0.126  23.742
  486TIP3    H125653   1.589   0.157  23.535
  486TIP3    H225654   1.446   0.176  23.682
  487TIP3   OH225655   1.754   0.194  23.244
  487TIP3    H125656   1.788   0.123  23.070
  487TIP3    H225657   1.826   0.263  23.244
  488TIP3   OH225658   0.330   0.154  23.106
  488TIP3    H125659   0.334   0.218  22.884
  488TIP3    H225660   0.315   0.070  22.968
  489TIP3   OH225661   0.175   0.114  21.912
  489TIP3    H125662   0.152   0.186  21.732
  489TIP3    H225663   0.134   0.139  22.164
  490TIP3   OH225664   0.771   0.159  23.127
  490TIP3    H125665   0.839   0.151  22.920
  490TIP3    H225666   0.826   0.162  23.367
  491TIP3   OH225667   1.282   0.138  23.382
  491TIP3    H125668   1.322   0.118  23.127
  491TIP3    H225669   1.290   0.054  23.532
  492TIP3   OH225670   1.450   0.168  22.263
  492TIP3    H125671   1.355   0.196  22.251
  492TIP3    H225672   1.442   0.071  22.266
  493TIP3   OH225673   0.176   1.684  22.158
  493TIP3    H125674   0.110   1.645  21.978
  493TIP3    H225675   0.186   1.774  22.062
  494TIP3   OH225676   0.865   0.275  22.020
  494TIP3    H125677   0.883   0.231  22.272
  494TIP3    H225678   0.857   0.368  22.098
  495TIP3   OH225679   1.071   1.732  21.573
  495TIP3    H125680   1.131   1.808  21.579
  495TIP3    H225681   0.982   1.774  21.585
  496TIP3   OH225682   1.694   1.712  22.488
  496TIP3    H125683   1.674   1.636  22.314
  496TIP3    H225684   1.711   1.778  22.272
  497TIP3   OH225685   0.270   0.154  25.974
  497TIP3    H125686   0.256   0.063  25.887
  497TIP3    H225687   0.361   0.146  26.082
  498TIP3   OH225688   0.501   0.116  26.412
  498TIP3    H125689   0.590   0.129  26.301
  498TIP3    H225690   0.488   0.019  26.379
  499TIP3   OH225691   1.328   0.059  26.556
  499TIP3    H125692   1.274  -0.019  26.607
  499TIP3    H225693   1.397   0.020  26.388
  500TIP3   OH225694   1.647   1.616  25.992
  500TIP3    H125695   1.575   1.614  25.791
  500TIP3    H225696   1.634   1.705  26.100
  501TIP3   OH225697   3.105   1.011  23.055
  501TIP3    H125698   3.064   1.052  23.286
  501TIP3    H225699   3.036   1.017  22.848
  502TIP3   OH225700   2.996   0.894  24.006
  502TIP3    H125701   2.989   0.862  24.285
  502TIP3    H225702   2.926   0.839  23.877
  503TIP3   OH225703   2.193   0.903  24.498
  503TIP3    H125704   2.193   0.830  24.687
  503TIP3    H225705   2.250   0.967  24.633
  504TIP3   OH225706   2.309   1.368  24.012
  504TIP3    H125707   2.270   1.282  23.934
  504TIP3    H225708   2.402   1.342  23.976
  505TIP3   OH225709   1.973   0.685  22.698
  505TIP3    H125710   1.943   0.773  22.773
  505TIP3    H225711   1.893   0.652  22.566
  506TIP3   OH225712   2.020   0.949  23.436
  506TIP3    H125713   2.066   0.864  23.484
  506TIP3    H225714   2.081   0.997  23.262
  507TIP3   OH225715   2.806   1.129  24.300
  507TIP3    H125716   2.852   1.101  24.060
  507TIP3    H225717   2.880   1.169  24.453
  508TIP3   OH225718   3.678   0.320  24.261
  508TIP3    H125719   3.687   0.392  24.459
  508TIP3    H225720   3.754   0.344  24.090
  509TIP3   OH225721   3.159   0.629  24.396
  509TIP3    H125722   3.176   0.534  24.432
  509TIP3    H225723   3.146   0.629  24.105
  510TIP3   OH225724   2.453   0.412  23.409
  510TIP3    H125725   2.473   0.492  23.250
  510TIP3    H225726   2.416   0.352  23.202
  511TIP3   OH225727   3.221   0.433  22.974
  511TIP3    H125728   3.266   0.408  23.226
  511TIP3    H225729   3.284   0.499  22.878
  512TIP3   OH225730   2.103   0.687  23.682
  512TIP3    H125731   2.163   0.641  23.868
  512TIP3    H225732   2.122   0.638  23.433
  513TIP3   OH225733   2.585   0.821  23.529
  513TIP3    H125734   2.669   0.777  23.604
  513TIP3    H225735   2.550   0.754  23.343
  514TIP3   OH225736   3.697   0.465  24.990
  514TIP3    H125737   3.646   0.548  24.978
  514TIP3    H225738   3.693   0.443  25.272
  515TIP3   OH225739   2.340   0.324  24.681
  515TIP3    H125740   2.309   0.387  24.471
  515TIP3    H225741   2.265   0.331  24.873
  516TIP3   OH225742   2.557   1.095  24.600
  516TIP3    H125743   2.511   1.175  24.705
  516TIP3    H225744   2.633   1.135  24.459
  517TIP3   OH225745   3.388   0.430  23.595
  517TIP3    H125746   3.383   0.345  23.730
  517TIP3    H225747   3.470   0.465  23.718
  518TIP3   OH225748   2.309   0.511  24.036
  518TIP3    H125749   2.375   0.569  24.174
  518TIP3    H225750   2.357   0.484  23.790
  519TIP3   OH225751   2.439   1.303  24.951
  519TIP3    H125752   2.419   1.379  24.783
  519TIP3    H225753   2.354   1.290  25.095
  520TIP3   OH225754   2.026   1.237  22.209
  520TIP3    H125755   2.015   1.276  21.942
  520TIP3    H225756   2.077   1.306  22.344
  521TIP3   OH225757   3.438   0.232  24.723
  521TIP3    H125758   3.362   0.280  24.615
  521TIP3    H225759   3.492   0.221  24.480
  522TIP3   OH225760   2.731   0.111  23.775
  522TIP3    H125761   2.738   0.024  23.907
  522TIP3    H225762   2.673   0.160  23.961
  523TIP3   OH225763   3.505   1.247  25.401
  523TIP3    H125764   3.520   1.178  25.191
  523TIP3    H225765   3.513   1.328  25.239
  524TIP3   OH225766   2.951   0.899  22.206
  524TIP3    H125767   2.894   0.953  22.032
  524TIP3    H225768   3.036   0.900  22.059
  525TIP3   OH225769   3.006   0.768  21.423
  525TIP3    H125770   3.086   0.806  21.543
  525TIP3    H225771   3.041   0.684  21.324
  526TIP3   OH225772   3.689   0.884  24.741
  526TIP3    H125773   3.640   0.967  24.786
  526TIP3    H225774   3.744   0.912  24.513
  527TIP3   OH225775   3.324   0.929  22.566
  527TIP3    H125776   3.254   0.954  22.761
  527TIP3    H225777   3.388   0.880  22.740
  528TIP3   OH225778   3.272   0.751  25.362
  528TIP3    H125779   3.268   0.846  25.407
  528TIP3    H225780   3.201   0.740  25.167
  529TIP3   OH225781   2.448   1.003  23.100
  529TIP3    H125782   2.437   0.960  22.842
  529TIP3    H225783   2.502   0.938  23.247
  530TIP3   OH225784   2.599   1.323  23.913
  530TIP3    H125785   2.615   1.344  23.631
  530TIP3    H225786   2.679   1.276  23.997
  531TIP3   OH225787   2.461   0.883  24.237
  531TIP3    H125788   2.506   0.887  23.976
  531TIP3    H225789   2.503   0.957  24.387
  532TIP3   OH225790   3.172   1.443  24.447
  532TIP3    H125791   3.130   1.506  24.624
  532TIP3    H225792   3.137   1.358  24.534
  533TIP3   OH225793   2.600   1.334  25.587
  533TIP3    H125794   2.531   1.386  25.731
  533TIP3    H225795   2.557   1.324  25.323
  534TIP3   OH225796   3.208   0.864  21.876
  534TIP3    H125797   3.259   0.890  22.116
  534TIP3    H225798   3.252   0.923  21.678
  535TIP3   OH225799   2.240   1.013  25.290
  535TIP3    H125800   2.254   1.078  25.503
  535TIP3    H225801   2.176   0.953  25.416
  536TIP3   OH225802   2.933   1.571  22.974
  536TIP3    H125803   2.991   1.651  22.995
  536TIP3    H225804   2.925   1.565  22.689
  537TIP3   OH225805   2.422   1.513  25.887
  537TIP3    H125806   2.408   1.543  25.608
  537TIP3    H225807   2.329   1.493  25.962
  538TIP3   OH225808   3.560   0.091  21.921
  538TIP3    H125809   3.485   0.079  22.104
  538TIP3    H225810   3.531   0.172  21.795
  539TIP3   OH225811   2.348   0.909  22.311
  539TIP3    H125812   2.278   0.974  22.356
  539TIP3    H225813   2.297   0.828  22.251
  540TIP3   OH225814   1.992   1.189  25.095
  540TIP3    H125815   1.946   1.181  24.840
  540TIP3    H225816   2.035   1.102  25.110
  541TIP3   OH225817   1.983   1.428  24.120
  541TIP3    H125818   2.080   1.428  24.114
  541TIP3    H225819   1.965   1.507  24.273
  542TIP3   OH225820   3.758   1.492  25.821
  542TIP3    H125821   3.751   1.396  25.782
  542TIP3    H225822   3.672   1.508  25.956
  543TIP3   OH225823   2.838   1.466  25.581
  543TIP3    H125824   2.834   1.554  25.707
  543TIP3    H225825   2.746   1.432  25.590
  544TIP3   OH225826   2.267   1.713  23.037
  544TIP3    H125827   2.310   1.697  23.298
  544TIP3    H225828   2.181   1.668  23.079
  545TIP3   OH225829   3.444   0.660  25.965
  545TIP3    H125830   3.399   0.691  25.722
  545TIP3    H225831   3.445   0.565  25.908
  546TIP3   OH225832   2.212   1.308  25.359
  546TIP3    H125833   2.209   1.273  25.638
  546TIP3    H225834   2.131   1.268  25.248
  547TIP3   OH225835   2.511   0.217  24.171
  547TIP3    H125836   2.436   0.242  24.000
  547TIP3    H225837   2.477   0.257  24.423
  548TIP3   OH225838   2.883   0.185  25.395
  548TIP3    H125839   2.916   0.097  25.317
  548TIP3    H225840   2.800   0.186  25.248
  549TIP3   OH225841   3.265   0.471  25.464
  549TIP3    H125842   3.191   0.454  25.653
  549TIP3    H225843   3.245   0.564  25.395
  550TIP3   OH225844   3.362   0.971  21.339
  550TIP3    H125845   3.334   0.938  21.078
  550TIP3    H225846   3.455   0.995  21.276
  551TIP3   OH225847   2.913   0.341  21.477
  551TIP3    H125848   2.848   0.312  21.681
  551TIP3    H225849   2.882   0.299  21.234
  552TIP3   OH225850   2.481   0.637  24.531
  552TIP3    H125851   2.426   0.658  24.762
  552TIP3    H225852   2.474   0.725  24.393
  553TIP3   OH225853   2.471   0.641  22.977
  553TIP3    H125854   2.376   0.615  22.971
  553TIP3    H225855   2.502   0.611  22.707
  554TIP3   OH225856   3.046   0.693  22.638
  554TIP3    H125857   2.996   0.770  22.530
  554TIP3    H225858   3.095   0.668  22.404
  555TIP3   OH225859   2.919   0.753  26.115
  555TIP3    H125860   2.871   0.668  26.085
  555TIP3    H225861   3.000   0.723  26.247
  556TIP3   OH225862   3.122   0.626  23.565
  556TIP3    H125863   3.112   0.694  23.358
  556TIP3    H225864   3.136   0.547  23.400
  557TIP3   OH225865   2.192   0.655  24.948
  557TIP3    H125866   2.262   0.694  25.122
  557TIP3    H225867   2.185   0.564  25.053
  558TIP3   OH225868   1.932   0.394  23.247
  558TIP3    H125869   2.002   0.392  23.448
  558TIP3    H225870   1.975   0.358  23.010
  559TIP3   OH225871   2.016   0.426  21.864
  559TIP3    H125872   2.093   0.473  21.756
  559TIP3    H225873   1.960   0.502  21.951
  560TIP3   OH225874   3.015   0.815  24.789
  560TIP3    H125875   3.079   0.758  24.645
  560TIP3    H225876   2.985   0.750  24.996
  561TIP3   OH225877   2.746   0.400  23.280
  561TIP3    H125878   2.655   0.368  23.319
  561TIP3    H225879   2.785   0.375  23.538
  562TIP3   OH225880   2.211   0.560  22.959
  562TIP3    H125881   2.131   0.591  22.812
  562TIP3    H225882   2.241   0.482  22.806
  563TIP3   OH225883   2.550   0.555  22.266
  563TIP3    H125884   2.644   0.568  22.347
  563TIP3    H225885   2.539   0.626  22.074
  564TIP3   OH225886   3.185   0.331  24.252
  564TIP3    H125887   3.114   0.330  24.453
  564TIP3    H225888   3.152   0.275  24.036
  565TIP3   OH225889   2.399   0.760  21.465
  565TIP3    H125890   2.329   0.696  21.393
  565TIP3    H225891   2.482   0.723  21.363
  566TIP3   OH225892   3.466   1.905  26.175
  566TIP3    H125893   3.507   1.902  25.908
  566TIP3    H225894   3.543   1.930  26.334
  567TIP3   OH225895   2.227   1.158  26.073
  567TIP3    H125896   2.309   1.160  26.232
  567TIP3    H225897   2.162   1.123  26.265
  568TIP3   OH225898   2.846   0.691  23.781
  568TIP3    H125899   2.922   0.650  23.640
  568TIP3    H225900   2.838   0.629  24.006
  569TIP3   OH225901   2.354   0.320  22.695
  569TIP3    H125902   2.309   0.241  22.800
  569TIP3    H225903   2.431   0.281  22.563
  570TIP3   OH225904   2.756   0.536  24.531
  570TIP3    H125905   2.674   0.589  24.507
  570TIP3    H225906   2.782   0.564  24.798
  571TIP3   OH225907   2.734   1.092  22.068
  571TIP3    H125908   2.724   1.019  22.254
  571TIP3    H225909   2.739   1.167  22.251
  572TIP3   OH225910   3.521   1.096  24.750
  572TIP3    H125911   3.568   1.147  24.540
  572TIP3    H225912   3.436   1.075  24.618
  573TIP3   OH225913   3.162   0.447  21.270
  573TIP3    H125914   3.073   0.408  21.297
  573TIP3    H225915   3.174   0.486  21.534
  574TIP3   OH225916   2.885   1.158  25.458
  574TIP3    H125917   2.841   1.087  25.602
  574TIP3    H225918   2.864   1.238  25.611
  575TIP3   OH225919   3.228   0.591  21.975
  575TIP3    H125920   3.309   0.588  22.143
  575TIP3    H225921   3.226   0.688  21.924
  576TIP3   OH225922   2.295   1.097  23.784
  576TIP3    H125923   2.355   1.079  23.565
  576TIP3    H225924   2.308   1.021  23.961
  577TIP3   OH225925   1.975   0.905  25.482
  577TIP3    H125926   1.955   0.835  25.680
  577TIP3    H225927   1.926   0.872  25.245
  578TIP3   OH225928   2.691   0.890  26.034
  578TIP3    H125929   2.660   0.816  25.866
  578TIP3    H225930   2.785   0.861  26.049
  579TIP3   OH225931   3.174   1.388  25.527
  579TIP3    H125932   3.101   1.410  25.347
  579TIP3    H225933   3.146   1.436  25.770
  580TIP3   OH225934   3.713   0.645  21.951
  580TIP3    H125935   3.646   0.619  21.762
  580TIP3    H225936   3.719   0.743  21.900
  581TIP3   OH225937   3.738   1.204  25.821
  581TIP3    H125938   3.643   1.220  25.770
  581TIP3    H225939   3.772   1.190  25.548
  582TIP3   OH225940   3.596   1.466  22.065
  582TIP3    H125941   3.550   1.385  21.996
  582TIP3    H225942   3.584   1.526  21.840
  583TIP3   OH225943   3.293   0.981  24.255
  583TIP3    H125944   3.199   0.962  24.210
  583TIP3    H225945   3.334   0.918  24.066
  584TIP3   OH225946   2.525   1.419  23.091
  584TIP3    H125947   2.574   1.496  22.989
  584TIP3    H225948   2.436   1.441  22.992
  585TIP3   OH225949   2.128   0.916  21.516
  585TIP3    H125950   2.112   1.006  21.426
  585TIP3    H225951   2.035   0.889  21.570
  586TIP3   OH225952   2.687   1.200  22.872
  586TIP3    H125953   2.646   1.289  22.866
  586TIP3    H225954   2.638   1.161  23.094
  587TIP3   OH225955   2.727   1.609  24.918
  587TIP3    H125956   2.786   1.673  24.783
  587TIP3    H225957   2.785   1.573  25.128
  588TIP3   OH225958   2.507   1.647  22.641
  588TIP3    H125959   2.425   1.686  22.755
  588TIP3    H225960   2.575   1.709  22.755
  589TIP3   OH225961   3.017   1.200  24.744
  589TIP3    H125962   2.971   1.175  25.002
  589TIP3    H225963   3.062   1.117  24.684
  590TIP3   OH225964   3.358   1.642  25.401
  590TIP3    H125965   3.267   1.608  25.350
  590TIP3    H225966   3.363   1.715  25.203
  591TIP3   OH225967   3.739   1.796  21.486
  591TIP3    H125968   3.751   1.866  21.291
  591TIP3    H225969   3.674   1.839  21.660
  592TIP3   OH225970   2.141   0.381  25.209
  592TIP3    H125971   2.049   0.410  25.197
  592TIP3    H225972   2.134   0.298  25.362
  593TIP3   OH225973   3.372   1.166  22.200
  593TIP3    H125974   3.358   1.077  22.305
  593TIP3    H225975   3.469   1.172  22.212
  594TIP3   OH225976   2.132   1.577  24.753
  594TIP3    H125977   2.190   1.501  24.798
  594TIP3    H225978   2.132   1.615  25.020
  595TIP3   OH225979   2.584   1.372  21.897
  595TIP3    H125980   2.674   1.352  21.813
  595TIP3    H225981   2.586   1.470  21.891
  596TIP3   OH225982   3.049   0.347  24.993
  596TIP3    H125983   3.119   0.354  25.194
  596TIP3    H225984   2.984   0.293  25.143
  597TIP3   OH225985   3.095   0.307  22.392
  597TIP3    H125986   3.076   0.369  22.176
  597TIP3    H225987   3.152   0.360  22.572
  598TIP3   OH225988   2.803   0.515  22.557
  598TIP3    H125989   2.898   0.537  22.584
  598TIP3    H225990   2.781   0.479  22.824
  599TIP3   OH225991   3.000   0.601  25.290
  599TIP3    H125992   2.918   0.621  25.437
  599TIP3    H225993   2.988   0.508  25.209
  600TIP3   OH225994   2.891   0.210  22.770
  600TIP3    H125995   2.870   0.275  22.980
  600TIP3    H225996   2.981   0.242  22.689
  601TIP3   OH225997   2.548   1.661  21.846
  601TIP3    H125998   2.594   1.742  21.771
  601TIP3    H225999   2.531   1.672  22.137
  602TIP3   OH226000   3.508   0.384  25.578
  602TIP3    H126001   3.412   0.400  25.608
  602TIP3    H226002   3.512   0.365  25.290
  603TIP3   OH226003   3.367   0.733  23.721
  603TIP3    H126004   3.294   0.670  23.745
  603TIP3    H226005   3.437   0.689  23.880
  604TIP3   OH226006   2.125   0.661  21.210
  604TIP3    H126007   2.153   0.745  21.336
  604TIP3    H226008   2.065   0.696  21.006
  605TIP3   OH226009   3.454   1.706  24.264
  605TIP3    H126010   3.447   1.780  24.072
  605TIP3    H226011   3.550   1.705  24.315
  606TIP3   OH226012   2.227   0.173  23.880
  606TIP3    H126013   2.209   0.157  23.598
  606TIP3    H226014   2.212   0.082  23.982
  607TIP3   OH226015   2.072   1.507  22.755
  607TIP3    H126016   1.994   1.557  22.671
  607TIP3    H226017   2.136   1.541  22.566
  608TIP3   OH226018   2.012   1.759  26.115
  608TIP3    H126019   2.077   1.741  26.331
  608TIP3    H226020   1.979   1.668  26.064
  609TIP3   OH226021   2.503   1.666  26.547
  609TIP3    H126022   2.591   1.630  26.616
  609TIP3    H226023   2.489   1.629  26.280
  610TIP3   OH226024   3.129   1.516  26.238
  610TIP3    H126025   3.093   1.429  26.334
  610TIP3    H226026   3.214   1.516  26.391
  611TIP3   OH226027   1.982   1.139  26.445
  611TIP3    H126028   1.954   1.046  26.436
  611TIP3    H226029   1.940   1.172  26.196
  612TIP3   OH226030   2.681   1.161  26.166
  612TIP3    H126031   2.656   1.208  25.917
  612TIP3    H226032   2.673   1.065  26.097
  613TIP3   OH226033   3.260   1.114  25.491
  613TIP3    H126034   3.341   1.168  25.476
  613TIP3    H226035   3.196   1.187  25.539
  614TIP3   OH226036   2.143   0.842  26.328
  614TIP3    H126037   2.198   0.763  26.346
  614TIP3    H226038   2.174   0.899  26.547
  615TIP3   OH226039   2.423   0.774  25.251
  615TIP3    H126040   2.411   0.851  25.419
  615TIP3    H226041   2.520   0.778  25.215
  616TIP3   OH226042   2.707   0.826  21.306
  616TIP3    H126043   2.686   0.835  21.024
  616TIP3    H226044   2.798   0.791  21.312
  617TIP3   OH226045   3.040   1.043  26.448
  617TIP3    H126046   3.117   1.021  26.280
  617TIP3    H226047   2.987   0.962  26.427
  618TIP3   OH226048   3.589   1.004  20.949
  618TIP3    H126049   3.608   0.984  20.670
  618TIP3    H226050   3.627   1.092  20.976
  619TIP3   OH226051   2.471   0.392  25.716
  619TIP3    H126052   2.531   0.336  25.560
  619TIP3    H226053   2.510   0.478  25.638
  620TIP3   OH226054   2.585   0.347  25.014
  620TIP3    H126055   2.628   0.418  24.858
  620TIP3    H226056   2.490   0.371  24.999
  621TIP3   OH226057   2.700   0.934  25.155
  621TIP3    H126058   2.781   0.914  25.011
  621TIP3    H226059   2.653   0.991  24.969
  622TIP3   OH226060   3.182   0.644  26.580
  622TIP3    H126061   3.211   0.551  26.592
  622TIP3    H226062   3.265   0.693  26.625
  623TIP3   OH226063   3.313   0.957  26.127
  623TIP3    H126064   3.288   1.009  25.890
  623TIP3    H226065   3.398   0.921  26.037
  624TIP3   OH226066   2.398   0.603  26.349
  624TIP3    H126067   2.312   0.563  26.268
  624TIP3    H226068   2.455   0.573  26.133
  625TIP3   OH226069   2.660   0.098  25.011
  625TIP3    H126070   2.649   0.195  25.026
  625TIP3    H226071   2.576   0.078  24.888
  626TIP3   OH226072   2.778   0.494  26.349
  626TIP3    H126073   2.703   0.481  26.532
  626TIP3    H226074   2.729   0.501  26.094
  627TIP3   OH226075   3.064   0.411  26.013
  627TIP3    H126076   2.969   0.429  26.031
  627TIP3    H226077   3.074   0.343  26.217
  628TIP3   OH226078   3.292   0.306  26.589
  628TIP3    H126079   3.258   0.213  26.568
  628TIP3    H226080   3.235   0.340  26.805
  629TIP3   OH226081   2.192   0.429  26.379
  629TIP3    H126082   2.237   0.365  26.211
  629TIP3    H226083   2.174   0.378  26.628
  630TIP3   OH226084   2.645   0.076  25.893
  630TIP3    H126085   2.620  -0.020  25.869
  630TIP3    H226086   2.707   0.088  25.671
  631TIP3   OH226087   2.708   0.142  26.685
  631TIP3    H126088   2.709   0.111  26.406
  631TIP3    H226089   2.656   0.223  26.655
  632TIP3   OH226090   2.693   1.916  21.528
  632TIP3    H126091   2.776   1.916  21.669
  632TIP3    H226092   2.687   2.010  21.450
  633TIP3   OH226093   1.901   1.849  22.860
  633TIP3    H126094   1.826   1.797  22.749
  633TIP3    H226095   1.935   1.788  23.067
  634TIP3   OH226096   1.971   1.678  23.427
  634TIP3    H126097   1.908   1.605  23.469
  634TIP3    H226098   1.998   1.697  23.700
  635TIP3   OH226099   3.715   1.793  24.402
  635TIP3    H126100   3.739   1.805  24.684
  635TIP3    H226101   3.792   1.837  24.279
  636TIP3   OH226102   3.676   1.690  25.206
  636TIP3    H126103   3.649   1.614  25.035
  636TIP3    H226104   3.701   1.644  25.455
  637TIP3   OH226105   3.546   1.270  26.649
  637TIP3    H126106   3.453   1.278  26.748
  637TIP3    H226107   3.584   1.354  26.745
  638TIP3   OH226108   3.631   1.132  22.305
  638TIP3    H126109   3.724   1.164  22.305
  638TIP3    H226110   3.640   1.045  22.440
  639TIP3   OH226111   3.691   0.921  22.806
  639TIP3    H126112   3.619   0.864  22.905
  639TIP3    H226113   3.749   0.937  23.037
  640TIP3   OH226114   3.667   1.200  24.171
  640TIP3    H126115   3.734   1.131  24.117
  640TIP3    H226116   3.716   1.282  24.120
  641TIP3   OH226117   3.533   1.479  24.927
  641TIP3    H126118   3.475   1.531  25.107
  641TIP3    H226119   3.473   1.467  24.702
  642TIP3   OH226120   3.719   0.901  21.783
  642TIP3    H126121   3.668   0.939  21.564
  642TIP3    H226122   3.786   0.969  21.831
  643TIP3   OH226123   3.484   0.783  23.016
  643TIP3    H126124   3.469   0.692  22.932
  643TIP3    H226125   3.451   0.781  23.292
  644TIP3   OH226126   1.977   1.006  24.219
  644TIP3    H126127   1.987   0.986  23.928
  644TIP3    H226128   2.069   0.983  24.306
  645TIP3   OH226129   3.602   0.960  25.827
  645TIP3    H126130   3.643   0.878  25.932
  645TIP3    H226131   3.681   1.010  25.737
  646TIP3   OH226132   3.698   0.720  26.073
  646TIP3    H126133   3.608   0.682  26.025
  646TIP3    H226134   3.752   0.638  26.097
  647TIP3   OH226135   3.460   0.568  22.422
  647TIP3    H126136   3.481   0.474  22.497
  647TIP3    H226137   3.552   0.597  22.392
  648TIP3   OH226138   3.543   0.600  24.204
  648TIP3    H126139   3.641   0.617  24.225
  648TIP3    H226140   3.523   0.601  24.489
  649TIP3   OH226141   3.529   0.684  24.990
  649TIP3    H126142   3.436   0.712  25.026
  649TIP3    H226143   3.574   0.765  24.885
  650TIP3   OH226144   1.965   0.496  26.061
  650TIP3    H126145   2.054   0.480  26.190
  650TIP3    H226146   1.921   0.411  26.127
  651TIP3   OH226147   3.799   0.098  26.574
  651TIP3    H126148   3.884   0.088  26.436
  651TIP3    H226149   3.759   0.162  26.385
  652TIP3   OH226150   3.540   0.323  22.539
  652TIP3    H126151   3.578   0.276  22.770
  652TIP3    H226152   3.462   0.265  22.485
  653TIP3   OH226153   2.057   0.384  24.027
  653TIP3    H126154   2.087   0.294  24.096
  653TIP3    H226155   2.144   0.428  24.009
  654TIP3   OH226156   1.910   0.668  24.240
  654TIP3    H126157   1.963   0.649  24.000
  654TIP3    H226158   1.974   0.724  24.378
  655TIP3   OH226159   3.680   0.275  26.118
  655TIP3    H126160   3.603   0.335  26.139
  655TIP3    H226161   3.664   0.236  25.851
  656TIP3   OH226162   1.935   0.258  22.488
  656TIP3    H126163   1.841   0.284  22.476
  656TIP3    H226164   1.967   0.305  22.248
  657TIP3   OH226165   1.961   0.177  24.900
  657TIP3    H126166   1.901   0.185  25.131
  657TIP3    H226167   1.910   0.225  24.699
  658TIP3   OH226168   2.162   1.444  26.127
  658TIP3    H126169   2.075   1.473  26.028
  658TIP3    H226170   2.142   1.383  26.343
  659TIP3   OH226171   2.458   1.603  25.113
  659TIP3    H126172   2.457   1.694  25.005
  659TIP3    H226173   2.554   1.587  25.104
  660TIP3   OH226174   2.863   1.726  25.869
  660TIP3    H126175   2.881   1.694  26.142
  660TIP3    H226176   2.951   1.761  25.797
  661TIP3   OH226177   3.091   1.864  25.716
  661TIP3    H126178   3.169   1.814  25.635
  661TIP3    H226179   3.123   1.902  25.974
  662TIP3   OH226180   3.637   0.154  25.389
  662TIP3    H126181   3.555   0.175  25.245
  662TIP3    H226182   3.617   0.060  25.455
  663TIP3   OH226183   2.191   1.893  24.978
  663TIP3    H126184   2.107   1.935  24.891
  663TIP3    H226185   2.183   1.899  25.269
  664TIP3   OH226186   2.444   1.838  24.726
  664TIP3    H126187   2.349   1.855  24.786
  664TIP3    H226188   2.454   1.892  24.483
  665TIP3   OH226189   2.879   1.800  24.546
  665TIP3    H126190   2.828   1.844  24.327
  665TIP3    H226191   2.912   1.878  24.690
  666TIP3   OH226192   3.099   1.668  24.939
  666TIP3    H126193   3.021   1.711  24.816
  666TIP3    H226194   3.168   1.733  24.873
  667TIP3   OH226195   3.364   1.848  24.879
  667TIP3    H126196   3.361   1.940  24.783
  667TIP3    H226197   3.395   1.802  24.633
  668TIP3   OH226198   2.152   1.730  24.075
  668TIP3    H126199   2.135   1.674  24.312
  668TIP3    H226200   2.244   1.700  24.006
  669TIP3   OH226201   2.379   1.629  23.727
  669TIP3    H126202   2.366   1.535  23.802
  669TIP3    H226203   2.469   1.645  23.835
  670TIP3   OH226204   2.609   1.601  24.135
  670TIP3    H126205   2.642   1.510  24.111
  670TIP3    H226206   2.631   1.619  24.414
  671TIP3   OH226207   2.940   0.284  23.739
  671TIP3    H126208   2.887   0.203  23.751
  671TIP3    H226209   3.013   0.257  23.562
  672TIP3   OH226210   3.439   0.134  23.691
  672TIP3    H126211   3.514   0.155  23.508
  672TIP3    H226212   3.369   0.115  23.502
  673TIP3   OH226213   3.630   0.171  23.142
  673TIP3    H126214   3.676   0.100  23.007
  673TIP3    H226215   3.703   0.231  23.235
  674TIP3   OH226216   2.190   0.137  23.007
  674TIP3    H126217   2.141   0.158  22.758
  674TIP3    H226218   2.172   0.041  23.034
  675TIP3   OH226219   2.137   0.108  22.110
  675TIP3    H126220   2.161   0.182  21.939
  675TIP3    H226221   2.040   0.112  22.119
  676TIP3   OH226222   2.647   0.136  23.007
  676TIP3    H126223   2.728   0.164  22.863
  676TIP3    H226224   2.678   0.132  23.286
  677TIP3   OH226225   3.170   0.163  23.406
  677TIP3    H126226   3.204   0.166  23.133
  677TIP3    H226227   3.172   0.068  23.475
  678TIP3   OH226228   3.322   0.178  22.389
  678TIP3    H126229   3.237   0.214  22.287
  678TIP3    H226230   3.308   0.083  22.332
  679TIP3   OH226231   2.018   1.665  22.080
  679TIP3    H126232   2.014   1.625  21.819
  679TIP3    H226233   2.029   1.760  22.020
  680TIP3   OH226234   2.722   0.291  22.068
  680TIP3    H126235   2.785   0.249  22.251
  680TIP3    H226236   2.721   0.382  22.173
  681TIP3   OH226237   2.124   0.125  26.070
  681TIP3    H126238   2.141   0.044  25.923
  681TIP3    H226239   2.211   0.142  26.193
  682TIP3   OH226240   2.370   0.124  26.376
  682TIP3    H126241   2.455   0.159  26.274
  682TIP3    H226242   2.383   0.028  26.307
  683TIP3   OH226243   2.234   1.810  21.162
  683TIP3    H126244   2.194   1.842  21.414
  683TIP3    H226245   2.288   1.736  21.255
  684TIP3   OH226246   3.180   0.050  26.502
  684TIP3    H126247   3.145  -0.039  26.565
  684TIP3    H226248   3.249   0.027  26.316
  685TIP3   OH226249   3.530   1.609  26.022
  685TIP3    H126250   3.463   1.608  25.803
  685TIP3    H226251   3.516   1.697  26.133
  686TIP3   OH226252   4.965   1.017  23.070
  686TIP3    H126253   4.954   1.114  23.037
  686TIP3    H226254   4.891   0.983  22.917
  687TIP3   OH226255   4.820   0.895  24.183
  687TIP3    H126256   4.828   0.846  24.435
  687TIP3    H226257   4.791   0.822  24.006
  688TIP3   OH226258   4.079   0.924  24.594
  688TIP3    H126259   4.101   0.834  24.672
  688TIP3    H226260   4.166   0.966  24.615
  689TIP3   OH226261   4.198   1.347  23.973
  689TIP3    H126262   4.166   1.255  23.943
  689TIP3    H226263   4.286   1.337  23.838
  690TIP3   OH226264   3.859   0.663  22.683
  690TIP3    H126265   3.826   0.748  22.779
  690TIP3    H226266   3.849   0.680  22.392
  691TIP3   OH226267   3.911   0.928  23.457
  691TIP3    H126268   3.964   0.848  23.508
  691TIP3    H226269   3.978   0.994  23.376
  692TIP3   OH226270   4.821   1.169  23.994
  692TIP3    H126271   4.814   1.072  23.991
  692TIP3    H226272   4.767   1.193  24.231
  693TIP3   OH226273   5.555   0.312  24.354
  693TIP3    H126274   5.562   0.377  24.576
  693TIP3    H226275   5.612   0.356  24.156
  694TIP3   OH226276   5.057   0.633  24.351
  694TIP3    H126277   5.066   0.536  24.357
  694TIP3    H226278   5.027   0.648  24.075
  695TIP3   OH226279   4.349   0.410  23.394
  695TIP3    H126280   4.359   0.491  23.229
  695TIP3    H226281   4.304   0.351  23.202
  696TIP3   OH226282   5.098   0.434  23.040
  696TIP3    H126283   5.153   0.407  23.271
  696TIP3    H226284   5.162   0.496  22.917
  697TIP3   OH226285   3.981   0.667  23.724
  697TIP3    H126286   4.039   0.618  23.904
  697TIP3    H226287   4.017   0.640  23.463
  698TIP3   OH226288   4.486   0.823  23.565
  698TIP3    H126289   4.580   0.802  23.598
  698TIP3    H226290   4.459   0.751  23.385
  699TIP3   OH226291   5.576   0.470  25.008
  699TIP3    H126292   5.536   0.560  24.963
  699TIP3    H226293   5.573   0.463  25.299
  700TIP3   OH226294   4.219   0.331  24.684
  700TIP3    H126295   4.188   0.384  24.453
  700TIP3    H226296   4.145   0.339  24.876
  701TIP3   OH226297   4.931   1.255  22.734
  701TIP3    H126298   4.905   1.233  22.461
  701TIP3    H226299   4.923   1.350  22.725
  702TIP3   OH226300   4.406   1.042  24.876
  702TIP3    H126301   4.344   1.106  24.996
  702TIP3    H226302   4.474   1.110  24.798
  703TIP3   OH226303   5.296   0.405  23.550
  703TIP3    H126304   5.271   0.370  23.814
  703TIP3    H226305   5.381   0.445  23.616
  704TIP3   OH226306   4.207   0.509  24.054
  704TIP3    H126307   4.268   0.577  24.159
  704TIP3    H226308   4.255   0.480  23.808
  705TIP3   OH226309   4.299   1.289  24.996
  705TIP3    H126310   4.289   1.339  24.747
  705TIP3    H226311   4.209   1.293  25.113
  706TIP3   OH226312   3.871   1.240  22.206
  706TIP3    H126313   3.900   1.301  21.999
  706TIP3    H226314   3.919   1.276  22.437
  707TIP3   OH226315   5.296   1.428  24.309
  707TIP3    H126316   5.198   1.432  24.339
  707TIP3    H226317   5.304   1.486  24.078
  708TIP3   OH226318   5.323   0.209  24.681
  708TIP3    H126319   5.252   0.238  24.498
  708TIP3    H226320   5.400   0.211  24.501
  709TIP3   OH226321   4.635   0.109  23.730
  709TIP3    H126322   4.634   0.018  23.844
  709TIP3    H226323   4.576   0.155  23.922
  710TIP3   OH226324   5.132   1.592  23.205
  710TIP3    H126325   5.143   1.512  23.040
  710TIP3    H226326   5.144   1.663  23.013
  711TIP3   OH226327   5.388   1.259  25.401
  711TIP3    H126328   5.398   1.184  25.209
  711TIP3    H226329   5.402   1.335  25.221
  712TIP3   OH226330   4.821   0.878  22.149
  712TIP3    H126331   4.773   0.963  22.158
  712TIP3    H226332   4.905   0.907  22.029
  713TIP3   OH226333   4.903   0.770  21.411
  713TIP3    H126334   4.987   0.804  21.525
  713TIP3    H226335   4.936   0.731  21.165
  714TIP3   OH226336   5.599   0.902  24.789
  714TIP3    H126337   5.525   0.965  24.750
  714TIP3    H226338   5.657   0.935  24.570
  715TIP3   OH226339   5.188   0.752  25.341
  715TIP3    H126340   5.169   0.840  25.449
  715TIP3    H226341   5.129   0.752  25.104
  716TIP3   OH226342   4.331   1.005  23.127
  716TIP3    H126343   4.320   0.987  22.842
  716TIP3    H226344   4.396   0.937  23.205
  717TIP3   OH226345   4.461   1.359  23.796
  717TIP3    H126346   4.507   1.307  23.586
  717TIP3    H226347   4.509   1.328  24.036
  718TIP3   OH226348   4.345   0.888  24.255
  718TIP3    H126349   4.402   0.885  24.012
  718TIP3    H226350   4.386   0.960  24.408
  719TIP3   OH226351   5.022   1.454  24.411
  719TIP3    H126352   4.993   1.507  24.642
  719TIP3    H226353   4.992   1.364  24.492
  720TIP3   OH226354   4.496   1.324  25.575
  720TIP3    H126355   4.421   1.371  25.701
  720TIP3    H226356   4.461   1.307  25.302
  721TIP3   OH226357   5.105   0.907  21.915
  721TIP3    H126358   5.129   0.980  22.098
  721TIP3    H226359   5.168   0.929  21.693
  722TIP3   OH226360   4.199   0.896  25.419
  722TIP3    H126361   4.214   0.992  25.434
  722TIP3    H226362   4.118   0.890  25.581
  723TIP3   OH226363   4.305   1.500  25.875
  723TIP3    H126364   4.287   1.540  25.608
  723TIP3    H226365   4.214   1.487  25.971
  724TIP3   OH226366   5.467   0.109  22.002
  724TIP3    H126367   5.403   0.122  21.780
  724TIP3    H226368   5.540   0.162  21.891
  725TIP3   OH226369   4.270   0.900  22.368
  725TIP3    H126370   4.207   0.971  22.284
  725TIP3    H226371   4.210   0.823  22.374
  726TIP3   OH226372   3.842   1.182  25.089
  726TIP3    H126373   3.786   1.177  24.852
  726TIP3    H226374   3.893   1.098  25.065
  727TIP3   OH226375   3.848   1.440  24.045
  727TIP3    H126376   3.943   1.423  24.063
  727TIP3    H226377   3.838   1.506  24.252
  728TIP3   OH226378   5.669   1.495  25.878
  728TIP3    H126379   5.646   1.403  25.812
  728TIP3    H226380   5.580   1.527  25.962
  729TIP3   OH226381   4.753   1.425  25.608
  729TIP3    H126382   4.740   1.522  25.596
  729TIP3    H226383   4.660   1.396  25.572
  730TIP3   OH226384   5.051   1.748  21.492
  730TIP3    H126385   5.100   1.668  21.429
  730TIP3    H226386   5.097   1.781  21.726
  731TIP3   OH226387   5.335   0.632  25.989
  731TIP3    H126388   5.294   0.668  25.749
  731TIP3    H226389   5.342   0.538  25.914
  732TIP3   OH226390   4.065   1.300  25.368
  732TIP3    H126391   4.082   1.264  25.638
  732TIP3    H226392   3.975   1.266  25.308
  733TIP3   OH226393   4.399   0.222  24.165
  733TIP3    H126394   4.338   0.256  23.961
  733TIP3    H226395   4.363   0.269  24.399
  734TIP3   OH226396   4.764   0.188  25.317
  734TIP3    H126397   4.811   0.102  25.335
  734TIP3    H226398   4.690   0.157  25.146
  735TIP3   OH226399   5.140   0.482  25.395
  735TIP3    H126400   5.075   0.461  25.608
  735TIP3    H226401   5.165   0.573  25.461
  736TIP3   OH226402   4.755   0.439  21.513
  736TIP3    H126403   4.738   0.358  21.672
  736TIP3    H226404   4.693   0.427  21.291
  737TIP3   OH226405   4.371   0.640  24.555
  737TIP3    H126406   4.289   0.625  24.711
  737TIP3    H226407   4.364   0.735  24.489
  738TIP3   OH226408   4.373   0.644  22.995
  738TIP3    H126409   4.276   0.642  22.986
  738TIP3    H226410   4.394   0.611  22.725
  739TIP3   OH226411   4.958   0.689  22.590
  739TIP3    H126412   4.922   0.766  22.446
  739TIP3    H226413   4.999   0.638  22.380
  740TIP3   OH226414   4.795   0.735  26.058
  740TIP3    H126415   4.757   0.648  26.136
  740TIP3    H226416   4.876   0.733  26.217
  741TIP3   OH226417   5.023   0.637  23.502
  741TIP3    H126418   5.005   0.707  23.301
  741TIP3    H226419   5.033   0.560  23.322
  742TIP3   OH226420   4.126   0.651  24.927
  742TIP3    H126421   4.150   0.697  25.176
  742TIP3    H226422   4.089   0.567  25.026
  743TIP3   OH226423   4.415   0.450  21.126
  743TIP3    H126424   4.393   0.360  21.207
  743TIP3    H226425   4.426   0.435  20.835
  744TIP3   OH226426   3.818   0.361  23.244
  744TIP3    H126427   3.878   0.377  23.469
  744TIP3    H226428   3.831   0.441  23.085
  745TIP3   OH226429   4.903   0.774  24.864
  745TIP3    H126430   4.967   0.729  24.684
  745TIP3    H226431   4.866   0.699  25.017
  746TIP3   OH226432   4.643   0.415  23.211
  746TIP3    H126433   4.554   0.378  23.271
  746TIP3    H226434   4.689   0.396  23.466
  747TIP3   OH226435   4.090   0.555  22.980
  747TIP3    H126436   4.012   0.580  22.818
  747TIP3    H226437   4.134   0.483  22.827
  748TIP3   OH226438   4.403   0.559  22.242
  748TIP3    H126439   4.496   0.581  22.278
  748TIP3    H226440   4.371   0.625  22.044
  749TIP3   OH226441   5.072   0.318  24.219
  749TIP3    H126442   5.011   0.323  24.453
  749TIP3    H226443   5.023   0.263  24.030
  750TIP3   OH226444   4.291   0.696  21.648
  750TIP3    H126445   4.213   0.645  21.567
  750TIP3    H226446   4.344   0.697  21.405
  751TIP3   OH226447   5.338   1.912  26.223
  751TIP3    H126448   5.350   1.940  25.947
  751TIP3    H226449   5.428   1.921  26.331
  752TIP3   OH226450   4.121   1.147  26.064
  752TIP3    H126451   4.198   1.139  26.247
  752TIP3    H226452   4.048   1.114  26.226
  753TIP3   OH226453   4.760   0.669  23.826
  753TIP3    H126454   4.832   0.631  23.664
  753TIP3    H226455   4.729   0.590  23.967
  754TIP3   OH226456   4.222   0.314  22.740
  754TIP3    H126457   4.186   0.232  22.860
  754TIP3    H226458   4.288   0.280  22.548
  755TIP3   OH226459   4.604   0.490  24.582
  755TIP3    H126460   4.543   0.567  24.579
  755TIP3    H226461   4.680   0.525  24.732
  756TIP3   OH226462   5.404   1.103  24.759
  756TIP3    H126463   5.447   1.149  24.534
  756TIP3    H226464   5.310   1.104  24.690
  757TIP3   OH226465   5.027   0.444  21.315
  757TIP3    H126466   4.934   0.447  21.408
  757TIP3    H226467   5.074   0.489  21.528
  758TIP3   OH226468   4.857   1.165  25.611
  758TIP3    H126469   4.779   1.110  25.566
  758TIP3    H226470   4.819   1.255  25.635
  759TIP3   OH226471   5.122   0.618  21.957
  759TIP3    H126472   5.190   0.596  22.161
  759TIP3    H226473   5.137   0.714  21.930
  760TIP3   OH226474   4.168   1.086  23.763
  760TIP3    H126475   4.227   1.074  23.532
  760TIP3    H226476   4.198   1.015  23.940
  761TIP3   OH226477   3.850   0.905  25.449
  761TIP3    H126478   3.845   0.840  25.668
  761TIP3    H226479   3.795   0.862  25.242
  762TIP3   OH226480   4.569   0.875  26.016
  762TIP3    H126481   4.528   0.811  25.836
  762TIP3    H226482   4.656   0.832  26.058
  763TIP3   OH226483   5.063   1.426  25.521
  763TIP3    H126484   4.979   1.416  25.380
  763TIP3    H226485   5.033   1.454  25.788
  764TIP3   OH226486   5.604   0.630  22.059
  764TIP3    H126487   5.550   0.584  21.858
  764TIP3    H226488   5.597   0.726  21.984
  765TIP3   OH226489   5.614   1.205  25.791
  765TIP3    H126490   5.522   1.223  25.704
  765TIP3    H226491   5.659   1.197  25.530
  766TIP3   OH226492   4.542   1.235  22.944
  766TIP3    H126493   4.551   1.259  22.659
  766TIP3    H226494   4.458   1.188  22.956
  767TIP3   OH226495   4.595   1.589  24.936
  767TIP3    H126496   4.656   1.650  24.810
  767TIP3    H226497   4.614   1.504  24.804
  768TIP3   OH226498   4.943   1.205  24.777
  768TIP3    H126499   4.913   1.189  25.053
  768TIP3    H226500   4.935   1.117  24.660
  769TIP3   OH226501   5.234   1.656  25.476
  769TIP3    H126502   5.147   1.610  25.449
  769TIP3    H226503   5.233   1.713  25.236
  770TIP3   OH226504   5.643   1.807  21.720
  770TIP3    H126505   5.634   1.869  21.495
  770TIP3    H226506   5.561   1.757  21.702
  771TIP3   OH226507   4.031   0.369  25.275
  771TIP3    H126508   3.956   0.426  25.344
  771TIP3    H226509   3.992   0.280  25.305
  772TIP3   OH226510   3.997   1.541  24.804
  772TIP3    H126511   4.073   1.480  24.789
  772TIP3    H226512   4.006   1.574  25.074
  773TIP3   OH226513   4.111   1.085  22.044
  773TIP3    H126514   4.021   1.085  21.933
  773TIP3    H226515   4.150   1.155  21.873
  774TIP3   OH226516   4.926   0.364  24.963
  774TIP3    H126517   4.992   0.383  25.170
  774TIP3    H226518   4.870   0.298  25.107
  775TIP3   OH226519   4.965   0.348  22.413
  775TIP3    H126520   5.018   0.399  22.227
  775TIP3    H226521   5.021   0.356  22.656
  776TIP3   OH226522   4.676   0.533  22.452
  776TIP3    H126523   4.772   0.537  22.497
  776TIP3    H226524   4.648   0.497  22.713
  777TIP3   OH226525   4.795   0.597  25.368
  777TIP3    H126526   4.796   0.649  25.617
  777TIP3    H226527   4.811   0.504  25.443
  778TIP3   OH226528   4.775   0.205  22.746
  778TIP3    H126529   4.754   0.273  22.947
  778TIP3    H226530   4.860   0.238  22.638
  779TIP3   OH226531   4.361   0.299  21.999
  779TIP3    H126532   4.352   0.395  22.029
  779TIP3    H226533   4.458   0.288  22.023
  780TIP3   OH226534   5.382   0.400  25.566
  780TIP3    H126535   5.285   0.409  25.533
  780TIP3    H226536   5.407   0.376  25.290
  781TIP3   OH226537   5.253   0.763  23.739
  781TIP3    H126538   5.171   0.714  23.721
  781TIP3    H226539   5.312   0.703  23.895
  782TIP3   OH226540   4.187   1.295  21.588
  782TIP3    H126541   4.257   1.340  21.735
  782TIP3    H226542   4.238   1.237  21.411
  783TIP3   OH226543   3.997   0.611  21.294
  783TIP3    H126544   3.981   0.705  21.351
  783TIP3    H226545   4.006   0.614  21.003
  784TIP3   OH226546   5.342   1.694  24.141
  784TIP3    H126547   5.377   1.704  23.868
  784TIP3    H226548   5.426   1.689  24.291
  785TIP3   OH226549   4.088   0.181  23.817
  785TIP3    H126550   4.077   0.159  23.532
  785TIP3    H226551   4.083   0.091  23.931
  786TIP3   OH226552   3.984   1.441  22.623
  786TIP3    H126553   3.954   1.507  22.812
  786TIP3    H226554   3.981   1.495  22.377
  787TIP3   OH226555   3.895   1.773  26.118
  787TIP3    H126556   3.961   1.756  26.331
  787TIP3    H226557   3.869   1.682  26.043
  788TIP3   OH226558   4.387   1.659  26.538
  788TIP3    H126559   4.478   1.627  26.586
  788TIP3    H226560   4.368   1.616  26.283
  789TIP3   OH226561   5.016   1.531  26.274
  789TIP3    H126562   4.979   1.442  26.331
  789TIP3    H226563   5.103   1.523  26.415
  790TIP3   OH226564   3.872   1.136  26.481
  790TIP3    H126565   3.838   1.047  26.523
  790TIP3    H226566   3.824   1.160  26.235
  791TIP3   OH226567   4.569   1.144  26.145
  791TIP3    H126568   4.551   1.201  25.908
  791TIP3    H226569   4.579   1.054  26.034
  792TIP3   OH226570   5.129   1.119  25.506
  792TIP3    H126571   5.201   1.186  25.500
  792TIP3    H226572   5.049   1.176  25.539
  793TIP3   OH226573   4.027   0.847  26.370
  793TIP3    H126574   4.097   0.781  26.391
  793TIP3    H226575   4.044   0.906  26.598
  794TIP3   OH226576   4.506   0.882  21.777
  794TIP3    H126577   4.430   0.885  21.963
  794TIP3    H226578   4.473   0.950  21.594
  795TIP3   OH226579   4.427   0.735  25.389
  795TIP3    H126580   4.344   0.783  25.434
  795TIP3    H226581   4.473   0.796  25.206
  796TIP3   OH226582   4.914   1.028  26.499
  796TIP3    H126583   4.981   1.001  26.310
  796TIP3    H226584   4.899   0.946  26.655
  797TIP3   OH226585   4.463   0.501  25.737
  797TIP3    H126586   4.471   0.439  25.509
  797TIP3    H226587   4.466   0.585  25.578
  798TIP3   OH226588   4.447   0.356  25.083
  798TIP3    H126589   4.501   0.390  24.858
  798TIP3    H226590   4.355   0.371  24.987
  799TIP3   OH226591   4.611   0.877  25.014
  799TIP3    H126592   4.696   0.920  24.975
  799TIP3    H226593   4.549   0.943  24.903
  800TIP3   OH226594   5.045   0.635  26.556
  800TIP3    H126595   5.081   0.545  26.583
  800TIP3    H226596   5.121   0.691  26.628
  801TIP3   OH226597   5.196   0.960  26.115
  801TIP3    H126598   5.162   1.016  25.896
  801TIP3    H226599   5.289   0.951  26.031
  802TIP3   OH226600   4.283   0.597  26.286
  802TIP3    H126601   4.205   0.544  26.217
  802TIP3    H226602   4.350   0.558  26.100
  803TIP3   OH226603   4.529   0.109  25.023
  803TIP3    H126604   4.509   0.204  25.080
  803TIP3    H226605   4.446   0.084  24.891
  804TIP3   OH226606   4.673   0.501  26.310
  804TIP3    H126607   4.613   0.481  26.535
  804TIP3    H226608   4.611   0.484  26.088
  805TIP3   OH226609   4.959   0.414  25.980
  805TIP3    H126610   4.865   0.414  26.064
  805TIP3    H226611   4.999   0.363  26.199
  806TIP3   OH226612   5.154   0.317  26.592
  806TIP3    H126613   5.141   0.219  26.610
  806TIP3    H226614   5.114   0.344  26.850
  807TIP3   OH226615   4.066   0.413  26.349
  807TIP3    H126616   4.047   0.333  26.193
  807TIP3    H226617   4.065   0.378  26.628
  808TIP3   OH226618   4.545   0.086  25.887
  808TIP3    H126619   4.535  -0.011  25.905
  808TIP3    H226620   4.568   0.102  25.608
  809TIP3   OH226621   4.593   0.148  26.688
  809TIP3    H126622   4.606   0.110  26.421
  809TIP3    H226623   4.540   0.227  26.625
  810TIP3   OH226624   3.906   1.674  23.466
  810TIP3    H126625   3.841   1.603  23.481
  810TIP3    H226626   3.922   1.691  23.751
  811TIP3   OH226627   5.619   1.721  24.219
  811TIP3    H126628   5.619   1.731  24.513
  811TIP3    H226629   5.704   1.763  24.162
  812TIP3   OH226630   5.564   1.719  25.059
  812TIP3    H126631   5.523   1.631  25.002
  812TIP3    H226632   5.604   1.697  25.317
  813TIP3   OH226633   5.434   1.263  26.643
  813TIP3    H126634   5.342   1.271  26.739
  813TIP3    H226635   5.474   1.342  26.760
  814TIP3   OH226636   5.561   1.198  24.183
  814TIP3    H126637   5.636   1.134  24.180
  814TIP3    H226638   5.610   1.282  24.144
  815TIP3   OH226639   5.429   1.487  24.972
  815TIP3    H126640   5.355   1.523  25.125
  815TIP3    H226641   5.384   1.466  24.714
  816TIP3   OH226642   5.593   0.900  21.834
  816TIP3    H126643   5.543   0.936  21.612
  816TIP3    H226644   5.608   0.978  21.999
  817TIP3   OH226645   3.856   0.992  24.216
  817TIP3    H126646   3.870   0.953  23.949
  817TIP3    H226647   3.945   0.983  24.336
  818TIP3   OH226648   5.474   0.967  25.872
  818TIP3    H126649   5.523   0.882  25.908
  818TIP3    H226650   5.544   1.034  25.839
  819TIP3   OH226651   5.587   0.721  26.016
  819TIP3    H126652   5.496   0.682  26.028
  819TIP3    H226653   5.644   0.643  26.058
  820TIP3   OH226654   5.303   0.553  22.560
  820TIP3    H126655   5.345   0.463  22.569
  820TIP3    H226656   5.381   0.606  22.503
  821TIP3   OH226657   5.422   0.592  24.180
  821TIP3    H126658   5.516   0.623  24.198
  821TIP3    H226659   5.401   0.574  24.456
  822TIP3   OH226660   5.430   0.696  25.008
  822TIP3    H126661   5.342   0.718  25.113
  822TIP3    H226662   5.468   0.783  24.933
  823TIP3   OH226663   3.833   0.497  26.037
  823TIP3    H126664   3.924   0.493  26.148
  823TIP3    H226665   3.792   0.413  26.124
  824TIP3   OH226666   5.699   0.088  26.589
  824TIP3    H126667   5.780   0.075  26.427
  824TIP3    H226668   5.661   0.159  26.424
  825TIP3   OH226669   5.427   0.315  22.581
  825TIP3    H126670   5.436   0.287  22.860
  825TIP3    H226671   5.365   0.245  22.482
  826TIP3   OH226672   3.947   0.399  24.030
  826TIP3    H126673   3.987   0.308  24.009
  826TIP3    H226674   4.029   0.449  24.075
  827TIP3   OH226675   3.798   0.654  24.294
  827TIP3    H126676   3.852   0.628  24.060
  827TIP3    H226677   3.840   0.737  24.366
  828TIP3   OH226678   5.572   0.305  26.154
  828TIP3    H126679   5.492   0.362  26.160
  828TIP3    H226680   5.552   0.253  25.914
  829TIP3   OH226681   5.608   0.302  21.489
  829TIP3    H126682   5.620   0.224  21.318
  829TIP3    H226683   5.686   0.354  21.414
  830TIP3   OH226684   3.838   0.185  24.831
  830TIP3    H126685   3.777   0.190  25.065
  830TIP3    H226686   3.794   0.252  24.660
  831TIP3   OH226687   4.050   1.434  26.121
  831TIP3    H126688   3.967   1.465  26.007
  831TIP3    H226689   4.022   1.375  26.337
  832TIP3   OH226690   4.315   1.626  25.164
  832TIP3    H126691   4.355   1.695  24.996
  832TIP3    H226692   4.391   1.567  25.200
  833TIP3   OH226693   4.746   1.714  25.881
  833TIP3    H126694   4.761   1.676  26.148
  833TIP3    H226695   4.834   1.753  25.821
  834TIP3   OH226696   4.973   1.864  25.719
  834TIP3    H126697   5.045   1.804  25.650
  834TIP3    H226698   5.002   1.895  25.986
  835TIP3   OH226699   5.512   0.161  25.416
  835TIP3    H126700   5.428   0.185  25.290
  835TIP3    H226701   5.493   0.066  25.473
  836TIP3   OH226702   4.079   1.890  25.017
  836TIP3    H126703   4.005   1.952  24.975
  836TIP3    H226704   4.081   1.875  25.305
  837TIP3   OH226705   4.327   1.874  24.687
  837TIP3    H126706   4.232   1.851  24.750
  837TIP3    H226707   4.320   1.970  24.723
  838TIP3   OH226708   4.770   1.814  24.498
  838TIP3    H126709   4.721   1.885  24.363
  838TIP3    H226710   4.806   1.866  24.723
  839TIP3   OH226711   4.988   1.677  24.933
  839TIP3    H126712   4.924   1.708  24.738
  839TIP3    H226713   5.065   1.732  24.867
  840TIP3   OH226714   5.242   1.813  24.840
  840TIP3    H126715   5.259   1.908  24.810
  840TIP3    H226716   5.267   1.781  24.570
  841TIP3   OH226717   4.019   1.751  24.225
  841TIP3    H126718   4.006   1.722  24.501
  841TIP3    H226719   4.100   1.701  24.150
  842TIP3   OH226720   4.237   1.620  23.979
  842TIP3    H126721   4.204   1.528  23.949
  842TIP3    H226722   4.330   1.603  23.919
  843TIP3   OH226723   4.813   0.317  23.775
  843TIP3    H126724   4.773   0.229  23.811
  843TIP3    H226725   4.889   0.292  23.607
  844TIP3   OH226726   5.327   0.123  23.739
  844TIP3    H126727   5.403   0.171  23.616
  844TIP3    H226728   5.262   0.127  23.526
  845TIP3   OH226729   5.534   0.199  23.250
  845TIP3    H126730   5.566   0.131  23.061
  845TIP3    H226731   5.598   0.273  23.220
  846TIP3   OH226732   4.079   0.121  23.043
  846TIP3    H126733   4.020   0.134  22.824
  846TIP3    H226734   4.078   0.022  23.073
  847TIP3   OH226735   4.544   0.095  22.968
  847TIP3    H126736   4.624   0.133  22.842
  847TIP3    H226737   4.571   0.104  23.250
  848TIP3   OH226738   5.024   0.161  23.445
  848TIP3    H126739   5.061   0.162  23.178
  848TIP3    H226740   5.038   0.069  23.526
  849TIP3   OH226741   5.206   0.175  22.395
  849TIP3    H126742   5.150   0.204  22.173
  849TIP3    H226743   5.244   0.095  22.275
  850TIP3   OH226744   3.894   1.646  22.092
  850TIP3    H126745   3.844   1.655  21.843
  850TIP3    H226746   3.875   1.731  22.215
  851TIP3   OH226747   4.625   0.289  22.089
  851TIP3    H126748   4.665   0.249  22.329
  851TIP3    H226749   4.631   0.383  22.161
  852TIP3   OH226750   4.011   0.115  26.085
  852TIP3    H126751   4.017   0.024  25.986
  852TIP3    H226752   4.101   0.127  26.196
  853TIP3   OH226753   4.249   0.102  26.436
  853TIP3    H126754   4.332   0.143  26.349
  853TIP3    H226755   4.261   0.012  26.316
  854TIP3   OH226756   4.082   1.740  21.258
  854TIP3    H126757   4.110   1.742  21.537
  854TIP3    H226758   4.164   1.762  21.123
  855TIP3   OH226759   5.096   0.062  26.592
  855TIP3    H126760   5.039  -0.012  26.658
  855TIP3    H226761   5.161   0.013  26.436
  856TIP3   OH226762   5.437   1.620  25.962
  856TIP3    H126763   5.368   1.612  25.752
  856TIP3    H226764   5.407   1.702  26.088
  857TIP3   OH226765   6.875   1.016  23.052
  857TIP3    H126766   6.877   1.114  23.022
  857TIP3    H226767   6.810   0.993  22.848
  858TIP3   OH226768   6.750   0.887  24.048
  858TIP3    H126769   6.765   0.849  24.321
  858TIP3    H226770   6.660   0.922  24.060
  859TIP3   OH226771   5.962   0.900  24.507
  859TIP3    H126772   5.956   0.829  24.705
  859TIP3    H226773   6.052   0.931  24.564
  860TIP3   OH226774   7.116   1.228  23.691
  860TIP3    H126775   7.110   1.152  23.868
  860TIP3    H226776   7.110   1.302  23.877
  861TIP3   OH226777   6.079   1.362  24.018
  861TIP3    H126778   6.043   1.274  23.946
  861TIP3    H226779   6.173   1.344  23.964
  862TIP3   OH226780   5.747   0.710  22.731
  862TIP3    H126781   5.687   0.775  22.845
  862TIP3    H226782   5.685   0.653  22.584
  863TIP3   OH226783   5.820   0.932  23.469
  863TIP3    H126784   5.854   0.840  23.496
  863TIP3    H226785   5.835   0.957  23.196
  864TIP3   OH226786   6.837   1.789  23.580
  864TIP3    H126787   6.892   1.717  23.460
  864TIP3    H226788   6.798   1.742  23.802
  865TIP3   OH226789   6.571   1.159  24.348
  865TIP3    H126790   6.600   1.171  24.075
  865TIP3    H226791   6.655   1.179  24.489
  866TIP3   OH226792   7.439   0.360  24.366
  866TIP3    H126793   7.468   0.425  24.564
  866TIP3    H226794   7.472   0.399  24.117
  867TIP3   OH226795   6.220   0.418  23.364
  867TIP3    H126796   6.225   0.502  23.217
  867TIP3    H226797   6.189   0.356  23.157
  868TIP3   OH226798   5.878   0.669  23.730
  868TIP3    H126799   5.951   0.637  23.898
  868TIP3    H226800   5.899   0.624  23.478
  869TIP3   OH226801   6.357   0.815  23.568
  869TIP3    H126802   6.435   0.758  23.583
  869TIP3    H226803   6.295   0.752  23.439
  870TIP3   OH226804   7.525   0.465  25.083
  870TIP3    H126805   7.463   0.540  25.050
  870TIP3    H226806   7.498   0.438  25.347
  871TIP3   OH226807   6.106   0.323  24.678
  871TIP3    H126808   6.073   0.388  24.483
  871TIP3    H226809   6.034   0.324  24.882
  872TIP3   OH226810   6.817   1.283  22.791
  872TIP3    H126811   6.816   1.289  22.497
  872TIP3    H226812   6.772   1.367  22.863
  873TIP3   OH226813   6.341   1.077  24.681
  873TIP3    H126814   6.286   1.153  24.777
  873TIP3    H226815   6.417   1.123  24.555
  874TIP3   OH226816   6.099   0.521  24.042
  874TIP3    H126817   6.167   0.575  24.183
  874TIP3    H226818   6.151   0.486  23.814
  875TIP3   OH226819   6.213   1.295  24.939
  875TIP3    H126820   6.197   1.371  24.768
  875TIP3    H226821   6.127   1.291  25.083
  876TIP3   OH226822   5.804   1.244  22.122
  876TIP3    H126823   5.740   1.299  21.984
  876TIP3    H226824   5.839   1.311  22.314
  877TIP3   OH226825   7.165   1.429  24.234
  877TIP3    H126826   7.070   1.447  24.300
  877TIP3    H226827   7.190   1.518  24.138
  878TIP3   OH226828   7.229   0.187  24.738
  878TIP3    H126829   7.160   0.219  24.555
  878TIP3    H226830   7.304   0.183  24.552
  879TIP3   OH226831   6.466   0.100  23.751
  879TIP3    H126832   6.479   0.015  23.889
  879TIP3    H226833   6.430   0.157  23.961
  880TIP3   OH226834   6.982   1.592  23.241
  880TIP3    H126835   7.008   1.502  23.157
  880TIP3    H226836   7.044   1.646  23.082
  881TIP3   OH226837   7.137   1.391  22.812
  881TIP3    H126838   7.130   1.327  22.587
  881TIP3    H226839   7.145   1.330  23.037
  882TIP3   OH226840   7.258   1.231  25.383
  882TIP3    H126841   7.271   1.170  25.152
  882TIP3    H226842   7.266   1.319  25.251
  883TIP3   OH226843   7.426   0.872  24.708
  883TIP3    H126844   7.375   0.956  24.693
  883TIP3    H226845   7.499   0.889  24.516
  884TIP3   OH226846   7.063   0.940  22.473
  884TIP3    H126847   6.997   0.962  22.677
  884TIP3    H226848   7.126   0.887  22.626
  885TIP3   OH226849   7.075   0.757  25.302
  885TIP3    H126850   7.053   0.826  25.497
  885TIP3    H226851   7.033   0.799  25.071
  886TIP3   OH226852   6.244   1.011  23.103
  886TIP3    H126853   6.210   0.975  22.848
  886TIP3    H226854   6.298   0.940  23.217
  887TIP3   OH226855   6.369   1.336  23.970
  887TIP3    H126856   6.386   1.312  23.694
  887TIP3    H226857   6.434   1.283  24.117
  888TIP3   OH226858   6.230   0.892  24.261
  888TIP3    H126859   6.273   0.883  23.997
  888TIP3    H226860   6.282   0.964  24.384
  889TIP3   OH226861   6.919   1.454  24.486
  889TIP3    H126862   6.867   1.520  24.630
  889TIP3    H226863   6.880   1.373  24.603
  890TIP3   OH226864   6.377   1.334  25.563
  890TIP3    H126865   6.306   1.379  25.713
  890TIP3    H226866   6.330   1.322  25.302
  891TIP3   OH226867   6.056   0.922  25.374
  891TIP3    H126868   6.078   1.012  25.455
  891TIP3    H226869   5.986   0.902  25.569
  892TIP3   OH226870   6.709   1.530  22.998
  892TIP3    H126871   6.774   1.571  23.178
  892TIP3    H226872   6.703   1.593  22.785
  893TIP3   OH226873   6.201   1.506  25.908
  893TIP3    H126874   6.193   1.547  25.641
  893TIP3    H226875   6.107   1.485  25.962
  894TIP3   OH226876   7.322   0.088  21.888
  894TIP3    H126877   7.246   0.139  21.984
  894TIP3    H226878   7.376   0.159  21.765
  895TIP3   OH226879   6.121   0.910  22.404
  895TIP3    H126880   6.102   0.994  22.257
  895TIP3    H226881   6.031   0.881  22.458
  896TIP3   OH226882   5.775   1.182  25.155
  896TIP3    H126883   5.742   1.160  24.894
  896TIP3    H226884   5.807   1.093  25.239
  897TIP3   OH226885   5.723   1.440  24.090
  897TIP3    H126886   5.819   1.438  24.147
  897TIP3    H226887   5.696   1.524  24.210
  898TIP3   OH226888   7.537   1.504  25.785
  898TIP3    H126889   7.531   1.409  25.773
  898TIP3    H226890   7.456   1.520  25.947
  899TIP3   OH226891   6.627   1.436  25.563
  899TIP3    H126892   6.639   1.513  25.737
  899TIP3    H226893   6.532   1.413  25.590
  900TIP3   OH226894   6.728   1.848  22.404
  900TIP3    H126895   6.661   1.784  22.482
  900TIP3    H226896   6.698   1.931  22.539
  901TIP3   OH226897   6.062   1.696  23.019
  901TIP3    H126898   6.073   1.665  23.298
  901TIP3    H226899   5.968   1.679  22.962
  902TIP3   OH226900   6.970   1.783  21.540
  902TIP3    H126901   7.036   1.729  21.399
  902TIP3    H226902   6.913   1.713  21.645
  903TIP3   OH226903   6.975   1.751  22.488
  903TIP3    H126904   6.887   1.791  22.440
  903TIP3    H226905   6.957   1.657  22.437
  904TIP3   OH226906   7.225   0.662  25.959
  904TIP3    H126907   7.164   0.676  25.731
  904TIP3    H226908   7.270   0.580  25.863
  905TIP3   OH226909   5.991   1.313  25.371
  905TIP3    H126910   5.997   1.282  25.650
  905TIP3    H226911   5.903   1.277  25.302
  906TIP3   OH226912   6.275   0.236  24.147
  906TIP3    H126913   6.204   0.256  23.958
  906TIP3    H226914   6.232   0.267  24.396
  907TIP3   OH226915   6.659   0.182  25.257
  907TIP3    H126916   6.701   0.094  25.293
  907TIP3    H226917   6.584   0.155  25.086
  908TIP3   OH226918   7.027   0.485  25.386
  908TIP3    H126919   6.960   0.467  25.593
  908TIP3    H226920   7.037   0.581  25.407
  909TIP3   OH226921   6.257   0.650  24.543
  909TIP3    H126922   6.177   0.640  24.711
  909TIP3    H226923   6.245   0.743  24.453
  910TIP3   OH226924   6.241   0.665  23.037
  910TIP3    H126925   6.143   0.655  23.016
  910TIP3    H226926   6.267   0.673  22.761
  911TIP3   OH226927   6.679   0.730  26.034
  911TIP3    H126928   6.636   0.644  26.109
  911TIP3    H226929   6.754   0.729  26.214
  912TIP3   OH226930   6.014   0.645  24.942
  912TIP3    H126931   6.038   0.694  25.182
  912TIP3    H226932   5.972   0.566  25.047
  913TIP3   OH226933   6.357   0.436  21.111
  913TIP3    H126934   6.319   0.380  21.318
  913TIP3    H226935   6.393   0.372  20.928
  914TIP3   OH226936   5.706   0.406  23.235
  914TIP3    H126937   5.770   0.408  23.454
  914TIP3    H226938   5.758   0.377  23.007
  915TIP3   OH226939   5.834   0.439  21.996
  915TIP3    H126940   5.885   0.435  21.753
  915TIP3    H226941   5.778   0.517  21.957
  916TIP3   OH226942   6.800   0.778  24.789
  916TIP3    H126943   6.883   0.732  24.741
  916TIP3    H226944   6.751   0.714  24.960
  917TIP3   OH226945   5.987   0.582  22.956
  917TIP3    H126946   5.905   0.603  22.809
  917TIP3    H226947   6.001   0.488  22.893
  918TIP3   OH226948   7.248   1.869  26.214
  918TIP3    H126949   7.290   1.895  25.962
  918TIP3    H226950   7.320   1.889  26.400
  919TIP3   OH226951   5.996   1.161  26.094
  919TIP3    H126952   6.075   1.160  26.268
  919TIP3    H226953   5.928   1.120  26.262
  920TIP3   OH226954   6.102   0.307  22.686
  920TIP3    H126955   6.047   0.238  22.824
  920TIP3    H226956   6.162   0.251  22.533
  921TIP3   OH226957   6.487   0.497  24.600
  921TIP3    H126958   6.422   0.571  24.591
  921TIP3    H226959   6.564   0.541  24.720
  922TIP3   OH226960   6.509   1.156  22.149
  922TIP3    H126961   6.461   1.074  22.134
  922TIP3    H226962   6.497   1.181  22.434
  923TIP3   OH226963   7.274   1.089  24.720
  923TIP3    H126964   7.320   1.135  24.504
  923TIP3    H226965   7.186   1.072  24.603
  924TIP3   OH226966   6.675   1.170  25.491
  924TIP3    H126967   6.641   1.149  25.755
  924TIP3    H226968   6.656   1.266  25.488
  925TIP3   OH226969   6.046   1.110  23.724
  925TIP3    H126970   6.090   1.078  23.484
  925TIP3    H226971   6.063   1.038  23.913
  926TIP3   OH226972   6.741   1.316  22.002
  926TIP3    H126973   6.691   1.399  21.969
  926TIP3    H226974   6.675   1.245  21.987
  927TIP3   OH226975   5.754   0.916  25.479
  927TIP3    H126976   5.734   0.851  25.689
  927TIP3    H226977   5.705   0.879  25.251
  928TIP3   OH226978   6.456   0.877  25.986
  928TIP3    H126979   6.403   0.814  25.839
  928TIP3    H226980   6.546   0.835  25.983
  929TIP3   OH226981   6.952   1.398  25.542
  929TIP3    H126982   6.869   1.394  25.395
  929TIP3    H226983   6.924   1.448  25.779
  930TIP3   OH226984   7.538   0.600  21.993
  930TIP3    H126985   7.471   0.585  21.780
  930TIP3    H226986   7.582   0.676  21.873
  931TIP3   OH226987   7.482   1.199  25.776
  931TIP3    H126988   7.393   1.225  25.674
  931TIP3    H226989   7.533   1.186  25.527
  932TIP3   OH226990   7.334   1.468  22.065
  932TIP3    H126991   7.273   1.400  22.167
  932TIP3    H226992   7.337   1.445  21.783
  933TIP3   OH226993   7.059   0.997  24.201
  933TIP3    H126994   6.965   0.992  24.120
  933TIP3    H226995   7.090   0.918  24.054
  934TIP3   OH226996   6.291   1.446  23.001
  934TIP3    H126997   6.304   1.540  22.926
  934TIP3    H226998   6.197   1.435  22.950
  935TIP3   OH226999   6.417   1.206  22.887
  935TIP3    H127000   6.376   1.295  22.917
  935TIP3    H227001   6.350   1.146  22.998
  936TIP3   OH227002   6.489   1.610  24.945
  936TIP3    H127003   6.550   1.679  24.858
  936TIP3    H227004   6.540   1.563  25.152
  937TIP3   OH227005   6.314   1.705  22.725
  937TIP3    H127006   6.219   1.709  22.809
  937TIP3    H227007   6.345   1.787  22.860
  938TIP3   OH227008   6.799   1.201  24.753
  938TIP3    H127009   6.759   1.166  25.005
  938TIP3    H227010   6.876   1.144  24.717
  939TIP3   OH227011   7.130   1.645  25.425
  939TIP3    H127012   7.041   1.605  25.434
  939TIP3    H227013   7.124   1.708  25.200
  940TIP3   OH227014   5.923   0.364  25.284
  940TIP3    H127015   5.858   0.430  25.377
  940TIP3    H227016   5.884   0.280  25.365
  941TIP3   OH227017   7.174   1.230  22.146
  941TIP3    H127018   7.118   1.154  22.068
  941TIP3    H227019   7.263   1.189  22.137
  942TIP3   OH227020   5.890   1.565  24.795
  942TIP3    H127021   5.949   1.489  24.831
  942TIP3    H227022   5.912   1.615  25.032
  943TIP3   OH227023   6.385   1.380  21.747
  943TIP3    H127024   6.431   1.316  21.918
  943TIP3    H227025   6.390   1.463  21.897
  944TIP3   OH227026   6.035   1.103  21.900
  944TIP3    H127027   5.952   1.151  21.984
  944TIP3    H227028   6.067   1.165  21.696
  945TIP3   OH227029   6.815   0.373  24.957
  945TIP3    H127030   6.880   0.363  25.173
  945TIP3    H227031   6.759   0.296  25.014
  946TIP3   OH227032   6.654   1.585  21.969
  946TIP3    H127033   6.560   1.612  22.005
  946TIP3    H227034   6.663   1.593  21.675
  947TIP3   OH227035   6.673   0.613  25.293
  947TIP3    H127036   6.683   0.655  25.560
  947TIP3    H227037   6.708   0.522  25.326
  948TIP3   OH227038   6.401   1.658  21.990
  948TIP3    H127039   6.328   1.701  21.852
  948TIP3    H227040   6.368   1.666  22.269
  949TIP3   OH227041   6.263   0.314  21.789
  949TIP3    H127042   6.246   0.384  21.984
  949TIP3    H227043   6.343   0.274  21.900
  950TIP3   OH227044   7.268   0.401  25.524
  950TIP3    H127045   7.176   0.431  25.479
  950TIP3    H227046   7.280   0.345  25.290
  951TIP3   OH227047   7.084   0.752  23.784
  951TIP3    H127048   7.032   0.680  23.673
  951TIP3    H227049   7.155   0.703  23.928
  952TIP3   OH227050   7.259   1.691  24.219
  952TIP3    H127051   7.261   1.758  24.003
  952TIP3    H227052   7.353   1.693  24.303
  953TIP3   OH227053   5.959   0.161  23.949
  953TIP3    H127054   5.954   0.140  23.664
  953TIP3    H227055   5.970   0.068  24.042
  954TIP3   OH227056   5.871   1.453  22.548
  954TIP3    H127057   5.841   1.468  22.821
  954TIP3    H227058   5.869   1.542  22.431
  955TIP3   OH227059   5.785   1.769  26.133
  955TIP3    H127060   5.850   1.760  26.349
  955TIP3    H227061   5.763   1.675  26.082
  956TIP3   OH227062   6.281   1.666  26.550
  956TIP3    H127063   6.362   1.618  26.634
  956TIP3    H227064   6.261   1.620  26.301
  957TIP3   OH227065   6.682   1.578  21.180
  957TIP3    H127066   6.609   1.546  21.015
  957TIP3    H227067   6.761   1.540  21.051
  958TIP3   OH227068   6.897   1.518  26.271
  958TIP3    H127069   6.866   1.429  26.358
  958TIP3    H227070   6.984   1.520  26.406
  959TIP3   OH227071   5.753   1.148  26.454
  959TIP3    H127072   5.723   1.055  26.433
  959TIP3    H227073   5.717   1.183  26.199
  960TIP3   OH227074   6.441   1.140  26.088
  960TIP3    H127075   6.424   1.195  25.848
  960TIP3    H227076   6.430   1.047  25.989
  961TIP3   OH227077   7.022   1.099  25.512
  961TIP3    H127078   7.114   1.136  25.506
  961TIP3    H227079   6.978   1.180  25.602
  962TIP3   OH227080   5.921   0.852  26.298
  962TIP3    H127081   5.965   0.768  26.355
  962TIP3    H227082   5.946   0.907  26.529
  963TIP3   OH227083   6.253   0.749  25.341
  963TIP3    H127084   6.179   0.813  25.341
  963TIP3    H227085   6.322   0.799  25.200
  964TIP3   OH227086   6.781   1.029  26.469
  964TIP3    H127087   6.854   0.991  26.313
  964TIP3    H227088   6.752   0.948  26.604
  965TIP3   OH227089   6.342   0.530  25.704
  965TIP3    H127090   6.357   0.465  25.491
  965TIP3    H227091   6.333   0.612  25.542
  966TIP3   OH227092   6.336   0.355  25.098
  966TIP3    H127093   6.397   0.397  24.906
  966TIP3    H227094   6.251   0.359  24.954
  967TIP3   OH227095   6.488   0.881  25.014
  967TIP3    H127096   6.580   0.909  25.014
  967TIP3    H227097   6.441   0.961  24.915
  968TIP3   OH227098   6.958   0.622  26.586
  968TIP3    H127099   6.998   0.536  26.550
  968TIP3    H227100   7.033   0.683  26.607
  969TIP3   OH227101   7.050   0.938  26.142
  969TIP3    H127102   7.025   0.993  25.908
  969TIP3    H227103   7.140   0.908  26.073
  970TIP3   OH227104   6.167   0.607  26.319
  970TIP3    H127105   6.082   0.560  26.271
  970TIP3    H227106   6.225   0.569  26.106
  971TIP3   OH227107   6.411   0.108  25.020
  971TIP3    H127108   6.396   0.205  25.059
  971TIP3    H227109   6.320   0.079  24.966
  972TIP3   OH227110   6.556   0.508  26.304
  972TIP3    H127111   6.500   0.489  26.535
  972TIP3    H227112   6.493   0.488  26.091
  973TIP3   OH227113   6.860   0.424  25.968
  973TIP3    H127114   6.769   0.399  26.022
  973TIP3    H227115   6.910   0.367  26.154
  974TIP3   OH227116   7.015   0.307  26.613
  974TIP3    H127117   7.002   0.209  26.655
  974TIP3    H227118   6.982   0.338  26.877
  975TIP3   OH227119   5.960   0.430  26.334
  975TIP3    H127120   5.963   0.352  26.166
  975TIP3    H227121   5.951   0.390  26.604
  976TIP3   OH227122   6.429   0.087  25.875
  976TIP3    H127123   6.416  -0.010  25.887
  976TIP3    H227124   6.456   0.101  25.596
  977TIP3   OH227125   6.488   0.142  26.682
  977TIP3    H127126   6.487   0.116  26.400
  977TIP3    H227127   6.445   0.229  26.670
  978TIP3   OH227128   5.779   1.652  23.439
  978TIP3    H127129   5.710   1.599  23.565
  978TIP3    H227130   5.831   1.682  23.670
  979TIP3   OH227131   7.538   1.731  24.435
  979TIP3    H127132   7.548   1.700  24.708
  979TIP3    H227133   7.522   1.827  24.486
  980TIP3   OH227134   7.461   1.687  25.227
  980TIP3    H127135   7.407   1.619  25.086
  980TIP3    H227136   7.502   1.627  25.425
  981TIP3   OH227137   7.316   1.269  26.718
  981TIP3    H127138   7.230   1.283  26.850
  981TIP3    H227139   7.350   1.360  26.712
  982TIP3   OH227140   7.440   1.127  22.233
  982TIP3    H127141   7.532   1.157  22.263
  982TIP3    H227142   7.437   1.052  22.419
  983TIP3   OH227143   7.464   0.931  22.836
  983TIP3    H127144   7.378   0.886  22.878
  983TIP3    H227145   7.502   0.928  23.103
  984TIP3   OH227146   7.477   1.182  24.270
  984TIP3    H127147   7.571   1.191  24.207
  984TIP3    H227148   7.455   1.277  24.216
  985TIP3   OH227149   7.303   1.476  24.999
  985TIP3    H127150   7.227   1.516  25.137
  985TIP3    H227151   7.269   1.464  24.726
  986TIP3   OH227152   7.396   0.611  21.324
  986TIP3    H127153   7.408   0.697  21.180
  986TIP3    H227154   7.388   0.550  21.105
  987TIP3   OH227155   7.239   0.787  22.989
  987TIP3    H127156   7.234   0.703  22.836
  987TIP3    H227157   7.229   0.761  23.271
  988TIP3   OH227158   5.749   1.003  24.201
  988TIP3    H127159   5.753   0.977  23.919
  988TIP3    H227160   5.838   0.967  24.276
  989TIP3   OH227161   7.339   0.970  25.887
  989TIP3    H127162   7.407   0.904  25.818
  989TIP3    H227163   7.389   1.054  25.869
  990TIP3   OH227164   7.485   0.750  25.956
  990TIP3    H127165   7.388   0.754  26.010
  990TIP3    H227166   7.505   0.660  26.061
  991TIP3   OH227167   7.254   0.564  22.494
  991TIP3    H127168   7.272   0.470  22.566
  991TIP3    H227169   7.322   0.582  22.296
  992TIP3   OH227170   7.250   0.597  24.168
  992TIP3    H127171   7.343   0.597  24.072
  992TIP3    H227172   7.266   0.578  24.450
  993TIP3   OH227173   7.323   0.645  24.975
  993TIP3    H127174   7.235   0.665  25.083
  993TIP3    H227175   7.351   0.734  24.879
  994TIP3   OH227176   5.738   0.505  25.983
  994TIP3    H127177   5.821   0.495  26.139
  994TIP3    H227178   5.686   0.427  26.070
  995TIP3   OH227179   7.582   0.106  26.640
  995TIP3    H127180   7.665   0.101  26.493
  995TIP3    H227181   7.525   0.155  26.451
  996TIP3   OH227182   7.308   0.294  22.620
  996TIP3    H127183   7.332   0.229  22.827
  996TIP3    H227184   7.224   0.256  22.518
  997TIP3   OH227185   5.840   0.401  24.051
  997TIP3    H127186   5.854   0.305  24.087
  997TIP3    H227187   5.932   0.432  24.021
  998TIP3   OH227188   5.673   0.677  24.240
  998TIP3    H127189   5.739   0.652  24.033
  998TIP3    H227190   5.728   0.731  24.411
  999TIP3   OH227191   7.448   0.276  26.157
  999TIP3    H127192   7.369   0.322  26.271
  999TIP3    H227193   7.412   0.249  25.896
 1000TIP3   OH227194   7.466   0.268  21.489
 1000TIP3    H127195   7.530   0.230  21.306
 1000TIP3    H227196   7.470   0.361  21.423
 1001TIP3   OH227197   5.730   0.220  22.458
 1001TIP3    H127198   5.634   0.226  22.428
 1001TIP3    H227199   5.757   0.286  22.254
 1002TIP3   OH227200   7.212   1.748  23.064
 1002TIP3    H127201   7.248   1.663  22.971
 1002TIP3    H227202   7.269   1.764  23.298
 1003TIP3   OH227203   5.718   0.171  24.882
 1003TIP3    H127204   5.654   0.185  25.098
 1003TIP3    H227205   5.686   0.237  24.687
 1004TIP3   OH227206   5.937   1.451  26.115
 1004TIP3    H127207   5.849   1.473  26.007
 1004TIP3    H227208   5.917   1.399  26.349
 1005TIP3   OH227209   6.228   1.606  25.140
 1005TIP3    H127210   6.230   1.694  25.011
 1005TIP3    H227211   6.322   1.581  25.116
 1006TIP3   OH227212   6.633   1.708  25.866
 1006TIP3    H127213   6.645   1.682  26.145
 1006TIP3    H227214   6.721   1.745  25.806
 1007TIP3   OH227215   6.863   1.859  25.746
 1007TIP3    H127216   6.942   1.830  25.608
 1007TIP3    H227217   6.898   1.895  25.998
 1008TIP3   OH227218   7.369   0.145  25.518
 1008TIP3    H127219   7.289   0.159  25.356
 1008TIP3    H227220   7.369   0.048  25.554
 1009TIP3   OH227221   5.959   1.897  25.020
 1009TIP3    H127222   5.878   1.947  24.945
 1009TIP3    H227223   5.951   1.897  25.311
 1010TIP3   OH227224   6.200   1.851  24.732
 1010TIP3    H127225   6.108   1.863  24.834
 1010TIP3    H227226   6.202   1.920  24.525
 1011TIP3   OH227227   6.678   1.813  24.507
 1011TIP3    H127228   6.607   1.846  24.339
 1011TIP3    H227229   6.691   1.889  24.690
 1012TIP3   OH227230   6.867   1.684  24.948
 1012TIP3    H127231   6.799   1.725  24.777
 1012TIP3    H227232   6.945   1.734  24.864
 1013TIP3   OH227233   7.134   1.823  24.837
 1013TIP3    H127234   7.143   1.918  24.795
 1013TIP3    H227235   7.178   1.787  24.594
 1014TIP3   OH227236   5.911   1.730  24.102
 1014TIP3    H127237   5.897   1.671  24.336
 1014TIP3    H227238   6.004   1.703  24.033
 1015TIP3   OH227239   6.137   1.638  23.784
 1015TIP3    H127240   6.124   1.543  23.844
 1015TIP3    H227241   6.229   1.649  23.883
 1016TIP3   OH227242   6.372   1.625  24.150
 1016TIP3    H127243   6.405   1.534  24.108
 1016TIP3    H227244   6.382   1.634  24.438
 1017TIP3   OH227245   7.204   0.147  23.766
 1017TIP3    H127246   7.271   0.144  23.553
 1017TIP3    H227247   7.125   0.180  23.628
 1018TIP3   OH227248   7.409   0.125  23.154
 1018TIP3    H127249   7.469   0.051  23.091
 1018TIP3    H227250   7.474   0.197  23.196
 1019TIP3   OH227251   5.930   0.147  23.037
 1019TIP3    H127252   5.867   0.165  22.815
 1019TIP3    H227253   5.935   0.049  23.034
 1020TIP3   OH227254   5.734   0.055  21.696
 1020TIP3    H127255   5.828   0.049  21.627
 1020TIP3    H227256   5.737   0.087  21.972
 1021TIP3   OH227257   6.442   0.139  22.971
 1021TIP3    H127258   6.519   0.187  22.875
 1021TIP3    H227259   6.457   0.139  23.265
 1022TIP3   OH227260   6.958   0.160  23.349
 1022TIP3    H127261   6.943   0.150  23.061
 1022TIP3    H227262   6.947   0.068  23.439
 1023TIP3   OH227263   7.095   0.197  22.245
 1023TIP3    H127264   7.006   0.229  22.179
 1023TIP3    H227265   7.079   0.099  22.245
 1024TIP3   OH227266   5.855   1.726  22.212
 1024TIP3    H127267   5.769   1.716  22.071
 1024TIP3    H227268   5.902   1.783  22.023
 1025TIP3   OH227269   6.013   0.198  21.588
 1025TIP3    H127270   6.012   0.105  21.483
 1025TIP3    H227271   6.108   0.216  21.612
 1026TIP3   OH227272   7.372   1.722  22.305
 1026TIP3    H127273   7.364   1.623  22.275
 1026TIP3    H227274   7.386   1.741  22.020
 1027TIP3   OH227275   5.894   0.110  26.061
 1027TIP3    H127276   5.910   0.019  25.965
 1027TIP3    H227277   5.982   0.131  26.175
 1028TIP3   OH227278   6.141   0.120  26.373
 1028TIP3    H127279   6.228   0.154  26.295
 1028TIP3    H227280   6.154   0.026  26.280
 1029TIP3   OH227281   6.980   0.048  26.583
 1029TIP3    H127282   6.941  -0.040  26.547
 1029TIP3    H227283   7.053   0.040  26.397
 1030TIP3   OH227284   7.293   1.562  25.998
 1030TIP3    H127285   7.233   1.583  25.773
 1030TIP3    H227286   7.305   1.649  26.112
 1031TIP3   OH227287   7.570   0.680  22.743
 1031TIP3    H127288   7.532   0.767  22.671
 1031TIP3    H227289   7.558   0.630  22.491
 1032TIP3   OH227290   7.591   1.132  25.032
 1032TIP3    H127291   7.527   1.125  24.813
 1032TIP3    H227292   7.592   1.040  25.140
 1033TIP3   OH227293   7.554   1.427  24.114
 1033TIP3    H127294   7.653   1.426  24.096
 1033TIP3    H227295   7.542   1.512  24.249
 1034TIP3   OH227296   7.569   0.343  23.286
 1034TIP3    H127297   7.642   0.389  23.418
 1034TIP3    H227298   7.609   0.327  23.022
 1035TIP3   OH227299   7.589   0.890  25.362
 1035TIP3    H127300   7.572   0.827  25.584
 1035TIP3    H227301   7.519   0.862  25.170
 1036TIP3   OH227302   7.634   1.082  26.319
 1036TIP3    H127303   7.584   1.008  26.427
 1036TIP3    H227304   7.570   1.126  26.136
 1037TIP3   OH227305   7.538   1.842  22.854
 1037TIP3    H127306   7.495   1.785  22.653
 1037TIP3    H227307   7.559   1.774  23.055
 1038TIP3   OH227308   7.537   1.644  23.421
 1038TIP3    H127309   7.531   1.547  23.445
 1038TIP3    H227310   7.620   1.661  23.574
 1039TIP3   OH227311   7.637   0.929  24.252
 1039TIP3    H127312   7.606   0.964  23.997
 1039TIP3    H227313   7.712   0.992  24.294
 1040TIP3   OH227314   7.541   0.516  26.268
 1040TIP3    H127315   7.635   0.535  26.319
 1040TIP3    H227316   7.536   0.418  26.250
 1041TIP3   OH227317   7.518   0.635  24.048
 1041TIP3    H127318   7.606   0.609  23.958
 1041TIP3    H227319   7.542   0.685  24.285
 1042TIP3   OH227320   7.602   0.249  22.482
 1042TIP3    H127321   7.508   0.233  22.434
 1042TIP3    H227322   7.625   0.294  22.239
 1043TIP3   OH227323   7.527   0.165  24.912
 1043TIP3    H127324   7.468   0.180  25.143
 1043TIP3    H227325   7.496   0.235  24.726
 1044TIP3   OH227326   1.198   2.887  23.007
 1044TIP3    H127327   1.188   2.984  23.022
 1044TIP3    H227328   1.135   2.867  22.788
 1045TIP3   OH227329   1.097   2.791  24.081
 1045TIP3    H127330   1.115   2.764  24.360
 1045TIP3    H227331   1.038   2.716  24.006
 1046TIP3   OH227332   0.344   2.774  24.588
 1046TIP3    H127333   0.313   2.694  24.732
 1046TIP3    H227334   0.415   2.804  24.765
 1047TIP3   OH227335   1.440   3.050  23.586
 1047TIP3    H127336   1.349   3.017  23.616
 1047TIP3    H227337   1.425   3.139  23.703
 1048TIP3   OH227338   0.377   3.241  24.000
 1048TIP3    H127339   0.353   3.147  23.952
 1048TIP3    H227340   0.473   3.227  23.997
 1049TIP3   OH227341   0.144   2.636  22.632
 1049TIP3    H127342   0.113   2.674  22.884
 1049TIP3    H227343   0.070   2.576  22.566
 1050TIP3   OH227344   0.129   2.803  23.469
 1050TIP3    H127345   0.186   2.724  23.532
 1050TIP3    H227346   0.191   2.860  23.328
 1051TIP3   OH227347   1.196   3.644  23.523
 1051TIP3    H127348   1.253   3.577  23.391
 1051TIP3    H227349   1.153   3.588  23.718
 1052TIP3   OH227350   0.923   3.068  24.261
 1052TIP3    H127351   0.972   3.038  24.024
 1052TIP3    H227352   1.001   3.083  24.438
 1053TIP3   OH227353   1.785   2.195  24.360
 1053TIP3    H127354   1.784   2.257  24.591
 1053TIP3    H227355   1.868   2.224  24.228
 1054TIP3   OH227356   1.298   2.501  24.351
 1054TIP3    H127357   1.302   2.405  24.393
 1054TIP3    H227358   1.253   2.502  24.093
 1055TIP3   OH227359   0.567   2.289  23.373
 1055TIP3    H127360   0.595   2.380  23.292
 1055TIP3    H227361   0.551   2.253  23.109
 1056TIP3   OH227362   1.322   2.317  23.052
 1056TIP3    H127363   1.376   2.284  23.283
 1056TIP3    H227364   1.382   2.385  22.950
 1057TIP3   OH227365   0.263   2.563  23.616
 1057TIP3    H127366   0.319   2.504  23.784
 1057TIP3    H227367   0.274   2.516  23.358
 1058TIP3   OH227368   0.708   2.727  23.547
 1058TIP3    H127369   0.789   2.681  23.628
 1058TIP3    H227370   0.678   2.664  23.337
 1059TIP3   OH227371   1.793   2.341  25.053
 1059TIP3    H127372   1.760   2.427  24.942
 1059TIP3    H227373   1.828   2.373  25.305
 1060TIP3   OH227374   0.482   2.185  24.624
 1060TIP3    H127375   0.444   2.248  24.429
 1060TIP3    H227376   0.429   2.209  24.858
 1061TIP3   OH227377   1.193   3.158  22.647
 1061TIP3    H127378   1.163   3.164  22.368
 1061TIP3    H227379   1.148   3.235  22.764
 1062TIP3   OH227380   0.704   2.961  24.702
 1062TIP3    H127381   0.641   3.031  24.789
 1062TIP3    H227382   0.765   3.013  24.531
 1063TIP3   OH227383   1.512   2.280  23.601
 1063TIP3    H127384   1.521   2.198  23.751
 1063TIP3    H227385   1.594   2.327  23.673
 1064TIP3   OH227386   0.413   2.394  24.042
 1064TIP3    H127387   0.469   2.454  24.213
 1064TIP3    H227388   0.478   2.356  23.859
 1065TIP3   OH227389   0.560   3.188  24.906
 1065TIP3    H127390   0.569   3.265  24.732
 1065TIP3    H227391   0.467   3.197  24.996
 1066TIP3   OH227392   0.094   3.124  22.272
 1066TIP3    H127393   0.149   3.096  22.053
 1066TIP3    H227394   0.157   3.169  22.446
 1067TIP3   OH227395   1.544   3.296  24.351
 1067TIP3    H127396   1.454   3.271  24.261
 1067TIP3    H227397   1.553   3.375  24.183
 1068TIP3   OH227398   1.500   2.145  24.573
 1068TIP3    H127399   1.426   2.166  24.390
 1068TIP3    H227400   1.577   2.174  24.414
 1069TIP3   OH227401   0.779   1.919  23.913
 1069TIP3    H127402   0.757   1.825  23.955
 1069TIP3    H227403   0.722   1.963  24.108
 1070TIP3   OH227404   1.344   3.471  23.094
 1070TIP3    H127405   1.382   3.382  23.058
 1070TIP3    H227406   1.424   3.529  23.085
 1071TIP3   OH227407   1.479   3.246  22.821
 1071TIP3    H127408   1.393   3.203  22.776
 1071TIP3    H227409   1.509   3.194  23.052
 1072TIP3   OH227410   1.619   3.132  25.371
 1072TIP3    H127411   1.629   3.057  25.179
 1072TIP3    H227412   1.622   3.207  25.185
 1073TIP3   OH227413   1.062   2.826  22.314
 1073TIP3    H127414   1.006   2.879  22.134
 1073TIP3    H227415   1.136   2.803  22.134
 1074TIP3   OH227416   1.068   2.612  21.462
 1074TIP3    H127417   1.146   2.573  21.579
 1074TIP3    H227418   1.025   2.537  21.330
 1075TIP3   OH227419   1.822   2.778  24.711
 1075TIP3    H127420   1.755   2.847  24.768
 1075TIP3    H227421   1.868   2.819  24.486
 1076TIP3   OH227422   1.455   2.863  22.617
 1076TIP3    H127423   1.380   2.879  22.800
 1076TIP3    H227424   1.512   2.808  22.794
 1077TIP3   OH227425   1.424   2.666  25.290
 1077TIP3    H127426   1.392   2.750  25.389
 1077TIP3    H227427   1.369   2.659  25.053
 1078TIP3   OH227428   0.559   2.910  23.166
 1078TIP3    H127429   0.536   2.857  22.926
 1078TIP3    H227430   0.613   2.845  23.319
 1079TIP3   OH227431   0.716   3.205  23.982
 1079TIP3    H127432   0.747   3.211  23.706
 1079TIP3    H227433   0.792   3.157  24.105
 1080TIP3   OH227434   0.625   2.755  24.282
 1080TIP3    H127435   0.664   2.765  24.012
 1080TIP3    H227436   0.653   2.835  24.429
 1081TIP3   OH227437   1.112   3.343  24.807
 1081TIP3    H127438   1.146   3.433  24.810
 1081TIP3    H227439   1.157   3.307  24.567
 1082TIP3   OH227440   0.713   3.215  25.578
 1082TIP3    H127441   0.640   3.263  25.716
 1082TIP3    H227442   0.670   3.201  25.320
 1083TIP3   OH227443   1.303   2.784  21.954
 1083TIP3    H127444   1.359   2.807  22.191
 1083TIP3    H227445   1.343   2.829  21.732
 1084TIP3   OH227446   0.452   2.838  25.326
 1084TIP3    H127447   0.444   2.911  25.524
 1084TIP3    H227448   0.362   2.800  25.338
 1085TIP3   OH227449   1.023   3.432  22.947
 1085TIP3    H127450   1.093   3.447  23.139
 1085TIP3    H227451   1.033   3.504  22.761
 1086TIP3   OH227452   0.525   3.388  25.893
 1086TIP3    H127453   0.514   3.422  25.620
 1086TIP3    H227454   0.432   3.385  25.983
 1087TIP3   OH227455   1.705   1.909  21.960
 1087TIP3    H127456   1.608   1.913  21.987
 1087TIP3    H227457   1.721   1.978  21.762
 1088TIP3   OH227458   0.456   2.776  22.524
 1088TIP3    H127459   0.405   2.848  22.410
 1088TIP3    H227460   0.406   2.696  22.455
 1089TIP3   OH227461   0.169   3.022  25.128
 1089TIP3    H127462   0.071   3.022  25.092
 1089TIP3    H227463   0.194   2.932  25.047
 1090TIP3   OH227464   0.138   3.366  24.018
 1090TIP3    H127465   0.219   3.311  24.030
 1090TIP3    H227466   0.145   3.412  24.276
 1091TIP3   OH227467   1.876   3.387  25.824
 1091TIP3    H127468   1.851   3.300  25.725
 1091TIP3    H227469   1.789   3.410  25.950
 1092TIP3   OH227470   0.961   3.335  25.599
 1092TIP3    H127471   0.956   3.432  25.587
 1092TIP3    H227472   0.867   3.305  25.578
 1093TIP3   OH227473   1.029   3.725  22.317
 1093TIP3    H127474   1.039   3.731  22.023
 1093TIP3    H227475   1.039   3.816  22.410
 1094TIP3   OH227476   0.416   3.591  23.004
 1094TIP3    H127477   0.449   3.571  23.274
 1094TIP3    H227478   0.320   3.585  23.055
 1095TIP3   OH227479   1.293   3.623  22.431
 1095TIP3    H127480   1.197   3.640  22.404
 1095TIP3    H227481   1.295   3.562  22.662
 1096TIP3   OH227482   1.576   2.522  25.938
 1096TIP3    H127483   1.519   2.563  25.731
 1096TIP3    H227484   1.567   2.428  25.869
 1097TIP3   OH227485   0.318   3.220  25.305
 1097TIP3    H127486   0.338   3.174  25.557
 1097TIP3    H227487   0.254   3.154  25.200
 1098TIP3   OH227488   1.068   1.980  25.071
 1098TIP3    H127489   1.099   1.938  25.320
 1098TIP3    H227490   0.970   1.982  25.101
 1099TIP3   OH227491   1.347   2.397  25.533
 1099TIP3    H127492   1.289   2.347  25.716
 1099TIP3    H227493   1.308   2.486  25.545
 1100TIP3   OH227494   0.985   2.286  21.585
 1100TIP3    H127495   0.982   2.202  21.729
 1100TIP3    H227496   1.003   2.253  21.315
 1101TIP3   OH227497   0.596   2.504  24.519
 1101TIP3    H127498   0.520   2.521  24.699
 1101TIP3    H227499   0.612   2.597  24.432
 1102TIP3   OH227500   0.607   2.528  23.088
 1102TIP3    H127501   0.510   2.546  23.046
 1102TIP3    H227502   0.636   2.517  22.809
 1103TIP3   OH227503   1.103   2.547  22.530
 1103TIP3    H127504   1.083   2.639  22.455
 1103TIP3    H227505   1.176   2.524  22.341
 1104TIP3   OH227506   1.027   2.616  26.040
 1104TIP3    H127507   0.981   2.534  26.127
 1104TIP3    H227508   1.098   2.620  26.235
 1105TIP3   OH227509   1.224   2.540  23.523
 1105TIP3    H127510   1.230   2.621  23.364
 1105TIP3    H227511   1.225   2.471  23.316
 1106TIP3   OH227512   0.363   2.529  24.942
 1106TIP3    H127513   0.428   2.558  25.140
 1106TIP3    H227514   0.317   2.456  25.074
 1107TIP3   OH227515   0.695   2.167  21.192
 1107TIP3    H127516   0.638   2.130  21.396
 1107TIP3    H227517   0.676   2.261  21.204
 1108TIP3   OH227518   0.141   2.318  23.205
 1108TIP3    H127519   0.098   2.292  23.451
 1108TIP3    H227520   0.073   2.301  23.007
 1109TIP3   OH227521   1.145   2.672  24.786
 1109TIP3    H127522   1.206   2.610  24.657
 1109TIP3    H227523   1.098   2.613  24.978
 1110TIP3   OH227524   0.851   2.298  23.334
 1110TIP3    H127525   0.757   2.294  23.412
 1110TIP3    H227526   0.888   2.222  23.475
 1111TIP3   OH227527   0.353   2.483  22.878
 1111TIP3    H127528   0.281   2.516  22.701
 1111TIP3    H227529   0.346   2.388  22.827
 1112TIP3   OH227530   0.686   2.490  22.335
 1112TIP3    H127531   0.771   2.443  22.326
 1112TIP3    H227532   0.652   2.481  22.065
 1113TIP3   OH227533   1.279   2.221  24.198
 1113TIP3    H127534   1.210   2.199  24.396
 1113TIP3    H227535   1.267   2.154  23.994
 1114TIP3   OH227536   1.585   3.808  26.232
 1114TIP3    H127537   1.619   3.846  25.986
 1114TIP3    H227538   1.666   3.813  26.397
 1115TIP3   OH227539   0.424   3.036  25.887
 1115TIP3    H127540   0.489   3.042  26.106
 1115TIP3    H227541   0.342   3.022  26.037
 1116TIP3   OH227542   0.970   2.561  23.904
 1116TIP3    H127543   1.037   2.544  23.703
 1116TIP3    H227544   0.951   2.471  23.997
 1117TIP3   OH227545   0.848   2.381  24.663
 1117TIP3    H127546   0.775   2.441  24.594
 1117TIP3    H227547   0.916   2.442  24.762
 1118TIP3   OH227548   0.850   3.010  22.032
 1118TIP3    H127549   0.780   2.949  21.963
 1118TIP3    H227550   0.822   3.038  22.299
 1119TIP3   OH227551   1.629   2.972  24.756
 1119TIP3    H127552   1.681   3.018  24.543
 1119TIP3    H227553   1.542   2.962  24.624
 1120TIP3   OH227554   1.011   3.065  25.518
 1120TIP3    H127555   0.965   3.049  25.770
 1120TIP3    H227556   1.013   3.163  25.515
 1121TIP3   OH227557   1.316   2.500  22.035
 1121TIP3    H127558   1.392   2.489  22.215
 1121TIP3    H227559   1.344   2.574  21.873
 1122TIP3   OH227560   0.408   2.987  23.793
 1122TIP3    H127561   0.450   2.975  23.529
 1122TIP3    H227562   0.449   2.915  23.946
 1123TIP3   OH227563   1.096   3.147  21.897
 1123TIP3    H127564   1.059   3.238  21.873
 1123TIP3    H227565   1.014   3.094  21.873
 1124TIP3   OH227566   0.183   2.748  25.314
 1124TIP3    H127567   0.179   2.733  25.602
 1124TIP3    H227568   0.086   2.756  25.263
 1125TIP3   OH227569   0.801   2.774  26.004
 1125TIP3    H127570   0.755   2.722  25.797
 1125TIP3    H227571   0.887   2.727  26.013
 1126TIP3   OH227572   1.292   3.289  25.518
 1126TIP3    H127573   1.228   3.297  25.296
 1126TIP3    H227574   1.246   3.340  25.728
 1127TIP3   OH227575   1.812   2.496  21.996
 1127TIP3    H127576   1.749   2.480  21.777
 1127TIP3    H227577   1.827   2.592  21.960
 1128TIP3   OH227578   1.856   3.100  25.788
 1128TIP3    H127579   1.761   3.112  25.722
 1128TIP3    H227580   1.894   3.086  25.518
 1129TIP3   OH227581   1.650   3.375  22.092
 1129TIP3    H127582   1.620   3.332  22.338
 1129TIP3    H227583   1.730   3.422  22.176
 1130TIP3   OH227584   1.407   2.841  24.333
 1130TIP3    H127585   1.315   2.849  24.249
 1130TIP3    H227586   1.449   2.804  24.093
 1131TIP3   OH227587   0.657   3.300  23.136
 1131TIP3    H127588   0.688   3.391  23.088
 1131TIP3    H227589   0.569   3.302  23.019
 1132TIP3   OH227590   0.759   3.061  22.839
 1132TIP3    H127591   0.723   3.149  22.908
 1132TIP3    H227592   0.708   3.000  23.010
 1133TIP3   OH227593   0.848   3.469  24.894
 1133TIP3    H127594   0.901   3.547  24.825
 1133TIP3    H227595   0.921   3.403  24.930
 1134TIP3   OH227596   0.665   3.551  22.719
 1134TIP3    H127597   0.570   3.565  22.788
 1134TIP3    H227598   0.705   3.620  22.890
 1135TIP3   OH227599   1.141   3.067  24.729
 1135TIP3    H127600   1.116   3.062  25.014
 1135TIP3    H227601   1.213   3.005  24.705
 1136TIP3   OH227602   1.471   3.521  25.404
 1136TIP3    H127603   1.383   3.480  25.362
 1136TIP3    H227604   1.474   3.587  25.185
 1137TIP3   OH227605   1.845   3.599  21.597
 1137TIP3    H127606   1.895   3.654  21.414
 1137TIP3    H227607   1.785   3.669  21.702
 1138TIP3   OH227608   0.277   2.288  25.248
 1138TIP3    H127609   0.244   2.324  25.500
 1138TIP3    H227610   0.268   2.193  25.296
 1139TIP3   OH227611   0.258   3.477  24.720
 1139TIP3    H127612   0.312   3.401  24.789
 1139TIP3    H227613   0.234   3.509  24.984
 1140TIP3   OH227614   0.848   3.239  21.141
 1140TIP3    H127615   0.866   3.297  20.916
 1140TIP3    H227616   0.753   3.226  21.117
 1141TIP3   OH227617   0.683   3.270  21.762
 1141TIP3    H127618   0.769   3.241  21.642
 1141TIP3    H227619   0.708   3.360  21.846
 1142TIP3   OH227620   1.144   2.245  25.005
 1142TIP3    H127621   1.237   2.252  25.071
 1142TIP3    H227622   1.121   2.154  25.086
 1143TIP3   OH227623   1.275   2.181  22.365
 1143TIP3    H127624   1.254   2.240  22.140
 1143TIP3    H227625   1.287   2.241  22.596
 1144TIP3   OH227626   1.002   3.402  21.885
 1144TIP3    H127627   0.912   3.436  21.927
 1144TIP3    H227628   1.035   3.468  21.693
 1145TIP3   OH227629   0.921   2.343  22.509
 1145TIP3    H127630   0.978   2.423  22.509
 1145TIP3    H227631   0.880   2.344  22.776
 1146TIP3   OH227632   1.043   2.489  25.284
 1146TIP3    H127633   1.055   2.522  25.557
 1146TIP3    H227634   1.065   2.393  25.308
 1147TIP3   OH227635   1.055   2.105  22.878
 1147TIP3    H127636   1.021   2.196  22.881
 1147TIP3    H227637   1.110   2.112  22.638
 1148TIP3   OH227638   0.756   3.547  21.942
 1148TIP3    H127639   0.824   3.615  21.966
 1148TIP3    H227640   0.716   3.547  22.212
 1149TIP3   OH227641   1.588   2.267  25.593
 1149TIP3    H127642   1.495   2.292  25.539
 1149TIP3    H227643   1.632   2.283  25.335
 1150TIP3   OH227644   1.487   2.633  23.694
 1150TIP3    H127645   1.408   2.578  23.733
 1150TIP3    H227646   1.552   2.591  23.877
 1151TIP3   OH227647   0.396   3.245  21.423
 1151TIP3    H127648   0.462   3.247  21.636
 1151TIP3    H227649   0.447   3.185  21.249
 1152TIP3   OH227650   1.589   3.593  24.246
 1152TIP3    H127651   1.589   3.659  24.030
 1152TIP3    H227652   1.686   3.583  24.276
 1153TIP3   OH227653   0.230   3.385  22.662
 1153TIP3    H127654   0.139   3.414  22.656
 1153TIP3    H227655   0.267   3.437  22.443
 1154TIP3   OH227656   0.163   3.655  26.085
 1154TIP3    H127657   0.221   3.662  26.319
 1154TIP3    H227658   0.135   3.564  26.124
 1155TIP3   OH227659   0.630   3.563  26.547
 1155TIP3    H127660   0.707   3.512  26.637
 1155TIP3    H227661   0.611   3.520  26.295
 1156TIP3   OH227662   1.240   3.405  26.253
 1156TIP3    H127663   1.205   3.314  26.307
 1156TIP3    H227664   1.329   3.399  26.367
 1157TIP3   OH227665   0.203   3.062  26.451
 1157TIP3    H127666   0.222   2.967  26.490
 1157TIP3    H227667   0.109   3.052  26.382
 1158TIP3   OH227668   0.565   3.051  21.132
 1158TIP3    H127669   0.632   2.997  21.270
 1158TIP3    H227670   0.589   3.027  20.859
 1159TIP3   OH227671   0.789   3.043  26.154
 1159TIP3    H127672   0.773   3.092  25.899
 1159TIP3    H227673   0.800   2.949  26.073
 1160TIP3   OH227674   1.355   3.014  25.506
 1160TIP3    H127675   1.441   3.060  25.521
 1160TIP3    H227676   1.297   3.091  25.467
 1161TIP3   OH227677   0.222   2.735  26.346
 1161TIP3    H127678   0.293   2.668  26.316
 1161TIP3    H227679   0.225   2.756  26.634
 1162TIP3   OH227680   0.616   2.630  25.341
 1162TIP3    H127681   0.564   2.713  25.371
 1162TIP3    H227682   0.695   2.665  25.197
 1163TIP3   OH227683   1.157   2.922  26.412
 1163TIP3    H127684   1.211   2.874  26.217
 1163TIP3    H227685   1.125   2.848  26.574
 1164TIP3   OH227686   0.659   2.391  25.683
 1164TIP3    H127687   0.673   2.330  25.458
 1164TIP3    H227688   0.662   2.478  25.548
 1165TIP3   OH227689   0.709   2.198  25.059
 1165TIP3    H127690   0.771   2.253  24.900
 1165TIP3    H227691   0.630   2.204  24.891
 1166TIP3   OH227692   0.836   2.759  25.059
 1166TIP3    H127693   0.925   2.768  24.957
 1166TIP3    H227694   0.792   2.839  24.945
 1167TIP3   OH227695   1.283   2.517  26.529
 1167TIP3    H127696   1.313   2.425  26.502
 1167TIP3    H227697   1.364   2.565  26.595
 1168TIP3   OH227698   1.441   2.842  26.088
 1168TIP3    H127699   1.401   2.895  25.875
 1168TIP3    H227700   1.534   2.842  26.001
 1169TIP3   OH227701   0.459   2.514  26.271
 1169TIP3    H127702   0.402   2.436  26.325
 1169TIP3    H227703   0.521   2.475  26.079
 1170TIP3   OH227704   0.795   1.950  25.080
 1170TIP3    H127705   0.764   2.043  25.101
 1170TIP3    H227706   0.715   1.906  24.987
 1171TIP3   OH227707   0.896   2.392  26.253
 1171TIP3    H127708   0.857   2.356  26.496
 1171TIP3    H227709   0.827   2.372  26.055
 1172TIP3   OH227710   1.168   2.298  26.022
 1172TIP3    H127711   1.078   2.311  26.115
 1172TIP3    H227712   1.203   2.241  26.238
 1173TIP3   OH227713   1.321   2.162  26.547
 1173TIP3    H127714   1.324   2.065  26.532
 1173TIP3    H227715   1.316   2.178  26.832
 1174TIP3   OH227716   0.308   2.292  26.346
 1174TIP3    H127717   0.344   2.215  26.202
 1174TIP3    H227718   0.277   2.250  26.598
 1175TIP3   OH227719   0.788   1.926  25.935
 1175TIP3    H127720   0.866   1.869  25.962
 1175TIP3    H227721   0.785   1.932  25.644
 1176TIP3   OH227722   0.797   2.043  26.688
 1176TIP3    H127723   0.781   2.004  26.421
 1176TIP3    H227724   0.753   2.131  26.673
 1177TIP3   OH227725   0.122   3.170  21.231
 1177TIP3    H127726   0.146   3.258  21.327
 1177TIP3    H227727   0.210   3.133  21.201
 1178TIP3   OH227728   0.085   3.713  22.641
 1178TIP3    H127729   0.001   3.735  22.782
 1178TIP3    H227730   0.146   3.730  22.860
 1179TIP3   OH227731   0.182   3.580  23.409
 1179TIP3    H127732   0.176   3.483  23.397
 1179TIP3    H227733   0.213   3.597  23.682
 1180TIP3   OH227734   1.876   3.630  24.243
 1180TIP3    H127735   1.893   3.609  24.519
 1180TIP3    H227736   1.914   3.719  24.228
 1181TIP3   OH227737   1.831   3.574  25.215
 1181TIP3    H127738   1.786   3.497  25.092
 1181TIP3    H227739   1.859   3.534  25.473
 1182TIP3   OH227740   1.667   3.150  26.640
 1182TIP3    H127741   1.576   3.160  26.742
 1182TIP3    H227742   1.706   3.238  26.706
 1183TIP3   OH227743   1.790   3.005  22.107
 1183TIP3    H127744   1.880   3.043  22.149
 1183TIP3    H227745   1.779   2.955  22.359
 1184TIP3   OH227746   1.804   2.821  22.776
 1184TIP3    H127747   1.730   2.764  22.875
 1184TIP3    H227748   1.857   2.829  23.022
 1185TIP3   OH227749   1.802   3.072  24.243
 1185TIP3    H127750   1.871   3.008  24.156
 1185TIP3    H227751   1.837   3.157  24.144
 1186TIP3   OH227752   1.671   3.373  24.990
 1186TIP3    H127753   1.597   3.412  25.140
 1186TIP3    H227754   1.621   3.346  24.744
 1187TIP3   OH227755   1.816   2.750  21.735
 1187TIP3    H127756   1.802   2.788  21.474
 1187TIP3    H227757   1.841   2.827  21.900
 1188TIP3   OH227758   1.609   2.662  22.995
 1188TIP3    H127759   1.575   2.576  22.914
 1188TIP3    H227760   1.585   2.662  23.280
 1189TIP3   OH227761   0.173   2.940  24.234
 1189TIP3    H127762   0.200   2.911  23.967
 1189TIP3    H227763   0.254   2.915  24.378
 1190TIP3   OH227764   1.718   2.856  25.875
 1190TIP3    H127765   1.764   2.770  25.920
 1190TIP3    H227766   1.790   2.923  25.866
 1191TIP3   OH227767   1.830   2.611  25.986
 1191TIP3    H127768   1.738   2.580  25.929
 1191TIP3    H227769   1.879   2.527  26.031
 1192TIP3   OH227770   1.546   2.450  22.524
 1192TIP3    H127771   1.558   2.352  22.521
 1192TIP3    H227772   1.638   2.475  22.458
 1193TIP3   OH227773   1.657   2.488  24.141
 1193TIP3    H127774   1.754   2.500  24.162
 1193TIP3    H227775   1.633   2.496  24.423
 1194TIP3   OH227776   1.652   2.560  24.930
 1194TIP3    H127777   1.568   2.585  25.059
 1194TIP3    H227778   1.693   2.646  24.861
 1195TIP3   OH227779   0.117   2.374  25.866
 1195TIP3    H127780   0.192   2.384  26.055
 1195TIP3    H227781   0.114   2.278  25.830
 1196TIP3   OH227782   1.892   2.000  26.508
 1196TIP3    H127783   1.937   1.926  26.376
 1196TIP3    H227784   1.878   2.063  26.280
 1197TIP3   OH227785   1.642   2.175  22.584
 1197TIP3    H127786   1.673   2.120  22.809
 1197TIP3    H227787   1.596   2.110  22.419
 1198TIP3   OH227788   0.083   2.518  24.210
 1198TIP3    H127789   0.146   2.526  23.988
 1198TIP3    H227790   0.105   2.597  24.366
 1199TIP3   OH227791   1.817   2.172  25.947
 1199TIP3    H127792   1.729   2.214  25.977
 1199TIP3    H227793   1.793   2.113  25.725
 1200TIP3   OH227794   1.835   2.127  21.426
 1200TIP3    H127795   1.906   2.063  21.411
 1200TIP3    H227796   1.883   2.211  21.465
 1201TIP3   OH227797   1.542   3.651  23.082
 1201TIP3    H127798   1.615   3.663  22.893
 1201TIP3    H227799   1.564   3.712  23.301
 1202TIP3   OH227800   0.074   1.999  24.996
 1202TIP3    H127801   0.002   1.997  25.194
 1202TIP3    H227802   0.037   2.056  24.792
 1203TIP3   OH227803   0.255   3.335  26.145
 1203TIP3    H127804   0.176   3.318  25.983
 1203TIP3    H227805   0.267   3.250  26.286
 1204TIP3   OH227806   0.566   3.491  25.125
 1204TIP3    H127807   0.560   3.580  25.008
 1204TIP3    H227808   0.662   3.474  25.110
 1205TIP3   OH227809   0.990   3.604  25.842
 1205TIP3    H127810   0.998   3.556  26.094
 1205TIP3    H227811   1.080   3.639  25.803
 1206TIP3   OH227812   1.211   3.755  25.680
 1206TIP3    H127813   1.281   3.698  25.581
 1206TIP3    H227814   1.242   3.778  25.950
 1207TIP3   OH227815   1.719   1.956  25.476
 1207TIP3    H127816   1.650   1.998  25.314
 1207TIP3    H227817   1.728   1.869  25.341
 1208TIP3   OH227818   0.320   3.782  25.080
 1208TIP3    H127819   0.234   3.814  24.975
 1208TIP3    H227820   0.300   3.767  25.362
 1209TIP3   OH227821   0.553   3.734  24.738
 1209TIP3    H127822   0.459   3.742  24.828
 1209TIP3    H227823   0.556   3.801  24.531
 1210TIP3   OH227824   1.001   3.688  24.576
 1210TIP3    H127825   0.937   3.714  24.369
 1210TIP3    H227826   1.013   3.776  24.693
 1211TIP3   OH227827   1.232   3.588  24.933
 1211TIP3    H127828   1.167   3.621  24.738
 1211TIP3    H227829   1.299   3.656  24.897
 1212TIP3   OH227830   1.491   3.741  24.855
 1212TIP3    H127831   1.509   3.832  24.762
 1212TIP3    H227832   1.504   3.691  24.603
 1213TIP3   OH227833   0.301   3.648  24.123
 1213TIP3    H127834   0.270   3.588  24.339
 1213TIP3    H227835   0.384   3.602  24.036
 1214TIP3   OH227836   0.501   3.514  23.742
 1214TIP3    H127837   0.465   3.425  23.790
 1214TIP3    H227838   0.591   3.507  23.862
 1215TIP3   OH227839   0.727   3.483  24.162
 1215TIP3    H127840   0.772   3.397  24.168
 1215TIP3    H227841   0.753   3.517  24.423
 1216TIP3   OH227842   1.004   2.046  23.721
 1216TIP3    H127843   0.939   1.973  23.697
 1216TIP3    H227844   1.041   2.057  23.457
 1217TIP3   OH227845   1.593   1.924  23.727
 1217TIP3    H127846   1.658   1.977  23.568
 1217TIP3    H227847   1.508   1.950  23.604
 1218TIP3   OH227848   1.756   2.048  23.220
 1218TIP3    H127849   1.819   1.985  23.091
 1218TIP3    H227850   1.815   2.126  23.265
 1219TIP3   OH227851   0.772   1.946  23.016
 1219TIP3    H127852   0.824   2.019  22.905
 1219TIP3    H227853   0.791   1.948  23.301
 1220TIP3   OH227854   1.343   1.968  23.397
 1220TIP3    H127855   1.287   1.991  23.169
 1220TIP3    H227856   1.294   1.890  23.502
 1221TIP3   OH227857   1.449   1.947  22.095
 1221TIP3    H127858   1.391   2.018  22.182
 1221TIP3    H227859   1.410   1.870  22.239
 1222TIP3   OH227860   0.130   3.558  21.978
 1222TIP3    H127861   0.039   3.577  21.897
 1222TIP3    H227862   0.131   3.614  22.221
 1223TIP3   OH227863   0.862   2.098  22.092
 1223TIP3    H127864   0.763   2.093  22.095
 1223TIP3    H227865   0.872   2.188  22.206
 1224TIP3   OH227866   1.084   3.635  21.588
 1224TIP3    H127867   1.157   3.680  21.453
 1224TIP3    H227868   1.038   3.603  21.345
 1225TIP3   OH227869   1.710   3.616  22.491
 1225TIP3    H127870   1.649   3.556  22.359
 1225TIP3    H227871   1.712   3.691  22.299
 1226TIP3   OH227872   0.253   2.028  25.959
 1226TIP3    H127873   0.207   1.941  25.950
 1226TIP3    H227874   0.341   2.001  26.061
 1227TIP3   OH227875   0.489   1.969  26.475
 1227TIP3    H127876   0.578   1.940  26.394
 1227TIP3    H227877   0.459   1.887  26.607
 1228TIP3   OH227878   1.327   1.888  26.493
 1228TIP3    H127879   1.332   1.828  26.727
 1228TIP3    H227880   1.419   1.881  26.391
 1229TIP3   OH227881   1.646   3.500  26.016
 1229TIP3    H127882   1.574   3.494  25.812
 1229TIP3    H227883   1.636   3.592  26.106
 1230TIP3   OH227884   3.110   2.893  22.980
 1230TIP3    H127885   3.088   2.987  22.986
 1230TIP3    H227886   3.035   2.862  22.815
 1231TIP3   OH227887   2.994   2.783  24.054
 1231TIP3    H127888   3.001   2.741  24.318
 1231TIP3    H227889   2.932   2.718  23.931
 1232TIP3   OH227890   2.194   2.784  24.573
 1232TIP3    H127891   2.189   2.699  24.717
 1232TIP3    H227892   2.289   2.802  24.582
 1233TIP3   OH227893   2.305   3.228  24.006
 1233TIP3    H127894   2.277   3.137  23.943
 1233TIP3    H227895   2.401   3.221  23.958
 1234TIP3   OH227896   1.975   2.563  22.665
 1234TIP3    H127897   1.939   2.649  22.746
 1234TIP3    H227898   1.898   2.526  22.530
 1235TIP3   OH227899   2.013   2.788  23.442
 1235TIP3    H127900   2.069   2.711  23.511
 1235TIP3    H227901   2.076   2.854  23.340
 1236TIP3   OH227902   3.048   3.628  23.565
 1236TIP3    H127903   3.057   3.575  23.319
 1236TIP3    H227904   3.026   3.562  23.766
 1237TIP3   OH227905   2.803   3.042  24.312
 1237TIP3    H127906   2.852   2.992  24.114
 1237TIP3    H227907   2.879   3.072  24.474
 1238TIP3   OH227908   3.652   2.216  24.363
 1238TIP3    H127909   3.666   2.267  24.612
 1238TIP3    H227910   3.731   2.241  24.210
 1239TIP3   OH227911   3.170   2.510  24.444
 1239TIP3    H127912   3.181   2.413  24.426
 1239TIP3    H227913   3.139   2.533  24.174
 1240TIP3   OH227914   2.457   2.380  23.670
 1240TIP3    H127915   2.447   2.431  23.421
 1240TIP3    H227916   2.494   2.297  23.559
 1241TIP3   OH227917   3.234   2.352  23.151
 1241TIP3    H127918   3.299   2.295  23.286
 1241TIP3    H227919   3.266   2.352  22.878
 1242TIP3   OH227920   2.108   2.532  23.640
 1242TIP3    H127921   2.166   2.492  23.844
 1242TIP3    H227922   2.149   2.498  23.394
 1243TIP3   OH227923   2.580   2.719  23.574
 1243TIP3    H127924   2.664   2.686  23.685
 1243TIP3    H227925   2.557   2.646  23.391
 1244TIP3   OH227926   3.678   2.336  25.071
 1244TIP3    H127927   3.637   2.421  24.984
 1244TIP3    H227928   3.718   2.363  25.323
 1245TIP3   OH227929   2.332   2.195  24.726
 1245TIP3    H127930   2.297   2.246  24.501
 1245TIP3    H227931   2.270   2.218  24.942
 1246TIP3   OH227932   2.564   2.963  24.645
 1246TIP3    H127933   2.511   3.035  24.759
 1246TIP3    H227934   2.633   3.012  24.495
 1247TIP3   OH227935   3.448   2.274  23.634
 1247TIP3    H127936   3.423   2.196  23.781
 1247TIP3    H227937   3.480   2.335  23.841
 1248TIP3   OH227938   2.266   2.412  24.183
 1248TIP3    H127939   2.326   2.461  24.366
 1248TIP3    H227940   2.332   2.391  23.970
 1249TIP3   OH227941   2.444   3.189  24.927
 1249TIP3    H127942   2.424   3.255  24.723
 1249TIP3    H227943   2.356   3.177  25.053
 1250TIP3   OH227944   2.028   3.133  22.251
 1250TIP3    H127945   2.047   3.196  22.038
 1250TIP3    H227946   2.038   3.193  22.485
 1251TIP3   OH227947   3.375   2.158  24.639
 1251TIP3    H127948   3.300   2.186  24.465
 1251TIP3    H227949   3.451   2.172  24.459
 1252TIP3   OH227950   2.709   1.953  24.021
 1252TIP3    H127951   2.675   1.882  23.856
 1252TIP3    H227952   2.627   2.008  24.045
 1253TIP3   OH227953   3.495   3.133  25.398
 1253TIP3    H127954   3.508   3.059  25.203
 1253TIP3    H227955   3.498   3.208  25.209
 1254TIP3   OH227956   2.962   2.803  22.281
 1254TIP3    H127957   2.887   2.862  22.200
 1254TIP3    H227958   3.031   2.835  22.098
 1255TIP3   OH227959   2.975   2.630  21.273
 1255TIP3    H127960   3.021   2.670  21.504
 1255TIP3    H227961   2.949   2.543  21.378
 1256TIP3   OH227962   3.703   2.765  24.750
 1256TIP3    H127963   3.644   2.842  24.789
 1256TIP3    H227964   3.758   2.797  24.531
 1257TIP3   OH227965   3.339   2.832  22.584
 1257TIP3    H127966   3.256   2.852  22.728
 1257TIP3    H227967   3.389   2.778  22.779
 1258TIP3   OH227968   3.299   2.661  25.299
 1258TIP3    H127969   3.278   2.751  25.386
 1258TIP3    H227970   3.248   2.658  25.050
 1259TIP3   OH227971   2.490   2.905  23.070
 1259TIP3    H127972   2.451   2.852  22.848
 1259TIP3    H227973   2.532   2.836  23.238
 1260TIP3   OH227974   2.606   3.225  23.961
 1260TIP3    H127975   2.618   3.202  23.679
 1260TIP3    H227976   2.676   3.173  24.093
 1261TIP3   OH227977   2.464   2.753  24.264
 1261TIP3    H127978   2.499   2.751  23.988
 1261TIP3    H227979   2.517   2.824  24.390
 1262TIP3   OH227980   3.166   3.356  24.468
 1262TIP3    H127981   3.131   3.415  24.678
 1262TIP3    H227982   3.135   3.268  24.549
 1263TIP3   OH227983   2.598   3.220  25.578
 1263TIP3    H127984   2.524   3.265  25.713
 1263TIP3    H227985   2.555   3.206  25.317
 1264TIP3   OH227986   3.196   2.768  21.834
 1264TIP3    H127987   3.237   2.724  22.065
 1264TIP3    H227988   3.260   2.839  21.777
 1265TIP3   OH227989   2.317   2.848  25.392
 1265TIP3    H127990   2.291   2.938  25.455
 1265TIP3    H227991   2.233   2.806  25.329
 1266TIP3   OH227992   2.407   3.377  25.869
 1266TIP3    H127993   2.432   3.412  25.602
 1266TIP3    H227994   2.311   3.385  25.848
 1267TIP3   OH227995   2.345   2.795  22.422
 1267TIP3    H127996   2.317   2.880  22.293
 1267TIP3    H227997   2.289   2.731  22.293
 1268TIP3   OH227998   3.774   3.358  21.558
 1268TIP3    H127999   3.712   3.433  21.549
 1268TIP3    H228000   3.792   3.345  21.276
 1269TIP3   OH228001   2.006   3.037  25.152
 1269TIP3    H128002   1.969   3.025  24.888
 1269TIP3    H228003   2.028   2.943  25.212
 1270TIP3   OH228004   1.978   3.314  24.039
 1270TIP3    H128005   2.075   3.309  24.057
 1270TIP3    H228006   1.960   3.383  24.231
 1271TIP3   OH228007   3.756   3.365  25.923
 1271TIP3    H128008   3.722   3.332  25.668
 1271TIP3    H228009   3.674   3.410  26.022
 1272TIP3   OH228010   2.856   3.336  25.545
 1272TIP3    H128011   2.856   3.421  25.692
 1272TIP3    H228012   2.762   3.306  25.557
 1273TIP3   OH228013   2.894   3.735  22.374
 1273TIP3    H128014   2.902   3.732  22.083
 1273TIP3    H228015   2.919   3.826  22.443
 1274TIP3   OH228016   2.278   3.591  23.028
 1274TIP3    H128017   2.302   3.560  23.298
 1274TIP3    H228018   2.187   3.559  23.001
 1275TIP3   OH228019   3.464   2.542  25.938
 1275TIP3    H128020   3.405   2.587  25.746
 1275TIP3    H228021   3.451   2.449  25.854
 1276TIP3   OH228022   2.221   3.158  25.392
 1276TIP3    H128023   2.208   3.117  25.656
 1276TIP3    H228024   2.139   3.126  25.257
 1277TIP3   OH228025   2.467   2.047  24.195
 1277TIP3    H128026   2.384   2.060  24.045
 1277TIP3    H228027   2.436   2.066  24.465
 1278TIP3   OH228028   2.955   1.983  25.080
 1278TIP3    H128029   2.990   1.945  25.329
 1278TIP3    H228030   2.858   1.985  25.125
 1279TIP3   OH228031   3.201   2.397  25.521
 1279TIP3    H128032   3.144   2.371  25.752
 1279TIP3    H228033   3.191   2.493  25.509
 1280TIP3   OH228034   2.491   2.503  24.558
 1280TIP3    H128035   2.433   2.533  24.771
 1280TIP3    H228036   2.495   2.585  24.396
 1281TIP3   OH228037   2.471   2.559  23.019
 1281TIP3    H128038   2.378   2.538  22.950
 1281TIP3    H228039   2.506   2.575  22.746
 1282TIP3   OH228040   3.031   2.594  22.758
 1282TIP3    H128041   2.997   2.666  22.584
 1282TIP3    H228042   3.097   2.555  22.575
 1283TIP3   OH228043   2.903   2.618  26.085
 1283TIP3    H128044   2.866   2.533  26.184
 1283TIP3    H228045   2.984   2.624  26.247
 1284TIP3   OH228046   3.118   2.541  23.586
 1284TIP3    H128047   3.093   2.580  23.328
 1284TIP3    H228048   3.147   2.454  23.481
 1285TIP3   OH228049   2.228   2.525  24.951
 1285TIP3    H128050   2.270   2.544  25.206
 1285TIP3    H228051   2.195   2.435  25.002
 1286TIP3   OH228052   1.930   2.251  23.286
 1286TIP3    H128053   1.999   2.255  23.490
 1286TIP3    H228054   1.981   2.240  23.043
 1287TIP3   OH228055   2.011   2.323  21.810
 1287TIP3    H128056   2.083   2.361  21.657
 1287TIP3    H228057   1.953   2.400  21.867
 1288TIP3   OH228058   3.018   2.693  24.813
 1288TIP3    H128059   3.085   2.629  24.711
 1288TIP3    H228060   2.964   2.635  24.987
 1289TIP3   OH228061   2.778   2.307  23.310
 1289TIP3    H128062   2.695   2.256  23.262
 1289TIP3    H228063   2.814   2.262  23.541
 1290TIP3   OH228064   2.217   2.453  22.893
 1290TIP3    H128065   2.130   2.469  22.767
 1290TIP3    H228066   2.255   2.380  22.734
 1291TIP3   OH228067   2.578   2.533  22.266
 1291TIP3    H128068   2.659   2.490  22.374
 1291TIP3    H228069   2.558   2.474  22.044
 1292TIP3   OH228070   3.170   2.230  24.216
 1292TIP3    H128071   3.107   2.225  24.444
 1292TIP3    H228072   3.135   2.162  24.030
 1293TIP3   OH228073   3.461   3.798  26.187
 1293TIP3    H128074   3.491   3.834  25.929
 1293TIP3    H228075   3.543   3.802  26.340
 1294TIP3   OH228076   2.227   3.043  26.133
 1294TIP3    H128077   2.296   2.994  26.277
 1294TIP3    H228078   2.148   3.002  26.253
 1295TIP3   OH228079   2.825   2.579  23.874
 1295TIP3    H128080   2.877   2.541  23.658
 1295TIP3    H228081   2.807   2.499  24.030
 1296TIP3   OH228082   2.279   2.155  22.620
 1296TIP3    H128083   2.244   2.101  22.839
 1296TIP3    H228084   2.371   2.164  22.728
 1297TIP3   OH228085   2.745   2.392  24.537
 1297TIP3    H128086   2.659   2.438  24.528
 1297TIP3    H228087   2.790   2.439  24.753
 1298TIP3   OH228088   2.774   2.988  22.119
 1298TIP3    H128089   2.687   2.947  22.053
 1298TIP3    H228090   2.755   3.042  22.356
 1299TIP3   OH228091   3.524   2.974  24.759
 1299TIP3    H128092   3.567   3.014  24.522
 1299TIP3    H228093   3.442   2.942  24.636
 1300TIP3   OH228094   2.896   3.068  25.470
 1300TIP3    H128095   2.861   3.032  25.719
 1300TIP3    H228096   2.887   3.164  25.518
 1301TIP3   OH228097   3.223   2.503  22.134
 1301TIP3    H128098   3.310   2.463  22.197
 1301TIP3    H228099   3.228   2.513  21.846
 1302TIP3   OH228100   2.302   2.958  23.766
 1302TIP3    H128101   2.362   2.955  23.535
 1302TIP3    H228102   2.336   2.886  23.934
 1303TIP3   OH228103   2.005   2.778  25.362
 1303TIP3    H128104   1.977   2.740  25.617
 1303TIP3    H228105   1.942   2.739  25.170
 1304TIP3   OH228106   2.672   2.767  26.010
 1304TIP3    H128107   2.631   2.708  25.818
 1304TIP3    H228108   2.763   2.729  26.028
 1305TIP3   OH228109   3.175   3.283  25.539
 1305TIP3    H128110   3.093   3.294  25.386
 1305TIP3    H228111   3.149   3.332  25.782
 1306TIP3   OH228112   3.691   2.489  22.017
 1306TIP3    H128113   3.691   2.405  21.861
 1306TIP3    H228114   3.772   2.530  21.924
 1307TIP3   OH228115   3.735   3.081  25.764
 1307TIP3    H128116   3.646   3.086  25.641
 1307TIP3    H228117   3.789   3.071  25.518
 1308TIP3   OH228118   3.296   2.826  24.306
 1308TIP3    H128119   3.201   2.833  24.243
 1308TIP3    H228120   3.328   2.771  24.081
 1309TIP3   OH228121   2.520   3.314  23.154
 1309TIP3    H128122   2.569   3.393  23.073
 1309TIP3    H228123   2.431   3.330  23.046
 1310TIP3   OH228124   2.692   3.089  22.926
 1310TIP3    H128125   2.627   3.162  22.941
 1310TIP3    H228126   2.639   3.011  22.998
 1311TIP3   OH228127   2.723   3.484  24.948
 1311TIP3    H128128   2.784   3.551  24.846
 1311TIP3    H228129   2.779   3.440  25.152
 1312TIP3   OH228130   2.522   3.580  22.722
 1312TIP3    H128131   2.430   3.577  22.824
 1312TIP3    H228132   2.551   3.667  22.833
 1313TIP3   OH228133   3.028   3.087  24.705
 1313TIP3    H128134   2.994   3.066  24.978
 1313TIP3    H228135   3.076   3.005  24.639
 1314TIP3   OH228136   3.361   3.510  25.425
 1314TIP3    H128137   3.269   3.475  25.434
 1314TIP3    H228138   3.352   3.587  25.242
 1315TIP3   OH228139   3.724   3.664  21.600
 1315TIP3    H128140   3.808   3.711  21.540
 1315TIP3    H228141   3.663   3.727  21.486
 1316TIP3   OH228142   2.166   2.274  25.305
 1316TIP3    H128143   2.099   2.318  25.473
 1316TIP3    H228144   2.157   2.182  25.401
 1317TIP3   OH228145   3.373   2.998  21.954
 1317TIP3    H128146   3.364   2.944  22.200
 1317TIP3    H228147   3.421   3.075  22.053
 1318TIP3   OH228148   2.119   3.440  24.735
 1318TIP3    H128149   2.189   3.377  24.804
 1318TIP3    H228150   2.104   3.487  24.984
 1319TIP3   OH228151   2.579   3.263  21.816
 1319TIP3    H128152   2.658   3.210  21.867
 1319TIP3    H228153   2.604   3.357  21.867
 1320TIP3   OH228154   2.249   3.002  21.990
 1320TIP3    H128155   2.170   3.050  22.080
 1320TIP3    H228156   2.293   3.072  21.831
 1321TIP3   OH228157   3.039   2.264  24.936
 1321TIP3    H128158   3.099   2.300  25.140
 1321TIP3    H228159   3.010   2.180  25.053
 1322TIP3   OH228160   3.066   2.200  22.248
 1322TIP3    H128161   3.056   2.210  21.957
 1322TIP3    H228162   3.156   2.167  22.254
 1323TIP3   OH228163   2.804   2.412  22.578
 1323TIP3    H128164   2.889   2.456  22.632
 1323TIP3    H228165   2.781   2.371  22.839
 1324TIP3   OH228166   2.907   2.509  25.290
 1324TIP3    H128167   2.912   2.539  25.572
 1324TIP3    H228168   2.943   2.419  25.290
 1325TIP3   OH228169   2.916   2.097  22.983
 1325TIP3    H128170   2.853   2.171  22.968
 1325TIP3    H228171   2.974   2.112  22.752
 1326TIP3   OH228172   2.599   3.528  21.978
 1326TIP3    H128173   2.690   3.559  22.002
 1326TIP3    H228174   2.571   3.533  22.260
 1327TIP3   OH228175   3.460   2.291  25.584
 1327TIP3    H128176   3.367   2.301  25.500
 1327TIP3    H228177   3.510   2.292  25.332
 1328TIP3   OH228178   3.372   2.648  23.700
 1328TIP3    H128179   3.290   2.594  23.694
 1328TIP3    H228180   3.432   2.594  23.877
 1329TIP3   OH228181   2.319   3.232  21.591
 1329TIP3    H128182   2.415   3.240  21.663
 1329TIP3    H228183   2.317   3.259  21.312
 1330TIP3   OH228184   2.148   2.503  21.084
 1330TIP3    H128185   2.220   2.565  21.135
 1330TIP3    H228186   2.071   2.560  21.108
 1331TIP3   OH228187   3.454   3.582  24.213
 1331TIP3    H128188   3.453   3.650  24.000
 1331TIP3    H228189   3.550   3.575  24.258
 1332TIP3   OH228190   2.194   1.989  23.973
 1332TIP3    H128191   2.203   1.983  23.676
 1332TIP3    H228192   2.176   1.895  24.033
 1333TIP3   OH228193   2.066   3.354  22.716
 1333TIP3    H128194   2.002   3.426  22.743
 1333TIP3    H228195   2.126   3.395  22.521
 1334TIP3   OH228196   2.022   3.666  26.166
 1334TIP3    H128197   2.079   3.642  26.397
 1334TIP3    H228198   1.986   3.579  26.094
 1335TIP3   OH228199   2.485   3.520  26.556
 1335TIP3    H128200   2.574   3.493  26.649
 1335TIP3    H228201   2.495   3.509  26.268
 1336TIP3   OH228202   3.120   3.411  26.256
 1336TIP3    H128203   3.085   3.321  26.325
 1336TIP3    H228204   3.205   3.410  26.400
 1337TIP3   OH228205   1.978   3.024  26.478
 1337TIP3    H128206   1.940   2.934  26.478
 1337TIP3    H228207   1.947   3.058  26.217
 1338TIP3   OH228208   2.665   3.028  26.106
 1338TIP3    H128209   2.650   3.083  25.866
 1338TIP3    H228210   2.661   2.934  26.007
 1339TIP3   OH228211   3.249   3.007  25.515
 1339TIP3    H128212   3.339   3.043  25.518
 1339TIP3    H228213   3.201   3.092  25.548
 1340TIP3   OH228214   2.134   2.753  26.289
 1340TIP3    H128215   2.170   2.665  26.244
 1340TIP3    H228216   2.177   2.784  26.535
 1341TIP3   OH228217   2.557   2.867  21.825
 1341TIP3    H128218   2.497   2.809  21.975
 1341TIP3    H228219   2.608   2.804  21.657
 1342TIP3   OH228220   2.483   2.639  25.329
 1342TIP3    H128221   2.424   2.714  25.389
 1342TIP3    H228222   2.555   2.686  25.185
 1343TIP3   OH228223   2.710   2.703  21.294
 1343TIP3    H128224   2.655   2.661  21.096
 1343TIP3    H228225   2.797   2.659  21.258
 1344TIP3   OH228226   3.038   2.932  26.433
 1344TIP3    H128227   3.106   2.881  26.292
 1344TIP3    H228228   3.006   2.866  26.625
 1345TIP3   OH228229   2.571   2.402  25.647
 1345TIP3    H128230   2.574   2.338  25.425
 1345TIP3    H228231   2.554   2.487  25.509
 1346TIP3   OH228232   2.588   2.214  24.990
 1346TIP3    H128233   2.640   2.250  24.765
 1346TIP3    H228234   2.498   2.219  24.876
 1347TIP3   OH228235   2.716   2.777  25.044
 1347TIP3    H128236   2.807   2.799  24.972
 1347TIP3    H228237   2.668   2.854  24.936
 1348TIP3   OH228238   3.165   2.512  26.517
 1348TIP3    H128239   3.201   2.422  26.502
 1348TIP3    H228240   3.241   2.565  26.601
 1349TIP3   OH228241   3.318   2.848  26.109
 1349TIP3    H128242   3.276   2.898  25.890
 1349TIP3    H228243   3.407   2.833  25.995
 1350TIP3   OH228244   2.410   2.472  26.304
 1350TIP3    H128245   2.327   2.428  26.211
 1350TIP3    H228246   2.473   2.442  26.097
 1351TIP3   OH228247   2.676   1.961  25.089
 1351TIP3    H128248   2.644   2.053  25.065
 1351TIP3    H228249   2.602   1.913  24.972
 1352TIP3   OH228250   2.770   2.386  26.310
 1352TIP3    H128251   2.707   2.359  26.520
 1352TIP3    H228252   2.713   2.375  26.073
 1353TIP3   OH228253   3.027   2.311  26.046
 1353TIP3    H128254   2.940   2.328  26.172
 1353TIP3    H228255   3.073   2.256  26.247
 1354TIP3   OH228256   3.202   2.174  26.514
 1354TIP3    H128257   3.211   2.076  26.505
 1354TIP3    H228258   3.192   2.192  26.802
 1355TIP3   OH228259   2.191   2.300  26.289
 1355TIP3    H128260   2.178   2.220  26.124
 1355TIP3    H228261   2.169   2.266  26.559
 1356TIP3   OH228262   2.669   1.917  25.956
 1356TIP3    H128263   2.740   1.850  25.995
 1356TIP3    H228264   2.661   1.911  25.662
 1357TIP3   OH228265   2.681   2.053  26.670
 1357TIP3    H128266   2.665   2.011  26.409
 1357TIP3    H228267   2.642   2.143  26.640
 1358TIP3   OH228268   1.917   3.741  22.887
 1358TIP3    H128269   1.844   3.687  22.776
 1358TIP3    H228270   1.947   3.683  23.106
 1359TIP3   OH228271   1.976   3.566  23.466
 1359TIP3    H128272   1.939   3.479  23.526
 1359TIP3    H228273   1.977   3.601  23.742
 1360TIP3   OH228274   3.731   3.612  24.294
 1360TIP3    H128275   3.753   3.624  24.576
 1360TIP3    H228276   3.762   3.697  24.186
 1361TIP3   OH228277   3.659   3.608  25.122
 1361TIP3    H128278   3.633   3.528  24.975
 1361TIP3    H228279   3.707   3.572  25.347
 1362TIP3   OH228280   3.551   3.172  26.766
 1362TIP3    H128281   3.460   3.164  26.883
 1362TIP3    H228282   3.576   3.261  26.874
 1363TIP3   OH228283   3.675   3.008  22.266
 1363TIP3    H128284   3.767   3.037  22.320
 1363TIP3    H228285   3.667   2.925  22.416
 1364TIP3   OH228286   3.701   2.795  22.782
 1364TIP3    H128287   3.628   2.738  22.893
 1364TIP3    H228288   3.748   2.823  23.025
 1365TIP3   OH228289   3.661   3.077  24.156
 1365TIP3    H128290   3.733   3.011  24.123
 1365TIP3    H228291   3.712   3.160  24.150
 1366TIP3   OH228292   3.535   3.373  24.960
 1366TIP3    H128293   3.479   3.429  25.134
 1366TIP3    H228294   3.474   3.366  24.735
 1367TIP3   OH228295   3.491   2.651  22.998
 1367TIP3    H128296   3.473   2.560  22.905
 1367TIP3    H228297   3.449   2.653  23.265
 1368TIP3   OH228298   1.993   2.892  24.171
 1368TIP3    H128299   1.990   2.853  23.901
 1368TIP3    H228300   2.082   2.864  24.267
 1369TIP3   OH228301   3.590   2.865  25.869
 1369TIP3    H128302   3.638   2.780  25.926
 1369TIP3    H228303   3.666   2.923  25.803
 1370TIP3   OH228304   3.716   2.642  26.052
 1370TIP3    H128305   3.627   2.606  25.989
 1370TIP3    H228306   3.769   2.560  26.067
 1371TIP3   OH228307   3.470   2.438  22.440
 1371TIP3    H128308   3.483   2.349  22.332
 1371TIP3    H228309   3.540   2.483  22.284
 1372TIP3   OH228310   3.536   2.490  24.159
 1372TIP3    H128311   3.634   2.498  24.150
 1372TIP3    H228312   3.523   2.493  24.450
 1373TIP3   OH228313   3.542   2.557  24.963
 1373TIP3    H128314   3.454   2.585  25.062
 1373TIP3    H228315   3.583   2.642  24.879
 1374TIP3   OH228316   1.971   2.394  25.971
 1374TIP3    H128317   2.056   2.376  26.106
 1374TIP3    H228318   1.920   2.311  26.013
 1375TIP3   OH228319   3.770   1.979  26.553
 1375TIP3    H128320   3.805   1.903  26.409
 1375TIP3    H228321   3.759   2.045  26.337
 1376TIP3   OH228322   2.071   2.227  24.069
 1376TIP3    H128323   2.112   2.138  24.024
 1376TIP3    H228324   2.146   2.288  24.048
 1377TIP3   OH228325   1.918   2.526  24.255
 1377TIP3    H128326   1.975   2.497  24.033
 1377TIP3    H228327   1.964   2.606  24.342
 1378TIP3   OH228328   3.703   2.181  26.010
 1378TIP3    H128329   3.619   2.229  26.061
 1378TIP3    H228330   3.676   2.129  25.779
 1379TIP3   OH228331   1.917   2.147  22.359
 1379TIP3    H128332   1.822   2.157  22.407
 1379TIP3    H228333   1.931   2.209  22.134
 1380TIP3   OH228334   1.929   2.006  24.933
 1380TIP3    H128335   1.860   1.970  25.110
 1380TIP3    H228336   1.882   2.076  24.789
 1381TIP3   OH228337   2.128   3.343  26.226
 1381TIP3    H128338   2.061   3.347  26.010
 1381TIP3    H228339   2.090   3.409  26.406
 1382TIP3   OH228340   2.461   3.485  25.128
 1382TIP3    H128341   2.459   3.578  25.032
 1382TIP3    H228342   2.555   3.465  25.068
 1383TIP3   OH228343   2.856   3.597  25.878
 1383TIP3    H128344   2.870   3.570  26.157
 1383TIP3    H228345   2.945   3.634  25.815
 1384TIP3   OH228346   3.083   3.749  25.734
 1384TIP3    H128347   3.159   3.711  25.596
 1384TIP3    H228348   3.122   3.776  25.992
 1385TIP3   OH228349   3.605   1.943  25.449
 1385TIP3    H128350   3.532   1.983  25.299
 1385TIP3    H228351   3.614   1.856  25.314
 1386TIP3   OH228352   2.192   3.781  25.017
 1386TIP3    H128353   2.120   3.840  24.924
 1386TIP3    H228354   2.192   3.801  25.302
 1387TIP3   OH228355   2.444   3.739  24.741
 1387TIP3    H128356   2.348   3.750  24.807
 1387TIP3    H228357   2.455   3.806  24.531
 1388TIP3   OH228358   2.908   3.699  24.507
 1388TIP3    H128359   2.838   3.741  24.357
 1388TIP3    H228360   2.934   3.771  24.687
 1389TIP3   OH228361   3.108   3.572  24.921
 1389TIP3    H128362   3.042   3.613  24.741
 1389TIP3    H228363   3.186   3.626  24.861
 1390TIP3   OH228364   3.371   3.699  24.897
 1390TIP3    H128365   3.401   3.791  24.855
 1390TIP3    H228366   3.401   3.654  24.648
 1391TIP3   OH228367   2.163   3.627  24.135
 1391TIP3    H128368   2.136   3.561  24.333
 1391TIP3    H228369   2.245   3.587  24.027
 1392TIP3   OH228370   2.372   3.515  23.751
 1392TIP3    H128371   2.358   3.423  23.835
 1392TIP3    H228372   2.459   3.533  23.871
 1393TIP3   OH228373   2.607   3.511  24.144
 1393TIP3    H128374   2.628   3.418  24.075
 1393TIP3    H228375   2.627   3.512  24.429
 1394TIP3   OH228376   2.991   2.103  23.778
 1394TIP3    H128377   2.922   2.046  23.889
 1394TIP3    H228378   2.959   2.112  23.502
 1395TIP3   OH228379   3.438   1.893  23.676
 1395TIP3    H128380   3.507   1.952  23.568
 1395TIP3    H228381   3.389   1.874  23.430
 1396TIP3   OH228382   3.626   2.039  23.193
 1396TIP3    H128383   3.693   1.983  23.064
 1396TIP3    H228384   3.654   2.127  23.100
 1397TIP3   OH228385   2.175   1.962  23.160
 1397TIP3    H128386   2.099   1.947  22.986
 1397TIP3    H228387   2.229   1.882  23.094
 1398TIP3   OH228388   2.086   1.954  21.759
 1398TIP3    H128389   2.137   2.023  21.609
 1398TIP3    H228390   2.047   2.007  21.975
 1399TIP3   OH228391   2.663   1.837  23.004
 1399TIP3    H128392   2.756   1.863  22.980
 1399TIP3    H228393   2.621   1.924  23.058
 1400TIP3   OH228394   2.051   3.560  22.155
 1400TIP3    H128395   1.968   3.540  22.011
 1400TIP3    H228396   2.074   3.643  22.014
 1401TIP3   OH228397   2.226   2.143  21.402
 1401TIP3    H128398   2.305   2.099  21.306
 1401TIP3    H228399   2.266   2.207  21.582
 1402TIP3   OH228400   2.718   2.178  22.161
 1402TIP3    H128401   2.802   2.158  22.293
 1402TIP3    H228402   2.745   2.254  21.999
 1403TIP3   OH228403   2.954   3.698  21.543
 1403TIP3    H128404   3.014   3.751  21.381
 1403TIP3    H228405   3.012   3.634  21.678
 1404TIP3   OH228406   3.585   3.594  22.425
 1404TIP3    H128407   3.618   3.567  22.164
 1404TIP3    H228408   3.541   3.678  22.365
 1405TIP3   OH228409   2.145   2.028  25.929
 1405TIP3    H128410   2.098   1.943  25.932
 1405TIP3    H228411   2.216   2.012  26.130
 1406TIP3   OH228412   2.348   1.961  26.463
 1406TIP3    H128413   2.441   1.946  26.388
 1406TIP3    H228414   2.325   1.870  26.550
 1407TIP3   OH228415   3.212   1.893  26.466
 1407TIP3    H128416   3.221   1.831  26.694
 1407TIP3    H228417   3.303   1.890  26.358
 1408TIP3   OH228418   3.544   3.513  25.983
 1408TIP3    H128419   3.485   3.510  25.746
 1408TIP3    H228420   3.518   3.601  26.088
 1409TIP3   OH228421   4.983   2.906  23.007
 1409TIP3    H128422   4.973   3.003  22.998
 1409TIP3    H228423   4.907   2.878  22.845
 1410TIP3   OH228424   4.872   2.772  24.120
 1410TIP3    H128425   4.891   2.741  24.396
 1410TIP3    H228426   4.804   2.709  24.030
 1411TIP3   OH228427   4.084   2.774  24.510
 1411TIP3    H128428   4.075   2.703  24.708
 1411TIP3    H228429   4.153   2.826  24.645
 1412TIP3   OH228430   5.202   3.085  23.505
 1412TIP3    H128431   5.181   3.026  23.727
 1412TIP3    H228432   5.226   3.169  23.631
 1413TIP3   OH228433   4.197   3.252  23.940
 1413TIP3    H128434   4.160   3.162  23.907
 1413TIP3    H228435   4.292   3.229  23.940
 1414TIP3   OH228436   3.863   2.563  22.671
 1414TIP3    H128437   3.824   2.651  22.713
 1414TIP3    H228438   3.786   2.512  22.569
 1415TIP3   OH228439   3.879   2.802  23.436
 1415TIP3    H128440   3.919   2.712  23.457
 1415TIP3    H228441   3.959   2.859  23.433
 1416TIP3   OH228442   4.930   3.620  23.619
 1416TIP3    H128443   5.009   3.590  23.463
 1416TIP3    H228444   4.914   3.539  23.769
 1417TIP3   OH228445   4.674   3.063  24.399
 1417TIP3    H128446   4.710   3.028  24.153
 1417TIP3    H228447   4.760   3.082  24.534
 1418TIP3   OH228448   5.566   2.222  24.360
 1418TIP3    H128449   5.573   2.272  24.612
 1418TIP3    H228450   5.650   2.245  24.228
 1419TIP3   OH228451   5.060   2.502  24.396
 1419TIP3    H128452   5.076   2.407  24.423
 1419TIP3    H228453   5.022   2.508  24.126
 1420TIP3   OH228454   4.351   2.311  23.412
 1420TIP3    H128455   4.375   2.400  23.310
 1420TIP3    H228456   4.312   2.276  23.169
 1421TIP3   OH228457   5.054   2.302  23.112
 1421TIP3    H128458   5.138   2.255  23.142
 1421TIP3    H228459   5.061   2.337  22.839
 1422TIP3   OH228460   3.985   2.558  23.676
 1422TIP3    H128461   4.046   2.508  23.850
 1422TIP3    H228462   4.021   2.531  23.415
 1423TIP3   OH228463   4.492   2.725  23.547
 1423TIP3    H128464   4.565   2.677  23.679
 1423TIP3    H228465   4.464   2.656  23.358
 1424TIP3   OH228466   5.550   2.332  25.104
 1424TIP3    H128467   5.515   2.415  24.978
 1424TIP3    H228468   5.585   2.369  25.350
 1425TIP3   OH228469   4.235   2.196  24.684
 1425TIP3    H128470   4.202   2.253  24.468
 1425TIP3    H228471   4.171   2.222  24.891
 1426TIP3   OH228472   4.913   3.179  22.683
 1426TIP3    H128473   4.908   3.175  22.389
 1426TIP3    H228474   4.879   3.270  22.725
 1427TIP3   OH228475   4.445   2.965  24.642
 1427TIP3    H128476   4.389   3.037  24.750
 1427TIP3    H228477   4.522   3.016  24.531
 1428TIP3   OH228478   4.170   2.384  24.033
 1428TIP3    H128479   4.232   2.445  24.174
 1428TIP3    H228480   4.225   2.354  23.808
 1429TIP3   OH228481   4.314   3.177  24.984
 1429TIP3    H128482   4.310   3.264  24.852
 1429TIP3    H228483   4.223   3.173  25.095
 1430TIP3   OH228484   3.924   3.124  22.164
 1430TIP3    H128485   3.857   3.172  22.008
 1430TIP3    H228486   3.953   3.194  22.356
 1431TIP3   OH228487   5.275   3.347  23.889
 1431TIP3    H128488   5.294   3.280  24.096
 1431TIP3    H228489   5.217   3.404  24.045
 1432TIP3   OH228490   5.283   2.104  24.606
 1432TIP3    H128491   5.204   2.128  24.447
 1432TIP3    H228492   5.347   2.171  24.519
 1433TIP3   OH228493   4.578   1.956  23.886
 1433TIP3    H128494   4.549   1.864  23.883
 1433TIP3    H228495   4.514   1.996  24.069
 1434TIP3   OH228496   5.102   3.479  23.190
 1434TIP3    H128497   5.159   3.400  23.154
 1434TIP3    H228498   5.115   3.517  22.917
 1435TIP3   OH228499   5.230   3.257  22.845
 1435TIP3    H128500   5.223   3.203  22.605
 1435TIP3    H228501   5.222   3.193  23.064
 1436TIP3   OH228502   5.383   3.121  25.434
 1436TIP3    H128503   5.422   3.046  25.290
 1436TIP3    H228504   5.320   3.156  25.230
 1437TIP3   OH228505   4.851   2.801  22.323
 1437TIP3    H128506   4.797   2.876  22.233
 1437TIP3    H228507   4.903   2.775  22.086
 1438TIP3   OH228508   5.600   2.758  24.891
 1438TIP3    H128509   5.528   2.824  24.843
 1438TIP3    H228510   5.649   2.769  24.639
 1439TIP3   OH228511   5.202   2.799  22.617
 1439TIP3    H128512   5.131   2.841  22.776
 1439TIP3    H228513   5.266   2.776  22.827
 1440TIP3   OH228514   5.200   2.669  25.269
 1440TIP3    H128515   5.178   2.745  25.431
 1440TIP3    H228516   5.145   2.688  25.035
 1441TIP3   OH228517   4.340   2.904  23.160
 1441TIP3    H128518   4.306   2.869  22.905
 1441TIP3    H228519   4.404   2.835  23.244
 1442TIP3   OH228520   4.484   3.231  23.919
 1442TIP3    H128521   4.501   3.221  23.634
 1442TIP3    H228522   4.564   3.194  24.039
 1443TIP3   OH228523   4.359   2.760  24.243
 1443TIP3    H128524   4.388   2.776  23.967
 1443TIP3    H228525   4.402   2.835  24.387
 1444TIP3   OH228526   4.982   3.356  24.390
 1444TIP3    H128527   4.990   3.401  24.645
 1444TIP3    H228528   5.047   3.282  24.429
 1445TIP3   OH228529   4.491   3.210  25.557
 1445TIP3    H128530   4.417   3.253  25.698
 1445TIP3    H228531   4.445   3.184  25.308
 1446TIP3   OH228532   5.078   2.742  21.918
 1446TIP3    H128533   5.115   2.754  22.191
 1446TIP3    H228534   5.079   2.832  21.813
 1447TIP3   OH228535   4.133   2.879  25.263
 1447TIP3    H128536   4.179   2.925  25.476
 1447TIP3    H228537   4.088   2.809  25.419
 1448TIP3   OH228538   4.829   3.436  22.671
 1448TIP3    H128539   4.895   3.460  22.872
 1448TIP3    H228540   4.772   3.515  22.659
 1449TIP3   OH228541   4.310   3.382  25.869
 1449TIP3    H128542   4.299   3.432  25.620
 1449TIP3    H228543   4.217   3.368  25.941
 1450TIP3   OH228544   4.233   2.795  22.446
 1450TIP3    H128545   4.195   2.874  22.314
 1450TIP3    H228546   4.200   2.725  22.275
 1451TIP3   OH228547   5.573   3.340  21.396
 1451TIP3    H128548   5.583   3.435  21.429
 1451TIP3    H228549   5.661   3.303  21.450
 1452TIP3   OH228550   3.865   3.047  25.068
 1452TIP3    H128551   3.813   3.023  24.834
 1452TIP3    H228552   3.926   2.971  25.065
 1453TIP3   OH228553   3.822   3.316  24.141
 1453TIP3    H128554   3.918   3.307  24.159
 1453TIP3    H228555   3.809   3.407  24.231
 1454TIP3   OH228556   5.641   3.380  25.815
 1454TIP3    H128557   5.632   3.287  25.755
 1454TIP3    H228558   5.550   3.398  25.923
 1455TIP3   OH228559   4.727   3.339  25.533
 1455TIP3    H128560   4.730   3.406  25.743
 1455TIP3    H228561   4.637   3.301  25.554
 1456TIP3   OH228562   4.754   3.706  22.359
 1456TIP3    H128563   4.781   3.679  22.089
 1456TIP3    H228564   4.785   3.798  22.365
 1457TIP3   OH228565   4.152   3.602  23.013
 1457TIP3    H128566   4.162   3.558  23.277
 1457TIP3    H228567   4.074   3.558  22.896
 1458TIP3   OH228568   5.355   2.517  25.896
 1458TIP3    H128569   5.283   2.559  25.737
 1458TIP3    H228570   5.344   2.425  25.809
 1459TIP3   OH228571   4.072   3.193  25.350
 1459TIP3    H128572   4.086   3.145  25.602
 1459TIP3    H228573   3.994   3.144  25.245
 1460TIP3   OH228574   4.852   1.982  25.086
 1460TIP3    H128575   4.894   1.942  25.326
 1460TIP3    H228576   4.757   1.980  25.155
 1461TIP3   OH228577   5.095   2.410  25.494
 1461TIP3    H128578   5.048   2.368  25.722
 1461TIP3    H228579   5.049   2.495  25.476
 1462TIP3   OH228580   4.357   2.502  24.498
 1462TIP3    H128581   4.310   2.529  24.741
 1462TIP3    H228582   4.363   2.590  24.372
 1463TIP3   OH228583   4.365   2.540  23.031
 1463TIP3    H128584   4.271   2.536  22.950
 1463TIP3    H228585   4.406   2.544  22.761
 1464TIP3   OH228586   4.955   2.580  22.722
 1464TIP3    H128587   4.909   2.660  22.626
 1464TIP3    H228588   4.993   2.543  22.473
 1465TIP3   OH228589   4.833   2.599  26.037
 1465TIP3    H128590   4.772   2.540  26.181
 1465TIP3    H228591   4.884   2.634  26.259
 1466TIP3   OH228592   4.999   2.514  23.580
 1466TIP3    H128593   5.001   2.586  23.382
 1466TIP3    H228594   5.011   2.436  23.400
 1467TIP3   OH228595   4.082   2.532  24.942
 1467TIP3    H128596   4.162   2.572  25.059
 1467TIP3    H228597   4.082   2.443  25.065
 1468TIP3   OH228598   4.918   2.669  24.861
 1468TIP3    H128599   4.976   2.602  24.741
 1468TIP3    H228600   4.860   2.615  25.035
 1469TIP3   OH228601   4.648   2.271  23.283
 1469TIP3    H128602   4.551   2.254  23.277
 1469TIP3    H228603   4.660   2.306  23.550
 1470TIP3   OH228604   4.085   2.452  22.962
 1470TIP3    H128605   3.995   2.472  22.845
 1470TIP3    H228606   4.116   2.390  22.758
 1471TIP3   OH228607   4.445   2.506  22.260
 1471TIP3    H128608   4.529   2.459  22.329
 1471TIP3    H228609   4.463   2.524  21.981
 1472TIP3   OH228610   5.071   2.206  24.222
 1472TIP3    H128611   5.005   2.210  24.444
 1472TIP3    H228612   5.019   2.157  24.021
 1473TIP3   OH228613   4.308   2.581  21.453
 1473TIP3    H128614   4.273   2.502  21.573
 1473TIP3    H228615   4.402   2.552  21.417
 1474TIP3   OH228616   5.363   3.794  26.238
 1474TIP3    H128617   5.381   3.839  25.986
 1474TIP3    H228618   5.452   3.801  26.361
 1475TIP3   OH228619   4.118   3.038  26.043
 1475TIP3    H128620   4.207   3.046  26.160
 1475TIP3    H228621   4.069   3.001  26.271
 1476TIP3   OH228622   4.718   2.560  23.874
 1476TIP3    H128623   4.806   2.548  23.754
 1476TIP3    H228624   4.710   2.482  24.042
 1477TIP3   OH228625   4.608   2.389  24.618
 1477TIP3    H128626   4.529   2.444  24.555
 1477TIP3    H228627   4.661   2.447  24.783
 1478TIP3   OH228628   4.659   2.991  22.179
 1478TIP3    H128629   4.595   2.929  22.053
 1478TIP3    H228630   4.609   3.020  22.419
 1479TIP3   OH228631   5.411   2.937  24.750
 1479TIP3    H128632   5.449   3.008  24.576
 1479TIP3    H228633   5.317   2.957  24.693
 1480TIP3   OH228634   4.790   3.055  25.431
 1480TIP3    H128635   4.768   2.986  25.620
 1480TIP3    H228636   4.765   3.138  25.560
 1481TIP3   OH228637   5.083   2.467  22.083
 1481TIP3    H128638   5.162   2.516  22.155
 1481TIP3    H228639   5.058   2.512  21.834
 1482TIP3   OH228640   4.160   2.979  23.781
 1482TIP3    H128641   4.229   2.965  23.577
 1482TIP3    H228642   4.174   2.907  23.970
 1483TIP3   OH228643   4.866   3.136  21.909
 1483TIP3    H128644   4.828   3.222  21.822
 1483TIP3    H228645   4.784   3.088  21.981
 1484TIP3   OH228646   3.865   2.788  25.449
 1484TIP3    H128647   3.845   2.727  25.671
 1484TIP3    H228648   3.816   2.747  25.224
 1485TIP3   OH228649   4.539   2.615  25.746
 1485TIP3    H128650   4.509   2.707  25.722
 1485TIP3    H228651   4.607   2.636  25.947
 1486TIP3   OH228652   5.065   3.278  25.554
 1486TIP3    H128653   5.014   3.312  25.326
 1486TIP3    H228654   5.032   3.335  25.773
 1487TIP3   OH228655   5.622   3.083  25.884
 1487TIP3    H128656   5.530   3.106  25.800
 1487TIP3    H228657   5.668   3.076  25.620
 1488TIP3   OH228658   5.133   2.844  24.108
 1488TIP3    H128659   5.037   2.838  24.051
 1488TIP3    H228660   5.169   2.767  23.970
 1489TIP3   OH228661   4.415   3.305  23.091
 1489TIP3    H128662   4.467   3.382  23.007
 1489TIP3    H228663   4.326   3.330  23.001
 1490TIP3   OH228664   4.545   3.072  22.893
 1490TIP3    H128665   4.496   3.155  22.938
 1490TIP3    H228666   4.484   3.006  23.004
 1491TIP3   OH228667   4.608   3.499  24.885
 1491TIP3    H128668   4.673   3.562  24.774
 1491TIP3    H228669   4.663   3.454  25.086
 1492TIP3   OH228670   4.411   3.568  22.731
 1492TIP3    H128671   4.321   3.589  22.824
 1492TIP3    H228672   4.454   3.652  22.809
 1493TIP3   OH228673   4.918   3.079  24.723
 1493TIP3    H128674   4.881   3.061  24.993
 1493TIP3    H228675   5.014   3.076  24.768
 1494TIP3   OH228676   5.186   3.241  21.657
 1494TIP3    H128677   5.180   3.161  21.822
 1494TIP3    H228678   5.143   3.214  21.408
 1495TIP3   OH228679   5.245   3.514  25.470
 1495TIP3    H128680   5.158   3.473  25.452
 1495TIP3    H228681   5.245   3.579  25.251
 1496TIP3   OH228682   5.643   3.634  21.513
 1496TIP3    H128683   5.713   3.675  21.351
 1496TIP3    H228684   5.581   3.707  21.552
 1497TIP3   OH228685   4.066   2.280  25.287
 1497TIP3    H128686   3.999   2.319  25.464
 1497TIP3    H228687   4.088   2.199  25.437
 1498TIP3   OH228688   5.274   3.008  22.071
 1498TIP3    H128689   5.276   2.938  22.272
 1498TIP3    H228690   5.367   3.040  22.065
 1499TIP3   OH228691   4.008   3.453  24.786
 1499TIP3    H128692   4.068   3.378  24.810
 1499TIP3    H228693   4.021   3.494  25.047
 1500TIP3   OH228694   4.137   2.979  21.906
 1500TIP3    H128695   4.060   3.027  22.026
 1500TIP3    H228696   4.182   3.052  21.771
 1501TIP3   OH228697   4.933   2.243  24.918
 1501TIP3    H128698   4.998   2.272  25.116
 1501TIP3    H228699   4.894   2.164  25.047
 1502TIP3   OH228700   4.742   3.374  21.861
 1502TIP3    H128701   4.693   3.431  22.041
 1502TIP3    H228702   4.828   3.416  21.846
 1503TIP3   OH228703   4.681   2.411  22.566
 1503TIP3    H128704   4.774   2.430  22.503
 1503TIP3    H228705   4.685   2.358  22.809
 1504TIP3   OH228706   4.798   2.491  25.317
 1504TIP3    H128707   4.803   2.534  25.587
 1504TIP3    H228708   4.825   2.400  25.368
 1505TIP3   OH228709   4.792   2.073  22.881
 1505TIP3    H128710   4.753   2.162  22.932
 1505TIP3    H228711   4.863   2.091  22.689
 1506TIP3   OH228712   4.471   3.542  21.930
 1506TIP3    H128713   4.511   3.626  21.834
 1506TIP3    H228714   4.440   3.564  22.203
 1507TIP3   OH228715   5.342   2.266  25.569
 1507TIP3    H128716   5.256   2.301  25.470
 1507TIP3    H228717   5.401   2.275  25.335
 1508TIP3   OH228718   5.245   2.626  23.727
 1508TIP3    H128719   5.166   2.569  23.757
 1508TIP3    H228720   5.313   2.577  23.880
 1509TIP3   OH228721   5.339   3.614  24.279
 1509TIP3    H128722   5.342   3.572  24.018
 1509TIP3    H228723   5.432   3.603  24.360
 1510TIP3   OH228724   3.977   3.326  22.668
 1510TIP3    H128725   3.899   3.373  22.764
 1510TIP3    H228726   4.004   3.389  22.461
 1511TIP3   OH228727   3.896   3.648  26.148
 1511TIP3    H128728   3.970   3.647  26.340
 1511TIP3    H228729   3.873   3.554  26.151
 1512TIP3   OH228730   4.385   3.542  26.550
 1512TIP3    H128731   4.472   3.512  26.646
 1512TIP3    H228732   4.380   3.498  26.292
 1513TIP3   OH228733   5.012   3.407  26.226
 1513TIP3    H128734   4.968   3.326  26.331
 1513TIP3    H228735   5.090   3.407  26.400
 1514TIP3   OH228736   3.878   3.012  26.448
 1514TIP3    H128737   3.881   2.915  26.499
 1514TIP3    H228738   3.880   3.011  26.154
 1515TIP3   OH228739   4.589   3.106  26.220
 1515TIP3    H128740   4.568   3.122  25.935
 1515TIP3    H228741   4.611   3.010  26.223
 1516TIP3   OH228742   5.122   3.014  25.590
 1516TIP3    H128743   5.193   3.079  25.536
 1516TIP3    H228744   5.053   3.079  25.650
 1517TIP3   OH228745   4.011   2.752  26.319
 1517TIP3    H128746   4.011   2.656  26.319
 1517TIP3    H228747   4.068   2.775  26.550
 1518TIP3   OH228748   4.469   2.845  21.807
 1518TIP3    H128749   4.392   2.810  21.948
 1518TIP3    H228750   4.472   2.791  21.567
 1519TIP3   OH228751   4.319   2.649  25.209
 1519TIP3    H128752   4.333   2.637  25.497
 1519TIP3    H228753   4.404   2.692  25.128
 1520TIP3   OH228754   4.920   2.942  26.451
 1520TIP3    H128755   4.978   2.864  26.439
 1520TIP3    H228756   4.833   2.901  26.388
 1521TIP3   OH228757   4.424   2.380  25.617
 1521TIP3    H128758   4.461   2.314  25.431
 1521TIP3    H228759   4.482   2.460  25.590
 1522TIP3   OH228760   4.492   2.194  25.047
 1522TIP3    H128761   4.533   2.257  24.858
 1522TIP3    H228762   4.397   2.204  24.987
 1523TIP3   OH228763   4.602   2.781  25.035
 1523TIP3    H128764   4.691   2.815  25.080
 1523TIP3    H228765   4.558   2.855  24.903
 1524TIP3   OH228766   5.108   2.484  26.523
 1524TIP3    H128767   5.181   2.422  26.508
 1524TIP3    H228768   5.151   2.566  26.604
 1525TIP3   OH228769   5.219   2.834  26.094
 1525TIP3    H128770   5.170   2.886  25.893
 1525TIP3    H228771   5.309   2.841  25.986
 1526TIP3   OH228772   4.287   2.467  26.256
 1526TIP3    H128773   4.206   2.424  26.154
 1526TIP3    H228774   4.350   2.439  26.040
 1527TIP3   OH228775   4.578   1.945  25.086
 1527TIP3    H128776   4.551   2.040  25.086
 1527TIP3    H228777   4.498   1.902  24.990
 1528TIP3   OH228778   4.674   2.386  26.277
 1528TIP3    H128779   4.615   2.366  26.502
 1528TIP3    H228780   4.613   2.380  26.052
 1529TIP3   OH228781   4.961   2.272  26.031
 1529TIP3    H128782   4.889   2.312  26.193
 1529TIP3    H228783   5.021   2.238  26.238
 1530TIP3   OH228784   5.143   2.166  26.562
 1530TIP3    H128785   5.124   2.070  26.541
 1530TIP3    H228786   5.112   2.185  26.835
 1531TIP3   OH228787   4.066   2.292  26.286
 1531TIP3    H128788   4.057   2.201  26.181
 1531TIP3    H228789   4.061   2.273  26.577
 1532TIP3   OH228790   4.556   1.915  25.932
 1532TIP3    H128791   4.621   1.844  25.980
 1532TIP3    H228792   4.558   1.913  25.641
 1533TIP3   OH228793   4.586   2.032  26.667
 1533TIP3    H128794   4.568   1.990  26.403
 1533TIP3    H228795   4.530   2.113  26.640
 1534TIP3   OH228796   4.559   3.781  21.540
 1534TIP3    H128797   4.653   3.756  21.501
 1534TIP3    H228798   4.545   3.828  21.291
 1535TIP3   OH228799   3.760   3.713  22.998
 1535TIP3    H128800   3.690   3.677  22.824
 1535TIP3    H228801   3.783   3.640  23.178
 1536TIP3   OH228802   3.888   3.535  23.481
 1536TIP3    H128803   3.839   3.468  23.631
 1536TIP3    H228804   3.946   3.571  23.691
 1537TIP3   OH228805   5.651   3.663  24.222
 1537TIP3    H128806   5.664   3.624  24.486
 1537TIP3    H228807   5.742   3.692  24.162
 1538TIP3   OH228808   5.589   3.603  25.215
 1538TIP3    H128809   5.559   3.520  25.089
 1538TIP3    H228810   5.620   3.568  25.473
 1539TIP3   OH228811   5.432   3.163  26.613
 1539TIP3    H128812   5.343   3.160  26.736
 1539TIP3    H228813   5.473   3.237  26.763
 1540TIP3   OH228814   5.556   2.982  22.119
 1540TIP3    H128815   5.634   3.038  22.179
 1540TIP3    H228816   5.557   2.924  22.356
 1541TIP3   OH228817   5.593   2.812  22.779
 1541TIP3    H128818   5.512   2.777  22.911
 1541TIP3    H228819   5.659   2.811  22.998
 1542TIP3   OH228820   5.523   3.105  24.243
 1542TIP3    H128821   5.585   3.036  24.147
 1542TIP3    H228822   5.585   3.178  24.270
 1543TIP3   OH228823   5.442   3.382  24.912
 1543TIP3    H128824   5.364   3.405  25.068
 1543TIP3    H228825   5.413   3.296  24.801
 1544TIP3   OH228826   5.383   2.679  23.067
 1544TIP3    H128827   5.336   2.602  22.953
 1544TIP3    H228828   5.349   2.674  23.343
 1545TIP3   OH228829   3.863   2.878  24.231
 1545TIP3    H128830   3.859   2.837  23.964
 1545TIP3    H228831   3.951   2.845  24.324
 1546TIP3   OH228832   5.491   2.844  25.872
 1546TIP3    H128833   5.538   2.759  25.923
 1546TIP3    H228834   5.563   2.911  25.845
 1547TIP3   OH228835   5.592   2.604  26.064
 1547TIP3    H128836   5.500   2.579  25.980
 1547TIP3    H228837   5.641   2.519  26.055
 1548TIP3   OH228838   5.334   2.450  22.617
 1548TIP3    H128839   5.325   2.362  22.500
 1548TIP3    H228840   5.399   2.493  22.446
 1549TIP3   OH228841   5.425   2.465  24.111
 1549TIP3    H128842   5.522   2.478  24.141
 1549TIP3    H228843   5.402   2.473  24.396
 1550TIP3   OH228844   5.416   2.551  24.864
 1550TIP3    H128845   5.326   2.574  24.963
 1550TIP3    H228846   5.461   2.639  24.882
 1551TIP3   OH228847   3.848   2.406  25.965
 1551TIP3    H128848   3.934   2.383  26.088
 1551TIP3    H228849   3.798   2.323  26.010
 1552TIP3   OH228850   5.662   1.988  26.550
 1552TIP3    H128851   5.693   1.912  26.391
 1552TIP3    H228852   5.651   2.056  26.340
 1553TIP3   OH228853   3.809   2.515  24.228
 1553TIP3    H128854   3.865   2.503  23.991
 1553TIP3    H228855   3.858   2.586  24.357
 1554TIP3   OH228856   5.587   2.186  26.055
 1554TIP3    H128857   5.513   2.224  26.217
 1554TIP3    H228858   5.535   2.144  25.842
 1555TIP3   OH228859   3.803   2.010  24.912
 1555TIP3    H128860   3.745   1.984  25.134
 1555TIP3    H228861   3.751   2.078  24.771
 1556TIP3   OH228862   4.042   3.347  26.124
 1556TIP3    H128863   3.951   3.361  26.034
 1556TIP3    H228864   4.036   3.299  26.373
 1557TIP3   OH228865   4.336   3.486  25.089
 1557TIP3    H128866   4.334   3.578  24.987
 1557TIP3    H228867   4.432   3.467  25.089
 1558TIP3   OH228868   4.745   3.634  25.890
 1558TIP3    H128869   4.768   3.598  26.154
 1558TIP3    H228870   4.834   3.659  25.791
 1559TIP3   OH228871   4.988   3.758  25.731
 1559TIP3    H128872   5.060   3.709  25.611
 1559TIP3    H228873   5.023   3.780  26.001
 1560TIP3   OH228874   5.489   1.958  25.443
 1560TIP3    H128875   5.411   2.001  25.335
 1560TIP3    H228876   5.497   1.875  25.281
 1561TIP3   OH228877   4.070   3.784  25.035
 1561TIP3    H128878   3.996   3.841  24.948
 1561TIP3    H228879   4.059   3.788  25.323
 1562TIP3   OH228880   4.305   3.729  24.720
 1562TIP3    H128881   4.211   3.751  24.786
 1562TIP3    H228882   4.324   3.797  24.513
 1563TIP3   OH228883   4.794   3.689  24.558
 1563TIP3    H128884   4.776   3.736  24.312
 1563TIP3    H228885   4.816   3.764  24.738
 1564TIP3   OH228886   4.998   3.566  25.005
 1564TIP3    H128887   4.933   3.591  24.798
 1564TIP3    H228888   5.064   3.636  24.975
 1565TIP3   OH228889   5.232   3.724  24.930
 1565TIP3    H128890   5.239   3.819  24.864
 1565TIP3    H228891   5.261   3.684  24.672
 1566TIP3   OH228892   4.038   3.624  24.126
 1566TIP3    H128893   4.020   3.569  24.363
 1566TIP3    H228894   4.125   3.586  24.042
 1567TIP3   OH228895   4.245   3.514  23.736
 1567TIP3    H128896   4.230   3.421  23.823
 1567TIP3    H228897   4.336   3.527  23.841
 1568TIP3   OH228898   4.485   3.516  24.087
 1568TIP3    H128899   4.502   3.420  24.057
 1568TIP3    H228900   4.507   3.529  24.369
 1569TIP3   OH228901   4.872   2.092  23.769
 1569TIP3    H128902   4.779   2.087  23.844
 1569TIP3    H228903   4.866   2.081  23.481
 1570TIP3   OH228904   4.506   2.007  23.010
 1570TIP3    H128905   4.580   2.025  22.830
 1570TIP3    H228906   4.551   1.987  23.259
 1571TIP3   OH228907   3.913   3.528  22.161
 1571TIP3    H128908   3.852   3.515  21.936
 1571TIP3    H228909   3.936   3.620  22.107
 1572TIP3   OH228910   4.556   2.173  22.254
 1572TIP3    H128911   4.637   2.124  22.287
 1572TIP3    H228912   4.583   2.247  22.083
 1573TIP3   OH228913   4.827   3.648  21.591
 1573TIP3    H128914   4.909   3.690  21.504
 1573TIP3    H228915   4.818   3.576  21.396
 1574TIP3   OH228916   4.042   2.020  25.923
 1574TIP3    H128917   3.992   1.937  25.947
 1574TIP3    H228918   4.112   2.008  26.130
 1575TIP3   OH228919   4.234   1.964  26.472
 1575TIP3    H128920   4.330   1.950  26.427
 1575TIP3    H228921   4.209   1.873  26.553
 1576TIP3   OH228922   5.080   1.894  26.463
 1576TIP3    H128923   5.076   1.833  26.694
 1576TIP3    H228924   5.176   1.886  26.400
 1577TIP3   OH228925   5.422   3.520  26.040
 1577TIP3    H128926   5.356   3.499  25.827
 1577TIP3    H228927   5.389   3.607  26.130
 1578TIP3   OH228928   5.993   2.785  24.387
 1578TIP3    H128929   6.008   2.717  24.588
 1578TIP3    H228930   5.982   2.865  24.552
 1579TIP3   OH228931   7.136   3.110  23.664
 1579TIP3    H128932   7.119   3.045  23.871
 1579TIP3    H228933   7.134   3.195  23.814
 1580TIP3   OH228934   6.084   3.299  24.006
 1580TIP3    H128935   6.039   3.213  24.030
 1580TIP3    H228936   6.172   3.270  23.919
 1581TIP3   OH228937   5.726   2.524  22.647
 1581TIP3    H128938   5.756   2.614  22.704
 1581TIP3    H228939   5.657   2.516  22.848
 1582TIP3   OH228940   5.797   2.786  23.343
 1582TIP3    H128941   5.845   2.713  23.478
 1582TIP3    H228942   5.857   2.862  23.370
 1583TIP3   OH228943   6.838   3.627  23.541
 1583TIP3    H128944   6.898   3.579  23.364
 1583TIP3    H228945   6.825   3.555  23.727
 1584TIP3   OH228946   6.592   3.075  24.246
 1584TIP3    H128947   6.618   3.045  23.982
 1584TIP3    H228948   6.677   3.080  24.396
 1585TIP3   OH228949   7.449   2.239  24.297
 1585TIP3    H128950   7.444   2.289  24.549
 1585TIP3    H228951   7.509   2.295  24.144
 1586TIP3   OH228952   6.909   2.501  24.366
 1586TIP3    H128953   6.937   2.408  24.390
 1586TIP3    H228954   6.851   2.495  24.138
 1587TIP3   OH228955   6.224   2.271  23.391
 1587TIP3    H128956   6.245   2.352  23.238
 1587TIP3    H228957   6.175   2.219  23.190
 1588TIP3   OH228958   7.038   2.323  22.995
 1588TIP3    H128959   7.075   2.306  23.265
 1588TIP3    H228960   7.111   2.372  22.869
 1589TIP3   OH228961   5.864   2.527  23.664
 1589TIP3    H128962   5.930   2.491  23.853
 1589TIP3    H228963   5.910   2.507  23.409
 1590TIP3   OH228964   6.391   2.693  23.367
 1590TIP3    H128965   6.391   2.677  23.655
 1590TIP3    H228966   6.341   2.616  23.262
 1591TIP3   OH228967   7.463   2.321  25.143
 1591TIP3    H128968   7.406   2.397  25.062
 1591TIP3    H228969   7.529   2.369  25.302
 1592TIP3   OH228970   6.120   2.206  24.681
 1592TIP3    H128971   6.076   2.252  24.459
 1592TIP3    H228972   6.055   2.219  24.897
 1593TIP3   OH228973   6.359   2.965  24.642
 1593TIP3    H128974   6.292   3.031  24.729
 1593TIP3    H228975   6.421   3.026  24.510
 1594TIP3   OH228976   7.151   2.304  23.706
 1594TIP3    H128977   7.114   2.226  23.838
 1594TIP3    H228978   7.190   2.355  23.928
 1595TIP3   OH228979   6.064   2.386  24.033
 1595TIP3    H128980   6.131   2.440  24.180
 1595TIP3    H228981   6.119   2.347  23.823
 1596TIP3   OH228982   6.209   3.176  24.909
 1596TIP3    H128983   6.182   3.242  24.714
 1596TIP3    H228984   6.125   3.173  25.068
 1597TIP3   OH228985   5.787   3.114  22.233
 1597TIP3    H128986   5.778   3.155  21.963
 1597TIP3    H228987   5.800   3.193  22.404
 1598TIP3   OH228988   7.157   3.321  24.195
 1598TIP3    H128989   7.062   3.325  24.267
 1598TIP3    H228990   7.174   3.415  24.135
 1599TIP3   OH228991   7.195   2.194  24.636
 1599TIP3    H128992   7.112   2.191  24.480
 1599TIP3    H228993   7.264   2.210  24.435
 1600TIP3   OH228994   6.467   1.939  23.877
 1600TIP3    H128995   6.435   1.849  23.934
 1600TIP3    H228996   6.388   1.990  23.970
 1601TIP3   OH228997   7.019   3.422  23.310
 1601TIP3    H128998   7.000   3.370  23.073
 1601TIP3    H228999   7.079   3.492  23.208
 1602TIP3   OH229000   7.137   3.229  22.746
 1602TIP3    H129001   7.056   3.181  22.674
 1602TIP3    H229002   7.147   3.207  23.028
 1603TIP3   OH229003   7.257   3.121  25.398
 1603TIP3    H129004   7.253   3.060  25.167
 1603TIP3    H229005   7.264   3.207  25.257
 1604TIP3   OH229006   7.425   2.754  24.723
 1604TIP3    H129007   7.366   2.832  24.699
 1604TIP3    H229008   7.498   2.779  24.531
 1605TIP3   OH229009   7.099   2.782  22.479
 1605TIP3    H129010   7.056   2.860  22.590
 1605TIP3    H229011   7.159   2.754  22.695
 1606TIP3   OH229012   7.084   2.669  25.302
 1606TIP3    H129013   7.061   2.749  25.452
 1606TIP3    H229014   7.009   2.672  25.110
 1607TIP3   OH229015   6.198   2.858  23.076
 1607TIP3    H129016   6.183   2.824  22.803
 1607TIP3    H229017   6.280   2.810  23.151
 1608TIP3   OH229018   6.393   3.226  23.937
 1608TIP3    H129019   6.389   3.191  23.667
 1608TIP3    H229020   6.461   3.168  24.063
 1609TIP3   OH229021   6.308   2.753  24.183
 1609TIP3    H129022   6.258   2.803  23.982
 1609TIP3    H229023   6.318   2.822  24.393
 1610TIP3   OH229024   6.914   3.332  24.495
 1610TIP3    H129025   6.886   3.388  24.720
 1610TIP3    H229026   6.875   3.245  24.570
 1611TIP3   OH229027   6.377   3.224  25.566
 1611TIP3    H129028   6.305   3.267  25.725
 1611TIP3    H229029   6.332   3.211  25.305
 1612TIP3   OH229030   6.078   2.811  25.404
 1612TIP3    H129031   6.085   2.895  25.551
 1612TIP3    H229032   5.984   2.795  25.443
 1613TIP3   OH229033   6.775   3.496  22.806
 1613TIP3    H129034   6.752   3.411  22.926
 1613TIP3    H229035   6.688   3.531  22.737
 1614TIP3   OH229036   6.197   3.387  25.887
 1614TIP3    H129037   6.196   3.444  25.641
 1614TIP3    H229038   6.103   3.364  25.914
 1615TIP3   OH229039   7.285   1.956  21.867
 1615TIP3    H129040   7.214   1.934  21.681
 1615TIP3    H229041   7.348   1.997  21.684
 1616TIP3   OH229042   6.117   2.784  22.341
 1616TIP3    H129043   6.098   2.878  22.260
 1616TIP3    H229044   6.034   2.745  22.257
 1617TIP3   OH229045   5.757   3.037  25.242
 1617TIP3    H129046   5.765   3.050  24.948
 1617TIP3    H229047   5.773   2.941  25.272
 1618TIP3   OH229048   5.758   3.339  23.907
 1618TIP3    H129049   5.807   3.254  23.937
 1618TIP3    H229050   5.738   3.352  24.186
 1619TIP3   OH229051   7.541   3.390  25.803
 1619TIP3    H129052   7.534   3.296  25.743
 1619TIP3    H229053   7.456   3.401  25.947
 1620TIP3   OH229054   6.623   3.337  25.575
 1620TIP3    H129055   6.624   3.414  25.752
 1620TIP3    H229056   6.528   3.308  25.575
 1621TIP3   OH229057   6.652   3.736  22.332
 1621TIP3    H129058   6.654   3.770  22.065
 1621TIP3    H229059   6.684   3.810  22.491
 1622TIP3   OH229060   6.036   3.589  22.983
 1622TIP3    H129061   6.071   3.566  23.250
 1622TIP3    H229062   5.963   3.525  22.944
 1623TIP3   OH229063   6.934   3.633  22.215
 1623TIP3    H129064   6.849   3.625  22.362
 1623TIP3    H229065   6.989   3.575  22.374
 1624TIP3   OH229066   7.211   2.555  25.983
 1624TIP3    H129067   7.165   2.586  25.737
 1624TIP3    H229068   7.230   2.463  25.908
 1625TIP3   OH229069   5.988   3.180  25.356
 1625TIP3    H129070   5.994   3.148  25.635
 1625TIP3    H229071   5.903   3.143  25.272
 1626TIP3   OH229072   6.249   2.051  24.141
 1626TIP3    H129073   6.165   2.057  23.994
 1626TIP3    H229074   6.228   2.105  24.375
 1627TIP3   OH229075   6.729   1.985  25.116
 1627TIP3    H129076   6.761   1.933  25.344
 1627TIP3    H229077   6.630   1.982  25.140
 1628TIP3   OH229078   7.004   2.377  25.437
 1628TIP3    H129079   6.957   2.330  25.653
 1628TIP3    H229080   6.955   2.460  25.425
 1629TIP3   OH229081   6.250   2.510  24.522
 1629TIP3    H129082   6.173   2.517  24.702
 1629TIP3    H229083   6.268   2.604  24.462
 1630TIP3   OH229084   6.247   2.507  22.989
 1630TIP3    H129085   6.149   2.506  22.977
 1630TIP3    H229086   6.267   2.493  22.701
 1631TIP3   OH229087   6.668   2.613  26.076
 1631TIP3    H129088   6.631   2.527  26.163
 1631TIP3    H229089   6.741   2.623  26.265
 1632TIP3   OH229090   6.014   2.522  24.903
 1632TIP3    H129091   6.047   2.565  25.146
 1632TIP3    H229092   5.976   2.439  25.008
 1633TIP3   OH229093   5.810   2.355  21.786
 1633TIP3    H129094   5.880   2.365  21.585
 1633TIP3    H229095   5.786   2.448  21.822
 1634TIP3   OH229096   6.862   2.707  24.858
 1634TIP3    H129097   6.883   2.633  24.672
 1634TIP3    H229098   6.790   2.664  25.011
 1635TIP3   OH229099   6.507   2.269  23.307
 1635TIP3    H129100   6.413   2.266  23.376
 1635TIP3    H229101   6.549   2.240  23.556
 1636TIP3   OH229102   5.982   2.452  22.914
 1636TIP3    H129103   5.898   2.453  22.761
 1636TIP3    H229104   6.017   2.362  22.845
 1637TIP3   OH229105   6.315   2.459  22.230
 1637TIP3    H129106   6.411   2.454  22.284
 1637TIP3    H229107   6.312   2.536  22.056
 1638TIP3   OH229108   6.958   2.204  24.252
 1638TIP3    H129109   6.884   2.201  24.450
 1638TIP3    H229110   6.918   2.165  24.015
 1639TIP3   OH229111   7.251   3.745  26.238
 1639TIP3    H129112   7.292   3.784  26.001
 1639TIP3    H229113   7.324   3.757  26.433
 1640TIP3   OH229114   6.030   3.007  26.049
 1640TIP3    H129115   6.097   3.031  26.250
 1640TIP3    H229116   5.955   2.980  26.217
 1641TIP3   OH229117   6.071   2.198  22.773
 1641TIP3    H129118   6.032   2.118  22.899
 1641TIP3    H229119   6.112   2.157  22.542
 1642TIP3   OH229120   6.481   2.379  24.600
 1642TIP3    H129121   6.405   2.440  24.588
 1642TIP3    H229122   6.549   2.432  24.738
 1643TIP3   OH229123   7.261   2.987  24.735
 1643TIP3    H129124   7.314   3.015  24.504
 1643TIP3    H229125   7.183   2.948  24.603
 1644TIP3   OH229126   6.689   3.072  25.488
 1644TIP3    H129127   6.649   3.034  25.725
 1644TIP3    H229128   6.675   3.168  25.533
 1645TIP3   OH229129   7.041   2.486  21.999
 1645TIP3    H129130   7.114   2.474  22.188
 1645TIP3    H229131   7.027   2.581  22.029
 1646TIP3   OH229132   6.071   2.975  23.751
 1646TIP3    H129133   6.099   2.940  23.490
 1646TIP3    H229134   6.057   2.896  23.919
 1647TIP3   OH229135   5.788   2.781  25.440
 1647TIP3    H129136   5.750   2.731  25.659
 1647TIP3    H229137   5.723   2.760  25.224
 1648TIP3   OH229138   6.456   2.769  26.004
 1648TIP3    H129139   6.411   2.713  25.809
 1648TIP3    H229140   6.543   2.723  26.025
 1649TIP3   OH229141   6.950   3.284  25.542
 1649TIP3    H129142   6.867   3.307  25.410
 1649TIP3    H229143   6.936   3.324  25.806
 1650TIP3   OH229144   7.466   2.539  21.915
 1650TIP3    H129145   7.467   2.461  21.744
 1650TIP3    H229146   7.505   2.607  21.747
 1651TIP3   OH229147   7.483   3.085  25.779
 1651TIP3    H129148   7.396   3.113  25.668
 1651TIP3    H229149   7.536   3.071  25.533
 1652TIP3   OH229150   7.324   3.352  22.143
 1652TIP3    H129151   7.264   3.325  22.362
 1652TIP3    H229152   7.272   3.338  21.906
 1653TIP3   OH229153   7.072   2.865  24.249
 1653TIP3    H129154   6.978   2.852  24.297
 1653TIP3    H229155   7.093   2.797  24.051
 1654TIP3   OH229156   6.274   3.293  23.181
 1654TIP3    H129157   6.355   3.336  23.085
 1654TIP3    H229158   6.205   3.337  23.031
 1655TIP3   OH229159   5.874   2.814  21.444
 1655TIP3    H129160   5.955   2.824  21.600
 1655TIP3    H229161   5.828   2.897  21.501
 1656TIP3   OH229162   6.489   3.482  24.957
 1656TIP3    H129163   6.544   3.548  24.822
 1656TIP3    H229164   6.550   3.445  25.158
 1657TIP3   OH229165   6.288   3.630  22.701
 1657TIP3    H129166   6.199   3.629  22.827
 1657TIP3    H229167   6.329   3.707  22.830
 1658TIP3   OH229168   6.805   3.076  24.765
 1658TIP3    H129169   6.754   3.064  25.017
 1658TIP3    H229170   6.875   3.011  24.816
 1659TIP3   OH229171   7.104   3.538  25.482
 1659TIP3    H129172   7.014   3.499  25.461
 1659TIP3    H229173   7.110   3.592  25.236
 1660TIP3   OH229174   7.527   3.690  21.573
 1660TIP3    H129175   7.567   3.741  21.357
 1660TIP3    H229176   7.458   3.640  21.432
 1661TIP3   OH229177   5.933   2.278  25.290
 1661TIP3    H129178   5.879   2.318  25.503
 1661TIP3    H229179   5.929   2.185  25.377
 1662TIP3   OH229180   5.905   3.461  24.777
 1662TIP3    H129181   5.949   3.376  24.741
 1662TIP3    H229182   5.941   3.487  25.035
 1663TIP3   OH229183   6.352   3.239  21.762
 1663TIP3    H129184   6.429   3.197  21.891
 1663TIP3    H229185   6.357   3.330  21.876
 1664TIP3   OH229186   6.021   2.992  21.960
 1664TIP3    H129187   5.950   3.032  22.125
 1664TIP3    H229188   6.052   3.071  21.810
 1665TIP3   OH229189   6.792   2.251  25.014
 1665TIP3    H129190   6.878   2.261  25.146
 1665TIP3    H229191   6.764   2.163  25.110
 1666TIP3   OH229192   6.863   2.239  22.443
 1666TIP3    H129193   6.915   2.302  22.284
 1666TIP3    H229194   6.925   2.238  22.674
 1667TIP3   OH229195   6.592   2.425  22.503
 1667TIP3    H129196   6.662   2.374  22.377
 1667TIP3    H229197   6.555   2.364  22.698
 1668TIP3   OH229198   6.706   2.512  25.302
 1668TIP3    H129199   6.689   2.533  25.584
 1668TIP3    H229200   6.732   2.418  25.296
 1669TIP3   OH229201   6.671   2.086  22.830
 1669TIP3    H129202   6.631   2.139  23.046
 1669TIP3    H229203   6.732   2.150  22.704
 1670TIP3   OH229204   6.369   3.480  22.071
 1670TIP3    H129205   6.405   3.550  21.900
 1670TIP3    H229206   6.326   3.534  22.281
 1671TIP3   OH229207   6.257   2.167  21.825
 1671TIP3    H129208   6.208   2.248  21.870
 1671TIP3    H229209   6.343   2.193  21.927
 1672TIP3   OH229210   7.249   2.270  25.623
 1672TIP3    H129211   7.167   2.298  25.485
 1672TIP3    H229212   7.317   2.296  25.431
 1673TIP3   OH229213   7.084   2.612  23.664
 1673TIP3    H129214   7.045   2.524  23.670
 1673TIP3    H229215   7.149   2.598  23.886
 1674TIP3   OH229216   6.080   3.221  21.567
 1674TIP3    H129217   6.160   3.259  21.693
 1674TIP3    H229218   6.121   3.182  21.327
 1675TIP3   OH229219   7.259   3.572  24.216
 1675TIP3    H129220   7.240   3.641  24.015
 1675TIP3    H229221   7.356   3.583  24.249
 1676TIP3   OH229222   5.987   1.994  23.970
 1676TIP3    H129223   5.987   1.978  23.682
 1676TIP3    H229224   5.957   1.908  24.078
 1677TIP3   OH229225   5.849   3.386  22.737
 1677TIP3    H129226   5.766   3.427  22.827
 1677TIP3    H229227   5.857   3.429  22.473
 1678TIP3   OH229228   5.779   3.653  26.136
 1678TIP3    H129229   5.849   3.635  26.334
 1678TIP3    H229230   5.744   3.563  26.091
 1679TIP3   OH229231   6.260   3.543  26.535
 1679TIP3    H129232   6.344   3.505  26.628
 1679TIP3    H229233   6.249   3.498  26.277
 1680TIP3   OH229234   6.899   3.411  26.262
 1680TIP3    H129235   6.867   3.322  26.352
 1680TIP3    H229236   6.985   3.415  26.400
 1681TIP3   OH229237   5.779   3.007  26.505
 1681TIP3    H129238   5.753   2.914  26.463
 1681TIP3    H229239   5.724   3.049  26.295
 1682TIP3   OH229240   6.213   3.088  20.982
 1682TIP3    H129241   6.253   3.061  21.237
 1682TIP3    H229242   6.255   3.025  20.802
 1683TIP3   OH229243   6.440   3.033  26.121
 1683TIP3    H129244   6.425   3.081  25.866
 1683TIP3    H229245   6.444   2.937  26.046
 1684TIP3   OH229246   7.025   3.001  25.503
 1684TIP3    H129247   7.114   3.042  25.530
 1684TIP3    H229248   6.972   3.083  25.521
 1685TIP3   OH229249   5.894   2.732  26.382
 1685TIP3    H129250   5.947   2.653  26.352
 1685TIP3    H229251   5.936   2.781  26.607
 1686TIP3   OH229252   6.310   2.879  21.660
 1686TIP3    H129253   6.277   2.843  21.909
 1686TIP3    H229254   6.359   2.803  21.549
 1687TIP3   OH229255   6.276   2.642  25.356
 1687TIP3    H129256   6.203   2.707  25.371
 1687TIP3    H229257   6.347   2.693  25.224
 1688TIP3   OH229258   6.453   2.659  21.342
 1688TIP3    H129259   6.460   2.598  21.120
 1688TIP3    H229260   6.536   2.711  21.327
 1689TIP3   OH229261   6.771   2.921  26.523
 1689TIP3    H129262   6.846   2.893  26.358
 1689TIP3    H229263   6.749   2.836  26.658
 1690TIP3   OH229264   6.337   2.405  25.644
 1690TIP3    H129265   6.347   2.342  25.419
 1690TIP3    H229266   6.330   2.492  25.506
 1691TIP3   OH229267   6.354   2.199  25.047
 1691TIP3    H129268   6.404   2.254  24.852
 1691TIP3    H229269   6.264   2.203  24.927
 1692TIP3   OH229270   6.491   2.778  25.068
 1692TIP3    H129271   6.583   2.798  25.014
 1692TIP3    H229272   6.444   2.852  24.930
 1693TIP3   OH229273   7.005   2.504  26.511
 1693TIP3    H129274   7.053   2.420  26.499
 1693TIP3    H229275   7.062   2.554  26.325
 1694TIP3   OH229276   7.057   2.834  26.124
 1694TIP3    H129277   7.038   2.890  25.890
 1694TIP3    H229278   7.149   2.807  26.076
 1695TIP3   OH229279   6.181   2.473  26.307
 1695TIP3    H129280   6.096   2.432  26.235
 1695TIP3    H229281   6.234   2.451  26.070
 1696TIP3   OH229282   6.463   1.959  25.056
 1696TIP3    H129283   6.431   2.052  25.083
 1696TIP3    H229284   6.380   1.915  25.002
 1697TIP3   OH229285   6.549   2.380  26.307
 1697TIP3    H129286   6.489   2.350  26.520
 1697TIP3    H229287   6.493   2.369  26.070
 1698TIP3   OH229288   6.832   2.298  26.040
 1698TIP3    H129289   6.750   2.323  26.178
 1698TIP3    H229290   6.878   2.249  26.256
 1699TIP3   OH229291   7.002   2.177  26.547
 1699TIP3    H129292   6.990   2.079  26.550
 1699TIP3    H229293   6.972   2.202  26.820
 1700TIP3   OH229294   5.958   2.296  26.337
 1700TIP3    H129295   5.939   2.215  26.187
 1700TIP3    H229296   5.941   2.265  26.616
 1701TIP3   OH229297   6.421   1.922  25.938
 1701TIP3    H129298   6.492   1.858  25.989
 1701TIP3    H229299   6.428   1.928  25.644
 1702TIP3   OH229300   6.451   2.048  26.706
 1702TIP3    H129301   6.438   2.017  26.430
 1702TIP3    H229302   6.403   2.133  26.709
 1703TIP3   OH229303   6.407   3.724  21.543
 1703TIP3    H129304   6.489   3.713  21.390
 1703TIP3    H229305   6.386   3.817  21.480
 1704TIP3   OH229306   5.809   3.203  21.444
 1704TIP3    H129307   5.907   3.214  21.459
 1704TIP3    H229308   5.794   3.211  21.156
 1705TIP3   OH229309   5.740   3.557  23.439
 1705TIP3    H129310   5.759   3.464  23.517
 1705TIP3    H229311   5.698   3.587  23.688
 1706TIP3   OH229312   7.546   3.601  24.429
 1706TIP3    H129313   7.541   3.580  24.717
 1706TIP3    H229314   7.533   3.698  24.444
 1707TIP3   OH229315   7.467   3.567  25.212
 1707TIP3    H129316   7.418   3.493  25.083
 1707TIP3    H229317   7.504   3.518  25.440
 1708TIP3   OH229318   7.316   3.162  26.700
 1708TIP3    H129319   7.230   3.176  26.832
 1708TIP3    H229320   7.357   3.251  26.730
 1709TIP3   OH229321   7.474   3.006  22.185
 1709TIP3    H129322   7.490   3.085  22.347
 1709TIP3    H229323   7.460   2.942  22.398
 1710TIP3   OH229324   7.473   2.779  22.797
 1710TIP3    H129325   7.388   2.740  22.893
 1710TIP3    H229326   7.514   2.808  23.043
 1711TIP3   OH229327   7.486   3.048  24.279
 1711TIP3    H129328   7.581   3.049  24.219
 1711TIP3    H229329   7.464   3.141  24.204
 1712TIP3   OH229330   7.312   3.359  24.975
 1712TIP3    H129331   7.235   3.404  25.086
 1712TIP3    H229332   7.288   3.348  24.696
 1713TIP3   OH229333   7.528   2.814  21.630
 1713TIP3    H129334   7.433   2.812  21.672
 1713TIP3    H229335   7.554   2.856  21.879
 1714TIP3   OH229336   7.247   2.651  23.034
 1714TIP3    H129337   7.220   2.568  22.896
 1714TIP3    H229338   7.207   2.638  23.298
 1715TIP3   OH229339   5.730   2.806  24.195
 1715TIP3    H129340   5.733   2.825  23.907
 1715TIP3    H229341   5.819   2.843  24.264
 1716TIP3   OH229342   7.338   2.848  25.914
 1716TIP3    H129343   7.410   2.788  25.833
 1716TIP3    H229344   7.384   2.935  25.881
 1717TIP3   OH229345   7.488   2.632  25.941
 1717TIP3    H129346   7.392   2.634  26.004
 1717TIP3    H229347   7.509   2.538  26.010
 1718TIP3   OH229348   7.250   2.436  22.539
 1718TIP3    H129349   7.279   2.345  22.470
 1718TIP3    H229350   7.331   2.485  22.482
 1719TIP3   OH229351   7.241   2.502  24.192
 1719TIP3    H129352   7.338   2.492  24.150
 1719TIP3    H229353   7.238   2.496  24.486
 1720TIP3   OH229354   7.296   2.535  25.014
 1720TIP3    H129355   7.207   2.569  25.095
 1720TIP3    H229356   7.337   2.618  24.915
 1721TIP3   OH229357   5.748   2.392  25.992
 1721TIP3    H129358   5.831   2.382  26.148
 1721TIP3    H229359   5.706   2.304  26.037
 1722TIP3   OH229360   7.510   1.917  26.556
 1722TIP3    H129361   7.551   1.857  26.364
 1722TIP3    H229362   7.502   1.996  26.382
 1723TIP3   OH229363   7.314   2.190  22.362
 1723TIP3    H129364   7.341   2.136  22.593
 1723TIP3    H229365   7.229   2.151  22.290
 1724TIP3   OH229366   5.831   2.222  23.964
 1724TIP3    H129367   5.887   2.142  24.006
 1724TIP3    H229368   5.897   2.290  23.907
 1725TIP3   OH229369   5.681   2.541  24.261
 1725TIP3    H129370   5.739   2.507  24.048
 1725TIP3    H229371   5.706   2.637  24.246
 1726TIP3   OH229372   7.458   2.139  26.142
 1726TIP3    H129373   7.382   2.196  26.229
 1726TIP3    H229374   7.430   2.123  25.866
 1727TIP3   OH229375   5.744   2.140  22.338
 1727TIP3    H129376   5.649   2.128  22.320
 1727TIP3    H229377   5.758   2.226  22.212
 1728TIP3   OH229378   7.186   3.623  23.031
 1728TIP3    H129379   7.247   3.610  22.809
 1728TIP3    H229380   7.245   3.655  23.238
 1729TIP3   OH229381   5.712   2.008  24.930
 1729TIP3    H129382   5.652   1.980  25.140
 1729TIP3    H229383   5.662   2.079  24.798
 1730TIP3   OH229384   5.931   3.324  26.100
 1730TIP3    H129385   5.847   3.354  25.986
 1730TIP3    H229386   5.910   3.309  26.376
 1731TIP3   OH229387   6.229   3.501  25.179
 1731TIP3    H129388   6.227   3.586  25.032
 1731TIP3    H229389   6.323   3.476  25.143
 1732TIP3   OH229390   6.630   3.602  25.911
 1732TIP3    H129391   6.644   3.571  26.187
 1732TIP3    H229392   6.721   3.632  25.842
 1733TIP3   OH229393   6.864   3.740  25.776
 1733TIP3    H129394   6.945   3.702  25.662
 1733TIP3    H229395   6.896   3.775  26.031
 1734TIP3   OH229396   7.360   1.958  25.485
 1734TIP3    H129397   7.283   2.003  25.371
 1734TIP3    H229398   7.361   1.872  25.350
 1735TIP3   OH229399   5.961   3.775  25.011
 1735TIP3    H129400   5.874   3.816  24.936
 1735TIP3    H229401   5.951   3.771  25.299
 1736TIP3   OH229402   6.209   3.731  24.771
 1736TIP3    H129403   6.113   3.744  24.840
 1736TIP3    H229404   6.214   3.791  24.543
 1737TIP3   OH229405   6.678   3.683  24.525
 1737TIP3    H129406   6.624   3.716  24.306
 1737TIP3    H229407   6.690   3.763  24.690
 1738TIP3   OH229408   6.865   3.556  24.984
 1738TIP3    H129409   6.796   3.581  24.783
 1738TIP3    H229410   6.935   3.618  24.909
 1739TIP3   OH229411   7.134   3.694  24.840
 1739TIP3    H129412   7.131   3.785  24.741
 1739TIP3    H229413   7.173   3.647  24.609
 1740TIP3   OH229414   5.921   3.647  24.186
 1740TIP3    H129415   5.897   3.581  24.393
 1740TIP3    H229416   6.002   3.607  24.066
 1741TIP3   OH229417   6.138   3.571  23.757
 1741TIP3    H129418   6.100   3.482  23.808
 1741TIP3    H229419   6.230   3.554  23.847
 1742TIP3   OH229420   6.381   3.498  24.042
 1742TIP3    H129421   6.407   3.403  24.015
 1742TIP3    H229422   6.381   3.506  24.333
 1743TIP3   OH229423   6.685   2.083  23.718
 1743TIP3    H129424   6.605   2.036  23.820
 1743TIP3    H229425   6.728   2.011  23.574
 1744TIP3   OH229426   7.235   1.916  23.730
 1744TIP3    H129427   7.269   1.987  23.559
 1744TIP3    H229428   7.140   1.926  23.673
 1745TIP3   OH229429   7.375   2.045  23.040
 1745TIP3    H129430   7.445   1.976  22.995
 1745TIP3    H229431   7.424   2.098  23.241
 1746TIP3   OH229432   5.996   1.964  23.085
 1746TIP3    H129433   5.912   1.953  22.944
 1746TIP3    H229434   6.040   1.877  23.034
 1747TIP3   OH229435   5.896   2.004  21.792
 1747TIP3    H129436   5.900   2.100  21.843
 1747TIP3    H229437   5.825   1.983  21.981
 1748TIP3   OH229438   6.395   1.936  23.064
 1748TIP3    H129439   6.474   1.972  22.941
 1748TIP3    H229440   6.414   1.955  23.346
 1749TIP3   OH229441   6.988   1.994  23.448
 1749TIP3    H129442   6.979   1.965  23.172
 1749TIP3    H229443   6.916   1.940  23.571
 1750TIP3   OH229444   7.029   2.002  22.257
 1750TIP3    H129445   6.946   2.046  22.191
 1750TIP3    H229446   7.013   1.910  22.173
 1751TIP3   OH229447   5.819   3.554  22.116
 1751TIP3    H129448   5.740   3.545  21.942
 1751TIP3    H229449   5.847   3.643  22.035
 1752TIP3   OH229450   7.364   3.613  22.443
 1752TIP3    H129451   7.378   3.527  22.311
 1752TIP3    H229452   7.347   3.673  22.218
 1753TIP3   OH229453   5.923   2.037  25.953
 1753TIP3    H129454   5.876   1.952  25.959
 1753TIP3    H229455   6.002   2.022  26.124
 1754TIP3   OH229456   6.123   1.958  26.493
 1754TIP3    H129457   6.217   1.941  26.427
 1754TIP3    H229458   6.097   1.868  26.577
 1755TIP3   OH229459   5.967   3.676  21.210
 1755TIP3    H129460   5.934   3.735  21.423
 1755TIP3    H229461   6.040   3.630  21.336
 1756TIP3   OH229462   6.991   1.900  26.520
 1756TIP3    H129463   6.995   1.847  26.772
 1756TIP3    H229464   7.077   1.872  26.403
 1757TIP3   OH229465   7.292   3.446  25.983
 1757TIP3    H129466   7.224   3.458  25.773
 1757TIP3    H229467   7.294   3.537  26.088
 1758TIP3   OH229468   7.579   2.520  22.683
 1758TIP3    H129469   7.553   2.612  22.746
 1758TIP3    H229470   7.537   2.511  22.419
 1759TIP3   OH229471   7.586   3.015  25.062
 1759TIP3    H129472   7.530   3.007  24.822
 1759TIP3    H229473   7.598   2.922  25.146
 1760TIP3   OH229474   7.556   3.307  24.108
 1760TIP3    H129475   7.651   3.304  24.024
 1760TIP3    H229476   7.553   3.398  24.213
 1761TIP3   OH229477   7.545   2.243  23.343
 1761TIP3    H129478   7.543   2.340  23.376
 1761TIP3    H229479   7.558   2.234  23.052
 1762TIP3   OH229480   7.594   2.767  25.341
 1762TIP3    H129481   7.579   2.700  25.548
 1762TIP3    H229482   7.520   2.747  25.155
 1763TIP3   OH229483   7.640   2.960  26.298
 1763TIP3    H129484   7.599   2.874  26.352
 1763TIP3    H229485   7.576   3.006  26.124
 1764TIP3   OH229486   7.516   3.743  22.968
 1764TIP3    H129487   7.459   3.699  22.764
 1764TIP3    H229488   7.531   3.665  23.145
 1765TIP3   OH229489   7.569   3.529  23.433
 1765TIP3    H129490   7.546   3.436  23.478
 1765TIP3    H229491   7.642   3.540  23.616
 1766TIP3   OH229492   7.632   2.801  24.258
 1766TIP3    H129493   7.620   2.824  23.976
 1766TIP3    H229494   7.712   2.856  24.315
 1767TIP3   OH229495   7.547   2.388  26.121
 1767TIP3    H129496   7.644   2.393  26.112
 1767TIP3    H229497   7.529   2.296  26.205
 1768TIP3   OH229498   7.506   2.508  24.126
 1768TIP3    H129499   7.604   2.499  24.162
 1768TIP3    H229500   7.497   2.601  24.195
 1769TIP3   OH229501   7.593   2.187  22.533
 1769TIP3    H129502   7.502   2.183  22.428
 1769TIP3    H229503   7.645   2.183  22.290
 1770TIP3   OH229504   7.492   1.992  24.771
 1770TIP3    H129505   7.479   1.992  25.059
 1770TIP3    H229506   7.458   2.081  24.699
 1771TIP3   OH229507   1.225   4.782  23.022
 1771TIP3    H129508   1.212   4.877  22.965
 1771TIP3    H229509   1.157   4.747  22.842
 1772TIP3   OH229510   1.117   4.675  24.081
 1772TIP3    H129511   1.124   4.635  24.354
 1772TIP3    H229512   1.050   4.616  23.964
 1773TIP3   OH229513   0.343   4.673  24.594
 1773TIP3    H129514   0.323   4.582  24.675
 1773TIP3    H229515   0.398   4.701  24.825
 1774TIP3   OH229516   1.452   4.977  23.661
 1774TIP3    H129517   1.409   4.911  23.829
 1774TIP3    H229518   1.462   5.052  23.850
 1775TIP3   OH229519   0.358   5.118  24.096
 1775TIP3    H129520   0.330   5.028  24.024
 1775TIP3    H229521   0.454   5.111  24.072
 1776TIP3   OH229522   0.154   4.471  22.704
 1776TIP3    H129523   0.088   4.532  22.608
 1776TIP3    H229524   0.103   4.388  22.713
 1777TIP3   OH229525   0.153   4.666  23.508
 1777TIP3    H129526   0.185   4.583  23.391
 1777TIP3    H229527   0.156   4.728  23.286
 1778TIP3   OH229528   1.179   5.499  23.559
 1778TIP3    H129529   1.263   5.453  23.484
 1778TIP3    H229530   1.139   5.426  23.706
 1779TIP3   OH229531   0.925   4.923  24.306
 1779TIP3    H129532   0.967   4.877  24.087
 1779TIP3    H229533   1.006   4.955  24.444
 1780TIP3   OH229534   1.790   4.093  24.273
 1780TIP3    H129535   1.792   4.150  24.513
 1780TIP3    H229536   1.877   4.117  24.159
 1781TIP3   OH229537   1.291   4.387  24.366
 1781TIP3    H129538   1.310   4.292  24.411
 1781TIP3    H229539   1.253   4.384  24.096
 1782TIP3   OH229540   1.317   4.210  23.019
 1782TIP3    H129541   1.371   4.173  23.235
 1782TIP3    H229542   1.381   4.272  22.899
 1783TIP3   OH229543   1.803   4.225  25.029
 1783TIP3    H129544   1.770   4.313  24.939
 1783TIP3    H229545   1.829   4.248  25.302
 1784TIP3   OH229546   0.470   4.090  24.687
 1784TIP3    H129547   0.430   4.142  24.468
 1784TIP3    H229548   0.416   4.121  24.915
 1785TIP3   OH229549   1.160   5.044  22.779
 1785TIP3    H129550   1.134   5.055  22.494
 1785TIP3    H229551   1.151   5.137  22.872
 1786TIP3   OH229552   0.713   4.862  24.783
 1786TIP3    H129553   0.654   4.937  24.846
 1786TIP3    H229554   0.780   4.905  24.609
 1787TIP3   OH229555   1.515   4.173  23.592
 1787TIP3    H129556   1.503   4.087  23.718
 1787TIP3    H229557   1.602   4.200  23.691
 1788TIP3   OH229558   0.402   4.268  24.060
 1788TIP3    H129559   0.456   4.335  24.207
 1788TIP3    H229560   0.459   4.248  23.832
 1789TIP3   OH229561   0.559   5.087  24.966
 1789TIP3    H129562   0.540   5.176  24.855
 1789TIP3    H229563   0.469   5.063  25.053
 1790TIP3   OH229564   0.129   5.024  22.263
 1790TIP3    H129565   0.105   5.045  21.984
 1790TIP3    H229566   0.173   5.105  22.362
 1791TIP3   OH229567   1.513   5.184  24.228
 1791TIP3    H129568   1.418   5.198  24.285
 1791TIP3    H229569   1.530   5.272  24.108
 1792TIP3   OH229570   1.496   4.029  24.576
 1792TIP3    H129571   1.414   4.059  24.441
 1792TIP3    H229572   1.562   4.057  24.375
 1793TIP3   OH229573   0.824   3.808  24.054
 1793TIP3    H129574   0.798   3.759  23.817
 1793TIP3    H229575   0.748   3.870  24.072
 1794TIP3   OH229576   1.377   5.353  23.289
 1794TIP3    H129577   1.365   5.292  23.064
 1794TIP3    H229578   1.442   5.416  23.175
 1795TIP3   OH229579   1.475   5.156  22.773
 1795TIP3    H129580   1.448   5.092  22.569
 1795TIP3    H229581   1.452   5.105  23.013
 1796TIP3   OH229582   1.612   5.016  25.392
 1796TIP3    H129583   1.631   4.944  25.200
 1796TIP3    H229584   1.619   5.094  25.215
 1797TIP3   OH229585   1.096   4.722  22.269
 1797TIP3    H129586   1.044   4.802  22.209
 1797TIP3    H229587   1.119   4.692  21.996
 1798TIP3   OH229588   1.824   4.658  24.729
 1798TIP3    H129589   1.756   4.728  24.750
 1798TIP3    H229590   1.882   4.699  24.528
 1799TIP3   OH229591   1.434   4.680  22.545
 1799TIP3    H129592   1.367   4.720  22.722
 1799TIP3    H229593   1.501   4.652  22.743
 1800TIP3   OH229594   1.436   4.548  25.293
 1800TIP3    H129595   1.410   4.631  25.416
 1800TIP3    H229596   1.369   4.545  25.077
 1801TIP3   OH229597   0.704   5.096  23.901
 1801TIP3    H129598   0.735   5.100  23.628
 1801TIP3    H229599   0.785   5.074  24.054
 1802TIP3   OH229600   0.646   4.676  24.240
 1802TIP3    H129601   0.741   4.676  24.183
 1802TIP3    H229602   0.642   4.738  24.465
 1803TIP3   OH229603   1.259   5.238  24.450
 1803TIP3    H129604   1.234   5.314  24.612
 1803TIP3    H229605   1.212   5.166  24.588
 1804TIP3   OH229606   0.706   5.110  25.629
 1804TIP3    H129607   0.636   5.154  25.788
 1804TIP3    H229608   0.656   5.098  25.374
 1805TIP3   OH229609   0.450   4.727  25.293
 1805TIP3    H129610   0.449   4.811  25.446
 1805TIP3    H229611   0.356   4.701  25.335
 1806TIP3   OH229612   1.110   5.293  22.977
 1806TIP3    H129613   1.133   5.386  23.040
 1806TIP3    H229614   1.023   5.304  22.857
 1807TIP3   OH229615   0.525   5.289  25.884
 1807TIP3    H129616   0.514   5.303  25.596
 1807TIP3    H229617   0.433   5.273  25.971
 1808TIP3   OH229618   1.683   3.791  21.900
 1808TIP3    H129619   1.588   3.803  21.960
 1808TIP3    H229620   1.714   3.883  21.930
 1809TIP3   OH229621   0.173   4.910  25.137
 1809TIP3    H129622   0.082   4.919  25.035
 1809TIP3    H229623   0.192   4.816  25.080
 1810TIP3   OH229624   0.125   5.242  24.003
 1810TIP3    H129625   0.200   5.179  24.030
 1810TIP3    H229626   0.143   5.299  24.234
 1811TIP3   OH229627   1.878   5.241  25.908
 1811TIP3    H129628   1.867   5.144  25.881
 1811TIP3    H229629   1.791   5.260  26.034
 1812TIP3   OH229630   0.947   5.218  25.602
 1812TIP3    H129631   0.954   5.294  25.785
 1812TIP3    H229632   0.855   5.185  25.641
 1813TIP3   OH229633   1.034   5.604  22.209
 1813TIP3    H129634   0.968   5.635  22.017
 1813TIP3    H229635   1.027   5.671  22.422
 1814TIP3   OH229636   1.293   5.506  22.440
 1814TIP3    H129637   1.212   5.560  22.443
 1814TIP3    H229638   1.262   5.426  22.302
 1815TIP3   OH229639   1.575   4.404  25.950
 1815TIP3    H129640   1.517   4.441  25.740
 1815TIP3    H229641   1.571   4.309  25.890
 1816TIP3   OH229642   0.307   5.122  25.326
 1816TIP3    H129643   0.316   5.092  25.599
 1816TIP3    H229644   0.249   5.049  25.224
 1817TIP3   OH229645   0.591   3.945  24.090
 1817TIP3    H129646   0.502   3.932  23.976
 1817TIP3    H229647   0.567   3.989  24.339
 1818TIP3   OH229648   1.044   3.889  25.113
 1818TIP3    H129649   1.084   3.840  25.338
 1818TIP3    H229650   0.948   3.870  25.143
 1819TIP3   OH229651   1.326   4.290  25.509
 1819TIP3    H129652   1.268   4.247  25.716
 1819TIP3    H229653   1.280   4.374  25.464
 1820TIP3   OH229654   0.589   4.423  24.456
 1820TIP3    H129655   0.518   4.426  24.660
 1820TIP3    H229656   0.611   4.517  24.423
 1821TIP3   OH229657   1.133   4.471  22.452
 1821TIP3    H129658   1.131   4.570  22.428
 1821TIP3    H229659   1.219   4.452  22.323
 1822TIP3   OH229660   1.040   4.502  26.025
 1822TIP3    H129661   0.996   4.422  26.133
 1822TIP3    H229662   1.112   4.509  26.226
 1823TIP3   OH229663   1.220   4.431  23.541
 1823TIP3    H129664   1.239   4.508  23.367
 1823TIP3    H229665   1.225   4.356  23.352
 1824TIP3   OH229666   0.377   4.399  24.939
 1824TIP3    H129667   0.410   4.439  25.182
 1824TIP3    H229668   0.326   4.322  25.038
 1825TIP3   OH229669   0.100   4.200  23.289
 1825TIP3    H129670   0.131   4.135  23.484
 1825TIP3    H229671   0.121   4.154  23.034
 1826TIP3   OH229672   0.103   4.255  21.855
 1826TIP3    H129673   0.165   4.265  21.630
 1826TIP3    H229674   0.160   4.287  22.068
 1827TIP3   OH229675   1.154   4.562  24.801
 1827TIP3    H129676   1.209   4.493  24.669
 1827TIP3    H229677   1.095   4.506  24.966
 1828TIP3   OH229678   1.280   4.107  24.213
 1828TIP3    H129679   1.222   4.092  24.447
 1828TIP3    H229680   1.237   4.050  24.009
 1829TIP3   OH229681   1.572   5.657  26.262
 1829TIP3    H129682   1.588   5.708  26.019
 1829TIP3    H229683   1.650   5.683  26.418
 1830TIP3   OH229684   0.431   4.921  25.848
 1830TIP3    H129685   0.501   4.926  26.049
 1830TIP3    H229686   0.351   4.912  26.010
 1831TIP3   OH229687   0.944   4.477  23.847
 1831TIP3    H129688   1.024   4.447  23.709
 1831TIP3    H229689   0.911   4.393  23.955
 1832TIP3   OH229690   0.824   4.275  24.579
 1832TIP3    H129691   0.755   4.343  24.600
 1832TIP3    H229692   0.898   4.316  24.726
 1833TIP3   OH229693   0.891   4.903  22.107
 1833TIP3    H129694   0.823   4.840  22.008
 1833TIP3    H229695   0.849   4.927  22.359
 1834TIP3   OH229696   1.639   4.858  24.765
 1834TIP3    H129697   1.690   4.918  24.585
 1834TIP3    H229698   1.555   4.855  24.618
 1835TIP3   OH229699   1.272   4.205  21.498
 1835TIP3    H129700   1.185   4.177  21.588
 1835TIP3    H229701   1.283   4.292  21.627
 1836TIP3   OH229702   0.988   4.943  25.488
 1836TIP3    H129703   0.945   4.920  25.740
 1836TIP3    H229704   0.981   5.041  25.494
 1837TIP3   OH229705   1.352   4.412  22.023
 1837TIP3    H129706   1.427   4.404  22.206
 1837TIP3    H229707   1.367   4.498  21.894
 1838TIP3   OH229708   0.432   4.864  23.808
 1838TIP3    H129709   0.512   4.908  23.718
 1838TIP3    H229710   0.464   4.793  23.979
 1839TIP3   OH229711   1.099   5.078  21.969
 1839TIP3    H129712   1.046   5.156  21.897
 1839TIP3    H229713   1.031   5.007  21.963
 1840TIP3   OH229714   0.188   4.635  25.335
 1840TIP3    H129715   0.182   4.602  25.608
 1840TIP3    H229716   0.093   4.634  25.263
 1841TIP3   OH229717   0.792   4.653  25.989
 1841TIP3    H129718   0.738   4.594  25.821
 1841TIP3    H229719   0.878   4.605  25.995
 1842TIP3   OH229720   1.300   5.181  25.515
 1842TIP3    H129721   1.224   5.205  25.353
 1842TIP3    H229722   1.275   5.220  25.773
 1843TIP3   OH229723   1.793   4.397  22.176
 1843TIP3    H129724   1.816   4.351  21.927
 1843TIP3    H229725   1.807   4.489  22.077
 1844TIP3   OH229726   1.854   4.975  25.764
 1844TIP3    H129727   1.764   4.990  25.656
 1844TIP3    H229728   1.907   4.971  25.515
 1845TIP3   OH229729   1.657   5.226  22.131
 1845TIP3    H129730   1.613   5.220  22.398
 1845TIP3    H229731   1.603   5.165  21.975
 1846TIP3   OH229732   1.385   4.770  24.228
 1846TIP3    H129733   1.296   4.740  24.153
 1846TIP3    H229734   1.440   4.710  24.066
 1847TIP3   OH229735   0.641   5.215  23.055
 1847TIP3    H129736   0.659   5.308  23.127
 1847TIP3    H229737   0.554   5.220  22.932
 1848TIP3   OH229738   0.238   4.661  21.513
 1848TIP3    H129739   0.290   4.741  21.567
 1848TIP3    H229740   0.167   4.702  21.357
 1849TIP3   OH229741   0.750   4.952  22.899
 1849TIP3    H129742   0.715   5.044  22.896
 1849TIP3    H229743   0.773   4.938  23.175
 1850TIP3   OH229744   0.838   5.361  24.906
 1850TIP3    H129745   0.898   5.427  24.792
 1850TIP3    H229746   0.889   5.325  25.131
 1851TIP3   OH229747   1.143   4.970  24.717
 1851TIP3    H129748   1.099   4.929  24.948
 1851TIP3    H229749   1.217   4.909  24.669
 1852TIP3   OH229750   1.399   5.152  21.705
 1852TIP3    H129751   1.385   5.097  21.942
 1852TIP3    H229752   1.364   5.089  21.507
 1853TIP3   OH229753   1.485   5.437  25.398
 1853TIP3    H129754   1.398   5.397  25.338
 1853TIP3    H229755   1.496   5.497  25.170
 1854TIP3   OH229756   0.284   4.173  25.260
 1854TIP3    H129757   0.251   4.206  25.518
 1854TIP3    H229758   0.251   4.082  25.251
 1855TIP3   OH229759   1.503   4.924  22.194
 1855TIP3    H129760   1.478   4.831  22.239
 1855TIP3    H229761   1.600   4.914  22.176
 1856TIP3   OH229762   0.251   5.354  24.699
 1856TIP3    H129763   0.307   5.277  24.756
 1856TIP3    H229764   0.226   5.379  24.966
 1857TIP3   OH229765   0.703   5.121  21.732
 1857TIP3    H129766   0.780   5.062  21.744
 1857TIP3    H229767   0.740   5.206  21.825
 1858TIP3   OH229768   0.349   4.877  21.927
 1858TIP3    H129769   0.266   4.916  22.029
 1858TIP3    H229770   0.392   4.950  21.783
 1859TIP3   OH229771   1.154   4.130  24.966
 1859TIP3    H129772   1.232   4.144  25.134
 1859TIP3    H229773   1.116   4.047  25.074
 1860TIP3   OH229774   1.261   4.063  22.377
 1860TIP3    H129775   1.279   4.111  22.131
 1860TIP3    H229776   1.275   4.132  22.587
 1861TIP3   OH229777   0.987   5.323  21.864
 1861TIP3    H129778   0.902   5.369  21.915
 1861TIP3    H229779   1.050   5.396  21.831
 1862TIP3   OH229780   0.980   4.253  22.620
 1862TIP3    H129781   1.023   4.334  22.512
 1862TIP3    H229782   0.886   4.264  22.557
 1863TIP3   OH229783   1.040   4.383  25.266
 1863TIP3    H129784   1.045   4.429  25.527
 1863TIP3    H229785   1.069   4.292  25.320
 1864TIP3   OH229786   1.043   3.979  22.872
 1864TIP3    H129787   0.980   4.052  22.824
 1864TIP3    H229788   1.121   4.017  22.737
 1865TIP3   OH229789   0.738   5.418  21.942
 1865TIP3    H129790   0.690   5.465  21.729
 1865TIP3    H229791   0.681   5.441  22.164
 1866TIP3   OH229792   1.587   4.157  25.572
 1866TIP3    H129793   1.494   4.178  25.512
 1866TIP3    H229794   1.631   4.171  25.314
 1867TIP3   OH229795   1.481   4.528  23.748
 1867TIP3    H129796   1.407   4.465  23.739
 1867TIP3    H229797   1.548   4.480  23.907
 1868TIP3   OH229798   0.424   5.087  21.432
 1868TIP3    H129799   0.469   5.107  21.684
 1868TIP3    H229800   0.481   5.137  21.252
 1869TIP3   OH229801   1.551   5.454  24.177
 1869TIP3    H129802   1.548   5.518  23.952
 1869TIP3    H229803   1.647   5.457  24.228
 1870TIP3   OH229804   0.342   3.891  23.868
 1870TIP3    H129805   0.341   3.858  23.595
 1870TIP3    H229806   0.321   3.807  24.015
 1871TIP3   OH229807   0.237   5.255  22.701
 1871TIP3    H129808   0.146   5.280  22.620
 1871TIP3    H229809   0.286   5.329  22.581
 1872TIP3   OH229810   0.170   5.529  26.145
 1872TIP3    H129811   0.225   5.503  26.376
 1872TIP3    H229812   0.108   5.456  26.142
 1873TIP3   OH229813   0.630   5.415  26.562
 1873TIP3    H129814   0.718   5.375  26.586
 1873TIP3    H229815   0.609   5.396  26.280
 1874TIP3   OH229816   1.243   5.279  26.244
 1874TIP3    H129817   1.208   5.193  26.346
 1874TIP3    H229818   1.327   5.285  26.394
 1875TIP3   OH229819   0.206   4.944  26.466
 1875TIP3    H129820   0.213   4.847  26.466
 1875TIP3    H229821   0.114   4.942  26.367
 1876TIP3   OH229822   0.801   4.924  26.157
 1876TIP3    H129823   0.773   4.972  25.914
 1876TIP3    H229824   0.800   4.828  26.079
 1877TIP3   OH229825   1.364   4.900  25.533
 1877TIP3    H129826   1.446   4.953  25.533
 1877TIP3    H229827   1.301   4.974  25.530
 1878TIP3   OH229828   0.233   4.619  26.355
 1878TIP3    H129829   0.308   4.557  26.328
 1878TIP3    H229830   0.250   4.662  26.613
 1879TIP3   OH229831   0.713   4.717  21.816
 1879TIP3    H129832   0.639   4.658  21.864
 1879TIP3    H229833   0.751   4.682  21.570
 1880TIP3   OH229834   0.633   4.539  25.368
 1880TIP3    H129835   0.570   4.614  25.335
 1880TIP3    H229836   0.708   4.577  25.212
 1881TIP3   OH229837   1.152   4.804  26.445
 1881TIP3    H129838   1.208   4.754  26.262
 1881TIP3    H229839   1.114   4.733  26.610
 1882TIP3   OH229840   0.618   4.292  25.620
 1882TIP3    H129841   0.647   4.228  25.419
 1882TIP3    H229842   0.628   4.379  25.485
 1883TIP3   OH229843   0.706   4.089  25.026
 1883TIP3    H129844   0.754   4.136  24.813
 1883TIP3    H229845   0.616   4.083  24.909
 1884TIP3   OH229846   0.854   4.652  25.020
 1884TIP3    H129847   0.941   4.694  25.035
 1884TIP3    H229848   0.798   4.731  24.957
 1885TIP3   OH229849   1.274   4.404  26.526
 1885TIP3    H129850   1.312   4.315  26.496
 1885TIP3    H229851   1.349   4.458  26.610
 1886TIP3   OH229852   1.441   4.714  26.076
 1886TIP3    H129853   1.402   4.771  25.869
 1886TIP3    H229854   1.535   4.717  25.998
 1887TIP3   OH229855   0.455   4.409  26.214
 1887TIP3    H129856   0.405   4.328  26.289
 1887TIP3    H229857   0.515   4.373  26.007
 1888TIP3   OH229858   0.781   3.839  25.083
 1888TIP3    H129859   0.762   3.934  25.050
 1888TIP3    H229860   0.699   3.801  24.975
 1889TIP3   OH229861   0.901   4.278  26.280
 1889TIP3    H129862   0.861   4.251  26.532
 1889TIP3    H229863   0.832   4.252  26.091
 1890TIP3   OH229864   1.163   4.177  26.034
 1890TIP3    H129865   1.077   4.191  26.169
 1890TIP3    H229866   1.207   4.119  26.235
 1891TIP3   OH229867   1.333   4.049  26.538
 1891TIP3    H129868   1.324   3.951  26.526
 1891TIP3    H229869   1.320   4.068  26.823
 1892TIP3   OH229870   0.315   4.183  26.370
 1892TIP3    H129871   0.344   4.106  26.211
 1892TIP3    H229872   0.277   4.138  26.610
 1893TIP3   OH229873   0.788   3.791  25.989
 1893TIP3    H129874   0.864   3.730  26.004
 1893TIP3    H229875   0.777   3.794  25.698
 1894TIP3   OH229876   0.792   3.930  26.709
 1894TIP3    H129877   0.787   3.878  26.457
 1894TIP3    H229878   0.748   4.014  26.634
 1895TIP3   OH229879   0.108   5.079  21.465
 1895TIP3    H129880   0.202   5.100  21.417
 1895TIP3    H229881   0.103   4.995  21.312
 1896TIP3   OH229882   0.084   5.644  22.839
 1896TIP3    H129883  -0.012   5.653  22.869
 1896TIP3    H229884   0.101   5.585  23.067
 1897TIP3   OH229885   0.124   5.470  23.511
 1897TIP3    H129886   0.171   5.388  23.439
 1897TIP3    H229887   0.181   5.506  23.721
 1898TIP3   OH229888   1.825   5.525  24.309
 1898TIP3    H129889   1.892   5.528  24.516
 1898TIP3    H229890   1.867   5.568  24.084
 1899TIP3   OH229891   1.817   5.480  25.278
 1899TIP3    H129892   1.777   5.426  25.065
 1899TIP3    H229893   1.812   5.414  25.494
 1900TIP3   OH229894   1.663   5.040  26.634
 1900TIP3    H129895   1.571   5.041  26.739
 1900TIP3    H229896   1.704   5.110  26.799
 1901TIP3   OH229897   1.778   4.881  22.164
 1901TIP3    H129898   1.856   4.941  22.188
 1901TIP3    H229899   1.780   4.837  22.425
 1902TIP3   OH229900   1.820   4.707  22.803
 1902TIP3    H129901   1.739   4.661  22.899
 1902TIP3    H229902   1.872   4.707  23.046
 1903TIP3   OH229903   1.799   4.984  24.276
 1903TIP3    H129904   1.857   4.908  24.207
 1903TIP3    H229905   1.854   5.061  24.210
 1904TIP3   OH229906   1.660   5.256  24.948
 1904TIP3    H129907   1.580   5.282  25.092
 1904TIP3    H229908   1.621   5.233  24.684
 1905TIP3   OH229909   1.849   4.605  21.744
 1905TIP3    H129910   1.783   4.643  21.561
 1905TIP3    H229911   1.866   4.681  21.918
 1906TIP3   OH229912   1.660   4.421  21.294
 1906TIP3    H129913   1.670   4.497  21.117
 1906TIP3    H229914   1.748   4.414  21.420
 1907TIP3   OH229915   1.616   4.566  23.040
 1907TIP3    H129916   1.595   4.475  22.947
 1907TIP3    H229917   1.589   4.563  23.322
 1908TIP3   OH229918   0.159   4.832  24.186
 1908TIP3    H129919   0.172   4.784  23.937
 1908TIP3    H229920   0.239   4.804  24.330
 1909TIP3   OH229921   1.716   4.740  25.869
 1909TIP3    H129922   1.770   4.661  25.929
 1909TIP3    H229923   1.782   4.814  25.848
 1910TIP3   OH229924   1.824   4.492  26.010
 1910TIP3    H129925   1.730   4.462  25.971
 1910TIP3    H229926   1.874   4.407  26.031
 1911TIP3   OH229927   1.575   4.333  22.578
 1911TIP3    H129928   1.595   4.239  22.620
 1911TIP3    H229929   1.654   4.355  22.413
 1912TIP3   OH229930   1.662   4.372  24.159
 1912TIP3    H129931   1.761   4.378  24.180
 1912TIP3    H229932   1.637   4.376  24.441
 1913TIP3   OH229933   1.661   4.444  24.954
 1913TIP3    H129934   1.577   4.471  25.083
 1913TIP3    H229935   1.701   4.530  24.879
 1914TIP3   OH229936   0.123   4.259  25.848
 1914TIP3    H129937   0.198   4.281  26.025
 1914TIP3    H229938   0.117   4.162  25.872
 1915TIP3   OH229939   1.882   3.877  26.532
 1915TIP3    H129940   1.923   3.804  26.379
 1915TIP3    H229941   1.870   3.945  26.319
 1916TIP3   OH229942   1.641   3.973  22.509
 1916TIP3    H129943   1.664   3.981  22.794
 1916TIP3    H229944   1.555   3.928  22.506
 1917TIP3   OH229945   0.158   4.099  24.084
 1917TIP3    H129946   0.222   4.024  24.057
 1917TIP3    H229947   0.217   4.177  24.084
 1918TIP3   OH229948   0.107   4.430  24.117
 1918TIP3    H129949   0.155   4.414  23.871
 1918TIP3    H229950   0.090   4.525  24.114
 1919TIP3   OH229951   1.810   4.067  26.049
 1919TIP3    H129952   1.733   4.126  26.085
 1919TIP3    H229953   1.782   4.019  25.806
 1920TIP3   OH229954   0.099   4.098  22.566
 1920TIP3    H129955   0.007   4.080  22.473
 1920TIP3    H229956   0.150   4.105  22.320
 1921TIP3   OH229957   1.540   5.544  23.028
 1921TIP3    H129958   1.597   5.526  22.794
 1921TIP3    H229959   1.600   5.584  23.223
 1922TIP3   OH229960   0.067   3.874  24.936
 1922TIP3    H129961  -0.025   3.839  24.945
 1922TIP3    H229962   0.055   3.951  24.762
 1923TIP3   OH229963   0.281   5.213  26.199
 1923TIP3    H129964   0.217   5.244  26.007
 1923TIP3    H229965   0.231   5.149  26.358
 1924TIP3   OH229966   0.572   5.366  25.101
 1924TIP3    H129967   0.569   5.457  24.993
 1924TIP3    H229968   0.668   5.348  25.095
 1925TIP3   OH229969   0.976   5.504  25.854
 1925TIP3    H129970   0.987   5.472  26.130
 1925TIP3    H229971   1.068   5.525  25.788
 1926TIP3   OH229972   1.216   5.633  25.716
 1926TIP3    H129973   1.292   5.584  25.623
 1926TIP3    H229974   1.246   5.663  25.983
 1927TIP3   OH229975   1.740   3.831  25.488
 1927TIP3    H129976   1.670   3.876  25.341
 1927TIP3    H229977   1.745   3.744  25.356
 1928TIP3   OH229978   0.319   5.679  25.092
 1928TIP3    H129979   0.232   5.703  24.981
 1928TIP3    H229980   0.299   5.670  25.377
 1929TIP3   OH229981   0.545   5.629  24.699
 1929TIP3    H129982   0.454   5.625  24.816
 1929TIP3    H229983   0.529   5.708  24.537
 1930TIP3   OH229984   0.999   5.577  24.510
 1930TIP3    H129985   1.012   5.625  24.261
 1930TIP3    H229986   1.019   5.648  24.705
 1931TIP3   OH229987   1.219   5.449  24.951
 1931TIP3    H129988   1.150   5.491  24.786
 1931TIP3    H229989   1.293   5.508  24.879
 1932TIP3   OH229990   1.508   5.609  24.801
 1932TIP3    H129991   1.501   5.696  24.669
 1932TIP3    H229992   1.519   5.553  24.561
 1933TIP3   OH229993   0.317   5.570  24.138
 1933TIP3    H129994   0.289   5.498  24.312
 1933TIP3    H229995   0.381   5.523  23.961
 1934TIP3   OH229996   0.458   5.404  23.691
 1934TIP3    H129997   0.424   5.316  23.748
 1934TIP3    H229998   0.544   5.403  23.826
 1935TIP3   OH229999   0.701   5.390  24.087
 1935TIP3    H130000   0.739   5.302  24.054
 1935TIP3    H230001   0.728   5.410  24.360
 1936TIP3   OH230002   1.110   3.964  23.799
 1936TIP3    H130003   1.024   3.984  23.916
 1936TIP3    H230004   1.082   3.934  23.535
 1937TIP3   OH230005   1.591   3.794  23.733
 1937TIP3    H130006   1.652   3.852  23.574
 1937TIP3    H230007   1.502   3.816  23.622
 1938TIP3   OH230008   1.754   3.918  23.241
 1938TIP3    H130009   1.819   3.857  23.112
 1938TIP3    H230010   1.814   3.995  23.292
 1939TIP3   OH230011   0.246   3.854  21.705
 1939TIP3    H130012   0.178   3.884  21.525
 1939TIP3    H230013   0.195   3.844  21.951
 1940TIP3   OH230014   0.759   3.772  23.103
 1940TIP3    H130015   0.831   3.806  22.938
 1940TIP3    H230016   0.696   3.846  23.094
 1941TIP3   OH230017   1.346   3.851  23.352
 1941TIP3    H130018   1.288   3.884  23.145
 1941TIP3    H230019   1.289   3.778  23.454
 1942TIP3   OH230020   1.408   3.837  22.107
 1942TIP3    H130021   1.344   3.897  22.239
 1942TIP3    H230022   1.376   3.749  22.197
 1943TIP3   OH230023   0.150   5.438  22.182
 1943TIP3    H130024   0.085   5.498  22.062
 1943TIP3    H230025   0.225   5.500  22.218
 1944TIP3   OH230026   1.714   5.470  22.461
 1944TIP3    H130027   1.702   5.394  22.278
 1944TIP3    H230028   1.693   5.545  22.278
 1945TIP3   OH230029   0.253   3.910  25.959
 1945TIP3    H130030   0.205   3.823  25.971
 1945TIP3    H230031   0.340   3.884  26.070
 1946TIP3   OH230032   0.489   3.859  26.505
 1946TIP3    H130033   0.581   3.840  26.430
 1946TIP3    H230034   0.465   3.773  26.625
 1947TIP3   OH230035   1.322   3.781  26.466
 1947TIP3    H130036   1.330   3.721  26.697
 1947TIP3    H230037   1.416   3.781  26.373
 1948TIP3   OH230038   1.662   5.399  25.986
 1948TIP3    H130039   1.603   5.396  25.749
 1948TIP3    H230040   1.627   5.478  26.115
 1949TIP3   OH230041   3.102   4.761  22.959
 1949TIP3    H130042   3.097   4.856  23.013
 1949TIP3    H230043   3.031   4.751  22.758
 1950TIP3   OH230044   2.993   4.672  24.051
 1950TIP3    H130045   2.990   4.627  24.315
 1950TIP3    H230046   2.928   4.624  23.889
 1951TIP3   OH230047   2.192   4.652  24.522
 1951TIP3    H130048   2.199   4.585  24.735
 1951TIP3    H230049   2.275   4.700  24.552
 1952TIP3   OH230050   3.327   4.951  23.646
 1952TIP3    H130051   3.313   4.897  23.883
 1952TIP3    H230052   3.338   5.038  23.775
 1953TIP3   OH230053   2.300   5.130  23.988
 1953TIP3    H130054   2.262   5.043  23.916
 1953TIP3    H230055   2.393   5.111  23.925
 1954TIP3   OH230056   1.969   4.461  22.791
 1954TIP3    H130057   1.945   4.552  22.734
 1954TIP3    H230058   1.898   4.414  22.647
 1955TIP3   OH230059   2.029   4.692  23.469
 1955TIP3    H130060   2.076   4.608  23.544
 1955TIP3    H230061   2.088   4.732  23.274
 1956TIP3   OH230062   3.048   5.495  23.589
 1956TIP3    H130063   3.136   5.489  23.466
 1956TIP3    H230064   3.043   5.416  23.757
 1957TIP3   OH230065   2.787   4.960  24.369
 1957TIP3    H130066   2.806   4.920  24.111
 1957TIP3    H230067   2.877   4.978  24.471
 1958TIP3   OH230068   3.669   4.066  24.378
 1958TIP3    H130069   3.681   4.139  24.570
 1958TIP3    H230070   3.735   4.089  24.174
 1959TIP3   OH230071   3.168   4.395  24.363
 1959TIP3    H130072   3.200   4.303  24.393
 1959TIP3    H230073   3.087   4.379  24.210
 1960TIP3   OH230074   2.453   4.163  23.379
 1960TIP3    H130075   2.463   4.250  23.247
 1960TIP3    H230076   2.404   4.115  23.169
 1961TIP3   OH230077   2.114   4.445  23.694
 1961TIP3    H130078   2.174   4.389  23.853
 1961TIP3    H230079   2.128   4.405  23.430
 1962TIP3   OH230080   2.619   4.583  23.526
 1962TIP3    H130081   2.697   4.526  23.493
 1962TIP3    H230082   2.549   4.520  23.433
 1963TIP3   OH230083   3.680   4.219  25.047
 1963TIP3    H130084   3.648   4.306  24.942
 1963TIP3    H230085   3.703   4.244  25.317
 1964TIP3   OH230086   2.349   4.079  24.699
 1964TIP3    H130087   2.313   4.128  24.468
 1964TIP3    H230088   2.288   4.108  24.915
 1965TIP3   OH230089   3.053   5.044  22.788
 1965TIP3    H130090   3.007   5.025  22.539
 1965TIP3    H230091   3.028   5.137  22.842
 1966TIP3   OH230092   2.558   4.845  24.621
 1966TIP3    H130093   2.500   4.913  24.747
 1966TIP3    H230094   2.628   4.902  24.504
 1967TIP3   OH230095   2.308   4.274  24.042
 1967TIP3    H130096   2.375   4.331  24.183
 1967TIP3    H230097   2.359   4.246  23.799
 1968TIP3   OH230098   2.440   5.076  24.942
 1968TIP3    H130099   2.423   5.153  24.777
 1968TIP3    H230100   2.355   5.069  25.092
 1969TIP3   OH230101   2.018   5.035  22.194
 1969TIP3    H130102   2.075   5.092  22.032
 1969TIP3    H230103   2.046   5.065  22.461
 1970TIP3   OH230104   3.403   5.183  24.255
 1970TIP3    H130105   3.308   5.198  24.318
 1970TIP3    H230106   3.417   5.266  24.105
 1971TIP3   OH230107   3.453   3.953  24.825
 1971TIP3    H130108   3.369   3.992  24.741
 1971TIP3    H230109   3.514   3.981  24.609
 1972TIP3   OH230110   2.714   3.837  23.880
 1972TIP3    H130111   2.681   3.746  23.910
 1972TIP3    H230112   2.634   3.887  23.979
 1973TIP3   OH230113   3.277   5.390  23.211
 1973TIP3    H130114   3.274   5.295  23.139
 1973TIP3    H230115   3.275   5.428  22.944
 1974TIP3   OH230116   3.364   5.136  22.821
 1974TIP3    H130117   3.320   5.101  22.584
 1974TIP3    H230118   3.343   5.069  23.022
 1975TIP3   OH230119   3.498   5.020  25.401
 1975TIP3    H130120   3.521   4.948  25.209
 1975TIP3    H230121   3.509   5.099  25.224
 1976TIP3   OH230122   2.936   4.687  22.323
 1976TIP3    H130123   2.889   4.764  22.200
 1976TIP3    H230124   3.011   4.676  22.140
 1977TIP3   OH230125   3.708   4.658  24.732
 1977TIP3    H130126   3.652   4.736  24.777
 1977TIP3    H230127   3.762   4.692  24.510
 1978TIP3   OH230128   3.342   4.727  22.614
 1978TIP3    H130129   3.248   4.727  22.713
 1978TIP3    H230130   3.389   4.738  22.863
 1979TIP3   OH230131   3.311   4.528  25.323
 1979TIP3    H130132   3.332   4.616  25.425
 1979TIP3    H230133   3.238   4.551  25.137
 1980TIP3   OH230134   2.463   4.760  23.085
 1980TIP3    H130135   2.437   4.720  22.824
 1980TIP3    H230136   2.531   4.698  23.184
 1981TIP3   OH230137   2.602   5.115  23.928
 1981TIP3    H130138   2.619   5.100  23.643
 1981TIP3    H230139   2.682   5.078  24.054
 1982TIP3   OH230140   2.479   4.644  24.204
 1982TIP3    H130141   2.524   4.642  23.940
 1982TIP3    H230142   2.527   4.716  24.345
 1983TIP3   OH230143   3.154   5.231  24.483
 1983TIP3    H130144   3.113   5.304  24.633
 1983TIP3    H230145   3.111   5.154  24.609
 1984TIP3   OH230146   2.610   5.114  25.548
 1984TIP3    H130147   2.535   5.156  25.698
 1984TIP3    H230148   2.564   5.097  25.293
 1985TIP3   OH230149   3.176   4.666  21.882
 1985TIP3    H130150   3.257   4.694  22.017
 1985TIP3    H230151   3.180   4.718  21.636
 1986TIP3   OH230152   2.296   4.707  25.377
 1986TIP3    H130153   2.299   4.800  25.449
 1986TIP3    H230154   2.229   4.677  25.566
 1987TIP3   OH230155   2.997   5.311  22.992
 1987TIP3    H130156   3.007   5.389  23.166
 1987TIP3    H230157   2.931   5.342  22.800
 1988TIP3   OH230158   2.423   5.267  25.890
 1988TIP3    H130159   2.413   5.308  25.626
 1988TIP3    H230160   2.328   5.255  25.956
 1989TIP3   OH230161   2.324   4.666  22.452
 1989TIP3    H130162   2.303   4.754  22.332
 1989TIP3    H230163   2.287   4.607  22.251
 1990TIP3   OH230164   3.656   5.262  21.345
 1990TIP3    H130165   3.635   5.286  21.624
 1990TIP3    H230166   3.731   5.202  21.366
 1991TIP3   OH230167   1.989   4.945  25.092
 1991TIP3    H130168   1.950   4.939  24.825
 1991TIP3    H230169   2.029   4.856  25.119
 1992TIP3   OH230170   1.983   5.203  24.141
 1992TIP3    H130171   2.078   5.197  24.108
 1992TIP3    H230172   1.977   5.279  24.321
 1993TIP3   OH230173   3.767   5.274  25.935
 1993TIP3    H130174   3.754   5.181  25.872
 1993TIP3    H230175   3.675   5.299  26.010
 1994TIP3   OH230176   2.857   5.212  25.533
 1994TIP3    H130177   2.868   5.285  25.725
 1994TIP3    H230178   2.762   5.185  25.560
 1995TIP3   OH230179   2.261   5.483  23.034
 1995TIP3    H130180   2.300   5.455  23.289
 1995TIP3    H230181   2.181   5.426  23.025
 1996TIP3   OH230182   3.457   4.405  25.962
 1996TIP3    H130183   3.409   4.444  25.734
 1996TIP3    H230184   3.468   4.312  25.866
 1997TIP3   OH230185   2.211   5.064  25.362
 1997TIP3    H130186   2.209   5.033  25.641
 1997TIP3    H230187   2.122   5.036  25.266
 1998TIP3   OH230188   2.482   3.935  24.165
 1998TIP3    H130189   2.392   3.924  24.051
 1998TIP3    H230190   2.455   3.980  24.414
 1999TIP3   OH230191   2.965   3.882  25.122
 1999TIP3    H130192   2.996   3.837  25.368
 1999TIP3    H230193   2.866   3.876  25.146
 2000TIP3   OH230194   3.235   4.274  25.470
 2000TIP3    H130195   3.182   4.260  25.719
 2000TIP3    H230196   3.259   4.369  25.473
 2001TIP3   OH230197   2.918   4.119  21.438
 2001TIP3    H130198   2.860   4.076  21.630
 2001TIP3    H230199   2.856   4.159  21.246
 2002TIP3   OH230200   2.486   4.398  24.522
 2002TIP3    H130201   2.408   4.403  24.699
 2002TIP3    H230202   2.485   4.492  24.423
 2003TIP3   OH230203   2.467   4.406  23.067
 2003TIP3    H130204   2.371   4.406  23.001
 2003TIP3    H230205   2.506   4.380  22.806
 2004TIP3   OH230206   2.913   4.506  26.055
 2004TIP3    H130207   2.875   4.421  26.142
 2004TIP3    H230208   2.990   4.510  26.232
 2005TIP3   OH230209   2.251   4.406  24.912
 2005TIP3    H130210   2.268   4.444  25.173
 2005TIP3    H230211   2.208   4.322  24.990
 2006TIP3   OH230212   1.907   4.135  23.274
 2006TIP3    H130213   1.972   4.141  23.493
 2006TIP3    H230214   1.955   4.175  23.052
 2007TIP3   OH230215   3.042   4.584  24.798
 2007TIP3    H130216   3.099   4.518  24.657
 2007TIP3    H230217   2.991   4.527  24.984
 2008TIP3   OH230218   2.731   4.184  23.376
 2008TIP3    H130219   2.636   4.167  23.430
 2008TIP3    H230220   2.779   4.114  23.520
 2009TIP3   OH230221   2.197   4.320  22.965
 2009TIP3    H130222   2.137   4.372  22.791
 2009TIP3    H230223   2.235   4.254  22.779
 2010TIP3   OH230224   2.532   4.350  22.299
 2010TIP3    H130225   2.627   4.350  22.359
 2010TIP3    H230226   2.524   4.417  22.086
 2011TIP3   OH230227   3.170   4.110  24.291
 2011TIP3    H130228   3.107   4.116  24.513
 2011TIP3    H230229   3.133   4.040  24.123
 2012TIP3   OH230230   2.450   4.480  21.516
 2012TIP3    H130231   2.375   4.425  21.444
 2012TIP3    H230232   2.519   4.460  21.324
 2013TIP3   OH230233   3.458   5.690  26.166
 2013TIP3    H130234   3.486   5.731  25.917
 2013TIP3    H230235   3.541   5.695  26.319
 2014TIP3   OH230236   2.217   4.931  26.082
 2014TIP3    H130237   2.302   4.933  26.220
 2014TIP3    H230238   2.157   4.889  26.277
 2015TIP3   OH230239   2.895   4.382  23.913
 2015TIP3    H130240   2.849   4.304  23.805
 2015TIP3    H230241   2.836   4.399  24.138
 2016TIP3   OH230242   2.309   4.063  22.737
 2016TIP3    H130243   2.251   3.999  22.881
 2016TIP3    H230244   2.361   4.001  22.578
 2017TIP3   OH230245   2.720   4.268  24.585
 2017TIP3    H130246   2.640   4.326  24.585
 2017TIP3    H230247   2.781   4.316  24.753
 2018TIP3   OH230248   2.800   4.906  22.059
 2018TIP3    H130249   2.724   4.883  21.900
 2018TIP3    H230250   2.759   4.955  22.281
 2019TIP3   OH230251   3.517   4.858  24.795
 2019TIP3    H130252   3.568   4.904  24.585
 2019TIP3    H230253   3.429   4.857  24.672
 2020TIP3   OH230254   2.894   4.949  25.443
 2020TIP3    H130255   2.875   4.915  25.704
 2020TIP3    H230256   2.885   5.046  25.485
 2021TIP3   OH230257   2.288   4.862  23.736
 2021TIP3    H130258   2.326   4.837  23.475
 2021TIP3    H230259   2.324   4.794  23.916
 2022TIP3   OH230260   2.006   4.686  25.374
 2022TIP3    H130261   1.982   4.641  25.626
 2022TIP3    H230262   1.945   4.646  25.179
 2023TIP3   OH230263   2.680   4.654  25.989
 2023TIP3    H130264   2.631   4.590  25.824
 2023TIP3    H230265   2.769   4.611  26.001
 2024TIP3   OH230266   3.182   5.166  25.572
 2024TIP3    H130267   3.100   5.169  25.422
 2024TIP3    H230268   3.158   5.219  25.809
 2025TIP3   OH230269   3.740   4.979  25.785
 2025TIP3    H130270   3.649   4.998  25.683
 2025TIP3    H230271   3.792   4.977  25.533
 2026TIP3   OH230272   3.545   5.269  22.131
 2026TIP3    H130273   3.529   5.225  22.389
 2026TIP3    H230274   3.471   5.235  21.978
 2027TIP3   OH230275   3.269   4.764  24.243
 2027TIP3    H130276   3.176   4.745  24.180
 2027TIP3    H230277   3.312   4.686  24.129
 2028TIP3   OH230278   2.513   5.208  23.031
 2028TIP3    H130279   2.549   5.296  22.965
 2028TIP3    H230280   2.432   5.210  22.872
 2029TIP3   OH230281   2.137   4.692  21.522
 2029TIP3    H130282   2.117   4.767  21.339
 2029TIP3    H230283   2.052   4.647  21.501
 2030TIP3   OH230284   2.682   4.990  22.845
 2030TIP3    H130285   2.618   5.064  22.869
 2030TIP3    H230286   2.644   4.919  23.001
 2031TIP3   OH230287   2.713   5.368  24.942
 2031TIP3    H130288   2.781   5.430  24.846
 2031TIP3    H230289   2.763   5.321  25.152
 2032TIP3   OH230290   2.563   5.475  22.785
 2032TIP3    H130291   2.468   5.471  22.842
 2032TIP3    H230292   2.585   5.563  22.890
 2033TIP3   OH230293   3.028   4.976  24.732
 2033TIP3    H130294   2.983   4.950  24.984
 2033TIP3    H230295   3.088   4.901  24.699
 2034TIP3   OH230296   3.363   5.424  25.398
 2034TIP3    H130297   3.274   5.388  25.353
 2034TIP3    H230298   3.369   5.494  25.191
 2035TIP3   OH230299   2.181   4.157  25.296
 2035TIP3    H130300   2.116   4.204  25.461
 2035TIP3    H230301   2.173   4.067  25.407
 2036TIP3   OH230302   3.398   4.944  22.164
 2036TIP3    H130303   3.369   4.862  22.290
 2036TIP3    H230304   3.495   4.932  22.146
 2037TIP3   OH230305   2.117   5.337  24.753
 2037TIP3    H130306   2.179   5.263  24.774
 2037TIP3    H230307   2.126   5.375  25.017
 2038TIP3   OH230308   2.571   5.173  21.789
 2038TIP3    H130309   2.669   5.173  21.780
 2038TIP3    H230310   2.554   5.267  21.699
 2039TIP3   OH230311   2.279   4.896  21.978
 2039TIP3    H130312   2.185   4.891  21.912
 2039TIP3    H230313   2.304   4.977  21.831
 2040TIP3   OH230314   3.026   4.162  24.963
 2040TIP3    H130315   3.099   4.189  25.140
 2040TIP3    H230316   3.006   4.072  25.065
 2041TIP3   OH230317   2.839   5.342  21.999
 2041TIP3    H130318   2.764   5.398  21.927
 2041TIP3    H230319   2.891   5.341  21.756
 2042TIP3   OH230320   2.773   4.279  22.557
 2042TIP3    H130321   2.864   4.306  22.521
 2042TIP3    H230322   2.771   4.233  22.818
 2043TIP3   OH230323   2.906   4.403  25.260
 2043TIP3    H130324   2.921   4.428  25.542
 2043TIP3    H230325   2.944   4.313  25.239
 2044TIP3   OH230326   2.893   3.991  22.716
 2044TIP3    H130327   2.850   4.007  22.974
 2044TIP3    H230328   2.986   4.007  22.782
 2045TIP3   OH230329   2.465   4.098  21.867
 2045TIP3    H130330   2.454   4.180  22.017
 2045TIP3    H230331   2.560   4.080  21.921
 2046TIP3   OH230332   3.476   4.161  25.563
 2046TIP3    H130333   3.383   4.181  25.488
 2046TIP3    H230334   3.522   4.160  25.305
 2047TIP3   OH230335   2.293   5.143  21.558
 2047TIP3    H130336   2.376   5.175  21.687
 2047TIP3    H230337   2.327   5.118  21.297
 2048TIP3   OH230338   3.448   5.468  24.216
 2048TIP3    H130339   3.450   5.532  23.991
 2048TIP3    H230340   3.544   5.459  24.264
 2049TIP3   OH230341   2.215   3.884  23.985
 2049TIP3    H130342   2.215   3.874  23.694
 2049TIP3    H230343   2.193   3.791  24.066
 2050TIP3   OH230344   2.088   5.284  22.641
 2050TIP3    H130345   1.999   5.320  22.662
 2050TIP3    H230346   2.119   5.325  22.392
 2051TIP3   OH230347   2.014   5.540  26.142
 2051TIP3    H130348   2.084   5.526  26.349
 2051TIP3    H230349   1.993   5.445  26.094
 2052TIP3   OH230350   2.502   5.420  26.565
 2052TIP3    H130351   2.589   5.386  26.643
 2052TIP3    H230352   2.492   5.382  26.295
 2053TIP3   OH230353   3.136   5.290  26.265
 2053TIP3    H130354   3.099   5.203  26.352
 2053TIP3    H230355   3.221   5.291  26.415
 2054TIP3   OH230356   3.374   5.369  21.186
 2054TIP3    H130357   3.313   5.293  21.198
 2054TIP3    H230358   3.457   5.331  21.282
 2055TIP3   OH230359   1.979   4.920  26.505
 2055TIP3    H130360   1.940   4.831  26.484
 2055TIP3    H230361   1.962   4.953  26.232
 2056TIP3   OH230362   2.662   4.920  26.115
 2056TIP3    H130363   2.652   4.966  25.857
 2056TIP3    H230364   2.657   4.824  26.043
 2057TIP3   OH230365   3.247   4.892  25.518
 2057TIP3    H130366   3.338   4.929  25.545
 2057TIP3    H230367   3.200   4.977  25.527
 2058TIP3   OH230368   2.131   4.639  26.319
 2058TIP3    H130369   2.187   4.561  26.304
 2058TIP3    H230370   2.154   4.675  26.583
 2059TIP3   OH230371   2.482   4.527  25.350
 2059TIP3    H130372   2.420   4.604  25.356
 2059TIP3    H230373   2.557   4.566  25.203
 2060TIP3   OH230374   3.035   4.815  26.451
 2060TIP3    H130375   3.090   4.760  26.280
 2060TIP3    H230376   3.007   4.751  26.658
 2061TIP3   OH230377   3.605   4.805  21.057
 2061TIP3    H130378   3.551   4.757  20.862
 2061TIP3    H230379   3.538   4.827  21.255
 2062TIP3   OH230380   2.552   4.282  25.632
 2062TIP3    H130381   2.563   4.212  25.428
 2062TIP3    H230382   2.524   4.361  25.476
 2063TIP3   OH230383   2.589   4.085  25.047
 2063TIP3    H130384   2.634   4.136  24.831
 2063TIP3    H230385   2.497   4.079  24.948
 2064TIP3   OH230386   2.699   4.663  25.020
 2064TIP3    H130387   2.790   4.695  25.029
 2064TIP3    H230388   2.653   4.736  24.882
 2065TIP3   OH230389   3.163   4.406  26.559
 2065TIP3    H130390   3.193   4.315  26.496
 2065TIP3    H230391   3.244   4.454  26.625
 2066TIP3   OH230392   3.329   4.726  26.097
 2066TIP3    H130393   3.286   4.777  25.881
 2066TIP3    H230394   3.423   4.727  26.019
 2067TIP3   OH230395   2.404   4.365  26.274
 2067TIP3    H130396   2.320   4.319  26.214
 2067TIP3    H230397   2.461   4.328  26.061
 2068TIP3   OH230398   2.694   3.844  25.050
 2068TIP3    H130399   2.659   3.936  25.080
 2068TIP3    H230400   2.615   3.802  24.942
 2069TIP3   OH230401   2.775   4.274  26.289
 2069TIP3    H130402   2.717   4.251  26.517
 2069TIP3    H230403   2.713   4.260  26.070
 2070TIP3   OH230404   3.055   4.197  26.025
 2070TIP3    H130405   2.962   4.207  26.103
 2070TIP3    H230406   3.087   4.137  26.241
 2071TIP3   OH230407   3.200   4.050  26.517
 2071TIP3    H130408   3.206   3.953  26.511
 2071TIP3    H230409   3.194   4.068  26.805
 2072TIP3   OH230410   2.191   4.182  26.316
 2072TIP3    H130411   2.190   4.104  26.145
 2072TIP3    H230412   2.168   4.145  26.583
 2073TIP3   OH230413   2.656   3.808  25.908
 2073TIP3    H130414   2.728   3.748  25.989
 2073TIP3    H230415   2.667   3.804  25.617
 2074TIP3   OH230416   2.669   3.930  26.724
 2074TIP3    H130417   2.661   3.905  26.442
 2074TIP3    H230418   2.641   4.024  26.724
 2075TIP3   OH230419   1.893   5.625  22.893
 2075TIP3    H130420   1.823   5.566  22.785
 2075TIP3    H230421   1.930   5.569  23.109
 2076TIP3   OH230422   1.987   5.457  23.460
 2076TIP3    H130423   1.928   5.382  23.508
 2076TIP3    H230424   2.052   5.455  23.679
 2077TIP3   OH230425   3.729   5.529  24.312
 2077TIP3    H130426   3.749   5.523  24.597
 2077TIP3    H230427   3.798   5.592  24.231
 2078TIP3   OH230428   3.676   5.473  25.167
 2078TIP3    H130429   3.642   5.393  25.026
 2078TIP3    H230430   3.698   5.434  25.425
 2079TIP3   OH230431   3.559   5.046  26.634
 2079TIP3    H130432   3.464   5.050  26.700
 2079TIP3    H230433   3.591   5.126  26.772
 2080TIP3   OH230434   3.689   4.878  22.200
 2080TIP3    H130435   3.782   4.909  22.218
 2080TIP3    H230436   3.680   4.824  22.443
 2081TIP3   OH230437   3.697   4.700  22.824
 2081TIP3    H130438   3.633   4.659  23.004
 2081TIP3    H230439   3.772   4.718  23.007
 2082TIP3   OH230440   3.678   4.960  24.252
 2082TIP3    H130441   3.755   4.904  24.183
 2082TIP3    H230442   3.704   5.049  24.159
 2083TIP3   OH230443   3.541   5.250  24.945
 2083TIP3    H130444   3.469   5.295  25.089
 2083TIP3    H230445   3.497   5.227  24.687
 2084TIP3   OH230446   3.754   4.679  21.639
 2084TIP3    H130447   3.709   4.713  21.402
 2084TIP3    H230448   3.739   4.752  21.828
 2085TIP3   OH230449   1.987   4.779  24.225
 2085TIP3    H130450   1.989   4.754  23.940
 2085TIP3    H230451   2.074   4.744  24.312
 2086TIP3   OH230452   3.599   4.742  25.878
 2086TIP3    H130453   3.647   4.656  25.920
 2086TIP3    H230454   3.670   4.808  25.836
 2087TIP3   OH230455   3.702   4.494  25.992
 2087TIP3    H130456   3.608   4.467  25.959
 2087TIP3    H230457   3.750   4.409  26.034
 2088TIP3   OH230458   3.544   4.388  24.144
 2088TIP3    H130459   3.641   4.399  24.150
 2088TIP3    H230460   3.524   4.369  24.423
 2089TIP3   OH230461   3.550   4.443  24.969
 2089TIP3    H130462   3.461   4.476  25.029
 2089TIP3    H230463   3.595   4.526  24.876
 2090TIP3   OH230464   1.972   4.274  25.971
 2090TIP3    H130465   2.056   4.270  26.121
 2090TIP3    H230466   1.927   4.194  26.067
 2091TIP3   OH230467   3.769   3.874  26.559
 2091TIP3    H130468   3.803   3.795  26.424
 2091TIP3    H230469   3.758   3.937  26.331
 2092TIP3   OH230470   2.065   4.119  24.072
 2092TIP3    H130471   2.103   4.029  24.069
 2092TIP3    H230472   2.143   4.175  24.033
 2093TIP3   OH230473   1.926   4.416  24.258
 2093TIP3    H130474   1.987   4.396  24.036
 2093TIP3    H230475   1.969   4.498  24.354
 2094TIP3   OH230476   3.699   4.067  26.019
 2094TIP3    H130477   3.618   4.117  26.088
 2094TIP3    H230478   3.666   4.018  25.785
 2095TIP3   OH230479   1.956   4.054  22.422
 2095TIP3    H130480   1.867   4.022  22.482
 2095TIP3    H230481   1.948   4.095  22.161
 2096TIP3   OH230482   1.940   3.905  24.930
 2096TIP3    H130483   1.884   3.867  25.140
 2096TIP3    H230484   1.877   3.956  24.768
 2097TIP3   OH230485   2.155   5.232  26.103
 2097TIP3    H130486   2.067   5.239  25.980
 2097TIP3    H230487   2.140   5.170  26.319
 2098TIP3   OH230488   2.452   5.381  25.149
 2098TIP3    H130489   2.458   5.466  25.008
 2098TIP3    H230490   2.545   5.352  25.128
 2099TIP3   OH230491   2.858   5.480  25.869
 2099TIP3    H130492   2.869   5.453  26.151
 2099TIP3    H230493   2.950   5.510  25.812
 2100TIP3   OH230494   3.092   5.602  25.755
 2100TIP3    H130495   3.166   5.583  25.581
 2100TIP3    H230496   3.134   5.649  25.980
 2101TIP3   OH230497   3.607   3.850  25.443
 2101TIP3    H130498   3.542   3.896  25.272
 2101TIP3    H230499   3.612   3.764  25.302
 2102TIP3   OH230500   2.192   5.672  25.059
 2102TIP3    H130501   2.123   5.736  24.984
 2102TIP3    H230502   2.192   5.676  25.350
 2103TIP3   OH230503   2.424   5.611  24.708
 2103TIP3    H130504   2.333   5.636  24.795
 2103TIP3    H230505   2.444   5.676  24.501
 2104TIP3   OH230506   2.874   5.565  24.591
 2104TIP3    H130507   2.803   5.621  24.489
 2104TIP3    H230508   2.917   5.628  24.780
 2105TIP3   OH230509   3.108   5.456  24.912
 2105TIP3    H130510   3.043   5.499  24.738
 2105TIP3    H230511   3.189   5.503  24.846
 2106TIP3   OH230512   3.372   5.615  24.855
 2106TIP3    H130513   3.371   5.705  24.744
 2106TIP3    H230514   3.397   5.560  24.621
 2107TIP3   OH230515   2.145   5.496  24.096
 2107TIP3    H130516   2.133   5.438  24.330
 2107TIP3    H230517   2.237   5.472  24.012
 2108TIP3   OH230518   2.365   5.404  23.742
 2108TIP3    H130519   2.352   5.311  23.823
 2108TIP3    H230520   2.454   5.418  23.862
 2109TIP3   OH230521   2.593   5.396  24.141
 2109TIP3    H130522   2.619   5.304  24.075
 2109TIP3    H230523   2.623   5.403  24.414
 2110TIP3   OH230524   2.924   3.996  23.604
 2110TIP3    H130525   2.865   3.940  23.766
 2110TIP3    H230526   3.009   3.951  23.634
 2111TIP3   OH230527   3.481   3.785  23.667
 2111TIP3    H130528   3.535   3.851  23.517
 2111TIP3    H230529   3.395   3.794  23.535
 2112TIP3   OH230530   2.199   3.856  23.106
 2112TIP3    H130531   2.108   3.853  23.004
 2112TIP3    H230532   2.232   3.768  23.022
 2113TIP3   OH230533   2.032   3.826  21.774
 2113TIP3    H130534   2.075   3.882  21.570
 2113TIP3    H230535   2.038   3.884  22.008
 2114TIP3   OH230536   2.627   3.807  23.022
 2114TIP3    H130537   2.713   3.786  22.899
 2114TIP3    H230538   2.652   3.819  23.301
 2115TIP3   OH230539   3.185   3.874  23.466
 2115TIP3    H130540   3.210   3.873  23.181
 2115TIP3    H230541   3.135   3.790  23.493
 2116TIP3   OH230542   2.023   5.439  21.969
 2116TIP3    H130543   2.017   5.491  21.726
 2116TIP3    H230544   2.044   5.510  22.155
 2117TIP3   OH230545   2.726   4.067  22.038
 2117TIP3    H130546   2.762   4.013  22.257
 2117TIP3    H230547   2.751   4.156  22.131
 2118TIP3   OH230548   3.591   5.499  22.527
 2118TIP3    H130549   3.577   5.426  22.338
 2118TIP3    H230550   3.569   5.575  22.350
 2119TIP3   OH230551   2.159   3.916  25.896
 2119TIP3    H130552   2.107   3.834  25.923
 2119TIP3    H230553   2.222   3.905  26.121
 2120TIP3   OH230554   2.351   3.848  26.490
 2120TIP3    H130555   2.446   3.841  26.430
 2120TIP3    H230556   2.337   3.757  26.583
 2121TIP3   OH230557   3.206   3.777  26.475
 2121TIP3    H130558   3.221   3.720  26.712
 2121TIP3    H230559   3.297   3.781  26.364
 2122TIP3   OH230560   3.535   5.394  25.980
 2122TIP3    H130561   3.478   5.385  25.746
 2122TIP3    H230562   3.497   5.475  26.094
 2123TIP3   OH230563   4.077   4.665  24.501
 2123TIP3    H130564   4.070   4.583  24.663
 2123TIP3    H230565   4.146   4.712  24.651
 2124TIP3   OH230566   5.205   4.986  23.634
 2124TIP3    H130567   5.209   4.919  23.844
 2124TIP3    H230568   5.252   5.057  23.766
 2125TIP3   OH230569   4.202   5.128  24.018
 2125TIP3    H130570   4.151   5.048  23.940
 2125TIP3    H230571   4.290   5.090  23.988
 2126TIP3   OH230572   3.865   4.432  22.635
 2126TIP3    H130573   3.819   4.517  22.650
 2126TIP3    H230574   3.794   4.367  22.644
 2127TIP3   OH230575   3.900   4.702  23.388
 2127TIP3    H130576   3.949   4.621  23.469
 2127TIP3    H230577   3.972   4.762  23.319
 2128TIP3   OH230578   4.947   5.529  23.697
 2128TIP3    H130579   4.999   5.468  23.529
 2128TIP3    H230580   4.986   5.615  23.613
 2129TIP3   OH230581   5.545   4.091  24.177
 2129TIP3    H130582   5.554   4.131  24.438
 2129TIP3    H230583   5.634   4.109  24.069
 2130TIP3   OH230584   5.061   4.399  24.300
 2130TIP3    H130585   5.064   4.300  24.297
 2130TIP3    H230586   4.970   4.412  24.210
 2131TIP3   OH230587   4.334   4.175  23.367
 2131TIP3    H130588   4.335   4.262  23.229
 2131TIP3    H230589   4.283   4.122  23.172
 2132TIP3   OH230590   5.092   4.220  23.076
 2132TIP3    H130591   5.149   4.163  23.229
 2132TIP3    H230592   5.150   4.284  22.947
 2133TIP3   OH230593   4.018   4.466  23.736
 2133TIP3    H130594   4.074   4.410  23.910
 2133TIP3    H230595   4.029   4.421  23.475
 2134TIP3   OH230596   4.491   4.604  23.550
 2134TIP3    H130597   4.577   4.562  23.595
 2134TIP3    H230598   4.446   4.537  23.382
 2135TIP3   OH230599   5.572   4.218  24.993
 2135TIP3    H130600   5.531   4.306  24.927
 2135TIP3    H230601   5.595   4.236  25.269
 2136TIP3   OH230602   4.228   4.087  24.687
 2136TIP3    H130603   4.186   4.136  24.465
 2136TIP3    H230604   4.167   4.109  24.909
 2137TIP3   OH230605   4.449   4.844  24.714
 2137TIP3    H130606   4.369   4.882  24.840
 2137TIP3    H230607   4.505   4.923  24.711
 2138TIP3   OH230608   4.197   4.277  24.054
 2138TIP3    H130609   4.259   4.337  24.195
 2138TIP3    H230610   4.250   4.252  23.820
 2139TIP3   OH230611   4.322   5.073  24.957
 2139TIP3    H130612   4.304   5.152  24.801
 2139TIP3    H230613   4.237   5.066  25.107
 2140TIP3   OH230614   3.933   5.004  22.161
 2140TIP3    H130615   3.882   5.065  21.996
 2140TIP3    H230616   3.960   5.065  22.374
 2141TIP3   OH230617   5.283   5.187  24.249
 2141TIP3    H130618   5.187   5.189  24.291
 2141TIP3    H230619   5.295   5.271  24.108
 2142TIP3   OH230620   5.281   4.032  24.561
 2142TIP3    H130621   5.216   4.101  24.510
 2142TIP3    H230622   5.349   4.050  24.357
 2143TIP3   OH230623   4.592   3.830  23.829
 2143TIP3    H130624   4.571   3.737  23.880
 2143TIP3    H230625   4.510   3.873  23.934
 2144TIP3   OH230626   5.122   5.360  23.403
 2144TIP3    H130627   5.115   5.289  23.208
 2144TIP3    H230628   5.205   5.405  23.319
 2145TIP3   OH230629   5.255   5.123  22.764
 2145TIP3    H130630   5.257   5.054  22.557
 2145TIP3    H230631   5.224   5.071  22.992
 2146TIP3   OH230632   5.376   5.011  25.374
 2146TIP3    H130633   5.395   4.935  25.197
 2146TIP3    H230634   5.398   5.086  25.197
 2147TIP3   OH230635   4.874   4.704  22.233
 2147TIP3    H130636   4.789   4.751  22.191
 2147TIP3    H230637   4.933   4.775  22.146
 2148TIP3   OH230638   4.802   4.496  21.375
 2148TIP3    H130639   4.850   4.570  21.495
 2148TIP3    H230640   4.869   4.428  21.351
 2149TIP3   OH230641   5.594   4.652  24.783
 2149TIP3    H130642   5.519   4.715  24.771
 2149TIP3    H230643   5.651   4.691  24.573
 2150TIP3   OH230644   5.182   4.557  25.335
 2150TIP3    H130645   5.167   4.636  25.500
 2150TIP3    H230646   5.110   4.566  25.137
 2151TIP3   OH230647   4.330   4.770  23.124
 2151TIP3    H130648   4.329   4.746  22.839
 2151TIP3    H230649   4.395   4.708  23.235
 2152TIP3   OH230650   4.376   4.644  24.264
 2152TIP3    H130651   4.411   4.643  23.988
 2152TIP3    H230652   4.425   4.718  24.390
 2153TIP3   OH230653   5.022   5.204  24.462
 2153TIP3    H130654   5.044   5.230  24.738
 2153TIP3    H230655   5.002   5.109  24.510
 2154TIP3   OH230656   4.496   5.104  25.575
 2154TIP3    H130657   4.424   5.147  25.731
 2154TIP3    H230658   4.452   5.094  25.314
 2155TIP3   OH230659   4.187   4.718  25.332
 2155TIP3    H130660   4.208   4.788  25.524
 2155TIP3    H230661   4.110   4.680  25.470
 2156TIP3   OH230662   4.308   5.277  25.878
 2156TIP3    H130663   4.288   5.324  25.626
 2156TIP3    H230664   4.217   5.248  25.953
 2157TIP3   OH230665   4.276   4.680  22.368
 2157TIP3    H130666   4.230   4.760  22.260
 2157TIP3    H230667   4.209   4.612  22.335
 2158TIP3   OH230668   5.572   5.295  21.339
 2158TIP3    H130669   5.494   5.290  21.156
 2158TIP3    H230670   5.626   5.227  21.216
 2159TIP3   OH230671   3.879   4.944  25.119
 2159TIP3    H130672   3.840   4.933  24.858
 2159TIP3    H230673   3.923   4.856  25.149
 2160TIP3   OH230674   3.838   5.206  24.150
 2160TIP3    H130675   3.932   5.190  24.132
 2160TIP3    H230676   3.835   5.288  24.297
 2161TIP3   OH230677   5.647   5.267  25.914
 2161TIP3    H130678   5.641   5.172  25.869
 2161TIP3    H230679   5.555   5.285  26.010
 2162TIP3   OH230680   4.741   5.226  25.536
 2162TIP3    H130681   4.748   5.303  25.716
 2162TIP3    H230682   4.654   5.187  25.605
 2163TIP3   OH230683   4.820   5.609  22.236
 2163TIP3    H130684   4.733   5.575  22.149
 2163TIP3    H230685   4.799   5.678  22.437
 2164TIP3   OH230686   4.142   5.479  23.061
 2164TIP3    H130687   4.183   5.447  23.310
 2164TIP3    H230688   4.048   5.462  23.124
 2165TIP3   OH230689   5.092   5.513  21.531
 2165TIP3    H130690   5.089   5.421  21.453
 2165TIP3    H230691   5.078   5.510  21.819
 2166TIP3   OH230692   5.073   5.527  22.341
 2166TIP3    H130693   4.978   5.549  22.383
 2166TIP3    H230694   5.086   5.445  22.488
 2167TIP3   OH230695   5.337   4.391  25.986
 2167TIP3    H130696   5.302   4.436  25.746
 2167TIP3    H230697   5.343   4.298  25.893
 2168TIP3   OH230698   4.094   5.067  25.365
 2168TIP3    H130699   4.101   5.031  25.638
 2168TIP3    H230700   4.007   5.032  25.278
 2169TIP3   OH230701   4.371   3.937  24.135
 2169TIP3    H130702   4.284   3.917  24.015
 2169TIP3    H230703   4.344   3.992  24.363
 2170TIP3   OH230704   4.847   3.877  25.116
 2170TIP3    H130705   4.889   3.840  25.359
 2170TIP3    H230706   4.751   3.873  25.182
 2171TIP3   OH230707   5.119   4.283  25.452
 2171TIP3    H130708   5.065   4.254  25.686
 2171TIP3    H230709   5.141   4.374  25.524
 2172TIP3   OH230710   4.371   4.397  24.540
 2172TIP3    H130711   4.298   4.404  24.732
 2172TIP3    H230712   4.370   4.489  24.438
 2173TIP3   OH230713   4.364   4.424  23.058
 2173TIP3    H130714   4.272   4.436  22.962
 2173TIP3    H230715   4.406   4.399  22.800
 2174TIP3   OH230716   4.929   4.456  22.563
 2174TIP3    H130717   4.912   4.545  22.443
 2174TIP3    H230718   4.998   4.421  22.386
 2175TIP3   OH230719   4.798   4.502  26.076
 2175TIP3    H130720   4.761   4.415  26.160
 2175TIP3    H230721   4.874   4.509  26.259
 2176TIP3   OH230722   4.122   4.413  24.912
 2176TIP3    H130723   4.155   4.449  25.164
 2176TIP3    H230724   4.089   4.325  24.990
 2177TIP3   OH230725   3.802   4.127  23.313
 2177TIP3    H130726   3.864   4.072  23.460
 2177TIP3    H230727   3.801   4.087  23.049
 2178TIP3   OH230728   3.960   4.242  21.945
 2178TIP3    H130729   4.030   4.264  21.759
 2178TIP3    H230730   3.884   4.287  21.837
 2179TIP3   OH230731   4.976   4.598  24.762
 2179TIP3    H130732   5.009   4.514  24.645
 2179TIP3    H230733   4.908   4.563  24.942
 2180TIP3   OH230734   4.664   4.170  23.316
 2180TIP3    H130735   4.568   4.175  23.361
 2180TIP3    H230736   4.695   4.130  23.565
 2181TIP3   OH230737   4.110   4.343  22.926
 2181TIP3    H130738   4.025   4.355  22.782
 2181TIP3    H230739   4.133   4.252  22.857
 2182TIP3   OH230740   4.450   4.367  22.329
 2182TIP3    H130741   4.541   4.333  22.356
 2182TIP3    H230742   4.447   4.388  22.050
 2183TIP3   OH230743   5.041   4.123  24.222
 2183TIP3    H130744   4.989   4.101  24.468
 2183TIP3    H230745   5.005   4.061  24.027
 2184TIP3   OH230746   5.350   5.681  26.199
 2184TIP3    H130747   5.383   5.731  25.971
 2184TIP3    H230748   5.431   5.677  26.358
 2185TIP3   OH230749   4.134   4.910  26.046
 2185TIP3    H130750   4.203   4.910  26.256
 2185TIP3    H230751   4.056   4.884  26.208
 2186TIP3   OH230752   4.776   4.421  23.871
 2186TIP3    H130753   4.804   4.380  23.622
 2186TIP3    H230754   4.709   4.359  23.970
 2187TIP3   OH230755   4.196   4.052  22.767
 2187TIP3    H130756   4.128   3.988  22.857
 2187TIP3    H230757   4.262   3.991  22.665
 2188TIP3   OH230758   4.599   4.255  24.546
 2188TIP3    H130759   4.522   4.317  24.543
 2188TIP3    H230760   4.665   4.305  24.696
 2189TIP3   OH230761   5.402   4.839  24.780
 2189TIP3    H130762   5.451   4.886  24.564
 2189TIP3    H230763   5.310   4.861  24.702
 2190TIP3   OH230764   5.032   4.144  21.639
 2190TIP3    H130765   5.015   4.093  21.393
 2190TIP3    H230766   5.045   4.235  21.549
 2191TIP3   OH230767   4.780   4.946  25.449
 2191TIP3    H130768   4.774   4.908  25.713
 2191TIP3    H230769   4.766   5.041  25.506
 2192TIP3   OH230770   5.150   4.419  22.128
 2192TIP3    H130771   5.240   4.386  22.137
 2192TIP3    H230772   5.169   4.515  22.095
 2193TIP3   OH230773   4.176   4.870  23.769
 2193TIP3    H130774   4.228   4.845  23.529
 2193TIP3    H230775   4.179   4.789  23.934
 2194TIP3   OH230776   3.890   4.680  25.386
 2194TIP3    H130777   3.869   4.637  25.641
 2194TIP3    H230778   3.826   4.639  25.206
 2195TIP3   OH230779   4.568   4.650  25.992
 2195TIP3    H130780   4.533   4.592  25.785
 2195TIP3    H230781   4.658   4.611  26.028
 2196TIP3   OH230782   5.053   5.211  25.485
 2196TIP3    H130783   4.962   5.192  25.413
 2196TIP3    H230784   5.038   5.252  25.749
 2197TIP3   OH230785   5.603   4.402  21.843
 2197TIP3    H130786   5.514   4.375  21.768
 2197TIP3    H230787   5.584   4.485  21.987
 2198TIP3   OH230788   5.611   4.979  25.761
 2198TIP3    H130789   5.518   4.994  25.674
 2198TIP3    H230790   5.657   4.966  25.503
 2199TIP3   OH230791   5.399   5.320  22.014
 2199TIP3    H130792   5.354   5.258  22.194
 2199TIP3    H230793   5.438   5.257  21.819
 2200TIP3   OH230794   5.145   4.777  24.270
 2200TIP3    H130795   5.092   4.716  24.435
 2200TIP3    H230796   5.210   4.717  24.159
 2201TIP3   OH230797   4.603   5.340  24.930
 2201TIP3    H130798   4.645   5.426  24.894
 2201TIP3    H230799   4.655   5.300  25.152
 2202TIP3   OH230800   4.430   5.496  22.848
 2202TIP3    H130801   4.335   5.497  22.896
 2202TIP3    H230802   4.451   5.592  22.872
 2203TIP3   OH230803   4.926   4.964  24.732
 2203TIP3    H130804   4.874   4.943  24.972
 2203TIP3    H230805   4.961   4.877  24.660
 2204TIP3   OH230806   5.238   5.435  25.413
 2204TIP3    H130807   5.152   5.391  25.356
 2204TIP3    H230808   5.244   5.503  25.200
 2205TIP3   OH230809   4.067   4.155  25.329
 2205TIP3    H130810   4.003   4.202  25.497
 2205TIP3    H230811   4.060   4.065  25.440
 2206TIP3   OH230812   4.006   5.336  24.795
 2206TIP3    H130813   4.068   5.261  24.807
 2206TIP3    H230814   4.023   5.373  25.059
 2207TIP3   OH230815   4.183   4.887  21.948
 2207TIP3    H130816   4.089   4.916  21.939
 2207TIP3    H230817   4.231   4.956  21.801
 2208TIP3   OH230818   4.923   4.133  24.945
 2208TIP3    H130819   4.989   4.174  25.122
 2208TIP3    H230820   4.904   4.046  25.071
 2209TIP3   OH230821   4.975   4.083  22.470
 2209TIP3    H130822   5.002   4.090  22.188
 2209TIP3    H230823   5.024   4.154  22.605
 2210TIP3   OH230824   4.698   4.317  22.584
 2210TIP3    H130825   4.784   4.365  22.593
 2210TIP3    H230826   4.700   4.264  22.830
 2211TIP3   OH230827   4.816   4.396  25.248
 2211TIP3    H130828   4.824   4.423  25.527
 2211TIP3    H230829   4.850   4.304  25.245
 2212TIP3   OH230830   4.752   3.976  22.749
 2212TIP3    H130831   4.729   4.040  22.959
 2212TIP3    H230832   4.843   4.006  22.668
 2213TIP3   OH230833   4.413   5.430  22.053
 2213TIP3    H130834   4.478   5.482  21.900
 2213TIP3    H230835   4.446   5.439  22.329
 2214TIP3   OH230836   4.385   4.140  21.723
 2214TIP3    H130837   4.326   4.156  21.948
 2214TIP3    H230838   4.468   4.109  21.855
 2215TIP3   OH230839   5.357   4.151  25.584
 2215TIP3    H130840   5.264   4.170  25.509
 2215TIP3    H230841   5.402   4.159  25.326
 2216TIP3   OH230842   5.341   5.467  24.216
 2216TIP3    H130843   5.349   5.537  24.009
 2216TIP3    H230844   5.436   5.452  24.273
 2217TIP3   OH230845   4.115   3.880  23.961
 2217TIP3    H130846   4.105   3.863  23.673
 2217TIP3    H230847   4.084   3.795  24.072
 2218TIP3   OH230848   3.947   5.237  22.548
 2218TIP3    H130849   3.894   5.309  22.653
 2218TIP3    H230850   4.037   5.269  22.614
 2219TIP3   OH230851   3.901   5.548  26.115
 2219TIP3    H130852   3.965   5.527  26.325
 2219TIP3    H230853   3.860   5.459  26.073
 2220TIP3   OH230854   4.383   5.428  26.532
 2220TIP3    H130855   4.470   5.392  26.607
 2220TIP3    H230856   4.369   5.387  26.271
 2221TIP3   OH230857   4.754   5.406  21.177
 2221TIP3    H130858   4.699   5.351  21.354
 2221TIP3    H230859   4.824   5.346  21.093
 2222TIP3   OH230860   5.021   5.287  26.256
 2222TIP3    H130861   4.988   5.197  26.334
 2222TIP3    H230862   5.105   5.290  26.409
 2223TIP3   OH230863   3.881   4.910  26.442
 2223TIP3    H130864   3.850   4.818  26.448
 2223TIP3    H230865   3.836   4.942  26.196
 2224TIP3   OH230866   4.567   4.912  26.154
 2224TIP3    H130867   4.557   4.959  25.899
 2224TIP3    H230868   4.550   4.817  26.088
 2225TIP3   OH230869   5.126   4.901  25.530
 2225TIP3    H130870   5.209   4.953  25.524
 2225TIP3    H230871   5.061   4.973  25.506
 2226TIP3   OH230872   4.016   4.616  26.295
 2226TIP3    H130873   4.027   4.522  26.346
 2226TIP3    H230874   4.049   4.658  26.544
 2227TIP3   OH230875   4.466   4.715  21.705
 2227TIP3    H130876   4.406   4.718  21.933
 2227TIP3    H230877   4.495   4.623  21.705
 2228TIP3   OH230878   4.371   4.523  25.323
 2228TIP3    H130879   4.318   4.604  25.344
 2228TIP3    H230880   4.452   4.561  25.203
 2229TIP3   OH230881   4.931   4.808  26.436
 2229TIP3    H130882   5.000   4.752  26.319
 2229TIP3    H230883   4.883   4.743  26.601
 2230TIP3   OH230884   4.438   4.270  25.647
 2230TIP3    H130885   4.451   4.208  25.422
 2230TIP3    H230886   4.413   4.353  25.506
 2231TIP3   OH230887   4.470   4.080  25.017
 2231TIP3    H130888   4.513   4.131  24.801
 2231TIP3    H230889   4.375   4.082  24.939
 2232TIP3   OH230890   4.598   4.665  25.074
 2232TIP3    H130891   4.681   4.710  24.999
 2232TIP3    H230892   4.532   4.727  24.966
 2233TIP3   OH230893   5.078   4.393  26.499
 2233TIP3    H130894   5.087   4.297  26.478
 2233TIP3    H230895   5.167   4.427  26.454
 2234TIP3   OH230896   5.201   4.728  26.115
 2234TIP3    H130897   5.169   4.788  25.905
 2234TIP3    H230898   5.297   4.724  26.055
 2235TIP3   OH230899   4.281   4.350  26.307
 2235TIP3    H130900   4.196   4.313  26.226
 2235TIP3    H230901   4.339   4.324  26.085
 2236TIP3   OH230902   4.574   3.841  25.137
 2236TIP3    H130903   4.536   3.930  25.086
 2236TIP3    H230904   4.508   3.787  24.996
 2237TIP3   OH230905   4.660   4.271  26.313
 2237TIP3    H130906   4.598   4.250  26.532
 2237TIP3    H230907   4.603   4.252  26.085
 2238TIP3   OH230908   4.951   4.192  25.992
 2238TIP3    H130909   4.856   4.188  26.052
 2238TIP3    H230910   4.985   4.140  26.217
 2239TIP3   OH230911   5.111   4.062  26.556
 2239TIP3    H130912   5.108   3.964  26.523
 2239TIP3    H230913   5.092   4.071  26.844
 2240TIP3   OH230914   4.067   4.177  26.322
 2240TIP3    H130915   4.039   4.098  26.175
 2240TIP3    H230916   4.056   4.147  26.604
 2241TIP3   OH230917   4.525   3.808  25.974
 2241TIP3    H130918   4.596   3.740  26.010
 2241TIP3    H230919   4.538   3.823  25.686
 2242TIP3   OH230920   4.569   3.953  26.694
 2242TIP3    H130921   4.553   3.905  26.439
 2242TIP3    H230922   4.526   4.039  26.652
 2243TIP3   OH230923   4.562   5.631  21.666
 2243TIP3    H130924   4.622   5.644  21.438
 2243TIP3    H230925   4.493   5.696  21.600
 2244TIP3   OH230926   3.815   5.616  22.857
 2244TIP3    H130927   3.732   5.587  22.728
 2244TIP3    H230928   3.812   5.563  23.100
 2245TIP3   OH230929   3.885   5.430  23.484
 2245TIP3    H130930   3.811   5.376  23.586
 2245TIP3    H230931   3.930   5.456  23.733
 2246TIP3   OH230932   5.623   5.518  24.279
 2246TIP3    H130933   5.650   5.535  24.555
 2246TIP3    H230934   5.699   5.552  24.132
 2247TIP3   OH230935   5.585   5.465  25.188
 2247TIP3    H130936   5.546   5.390  25.038
 2247TIP3    H230937   5.603   5.421  25.443
 2248TIP3   OH230938   5.443   5.052  26.655
 2248TIP3    H130939   5.350   5.052  26.751
 2248TIP3    H230940   5.483   5.125  26.817
 2249TIP3   OH230941   5.551   4.955  24.228
 2249TIP3    H130942   5.622   4.894  24.144
 2249TIP3    H230943   5.582   5.041  24.117
 2250TIP3   OH230944   5.434   5.250  24.954
 2250TIP3    H130945   5.366   5.289  25.125
 2250TIP3    H230946   5.385   5.232  24.705
 2251TIP3   OH230947   5.393   4.400  21.315
 2251TIP3    H130948   5.469   4.460  21.297
 2251TIP3    H230949   5.429   4.316  21.216
 2252TIP3   OH230950   3.866   4.772  24.192
 2252TIP3    H130951   3.866   4.741  23.913
 2252TIP3    H230952   3.955   4.742  24.279
 2253TIP3   OH230953   5.490   4.731  25.887
 2253TIP3    H130954   5.535   4.647  25.959
 2253TIP3    H230955   5.561   4.798  25.845
 2254TIP3   OH230956   5.583   4.482  26.142
 2254TIP3    H130957   5.500   4.441  26.037
 2254TIP3    H230958   5.645   4.408  26.100
 2255TIP3   OH230959   5.435   4.446  25.047
 2255TIP3    H130960   5.342   4.475  25.029
 2255TIP3    H230961   5.485   4.520  24.927
 2256TIP3   OH230962   3.854   4.277  25.971
 2256TIP3    H130963   3.935   4.258  26.124
 2256TIP3    H230964   3.801   4.195  26.016
 2257TIP3   OH230965   5.626   3.850  26.490
 2257TIP3    H130966   5.673   3.782  26.331
 2257TIP3    H230967   5.633   3.929  26.313
 2258TIP3   OH230968   3.970   4.104  24.027
 2258TIP3    H130969   4.018   4.019  24.009
 2258TIP3    H230970   4.039   4.169  23.967
 2259TIP3   OH230971   3.811   4.423  24.240
 2259TIP3    H130972   3.877   4.396  24.042
 2259TIP3    H230973   3.858   4.499  24.354
 2260TIP3   OH230974   5.584   4.078  26.064
 2260TIP3    H130975   5.493   4.103  26.163
 2260TIP3    H230976   5.560   4.032  25.818
 2261TIP3   OH230977   3.833   4.074  22.494
 2261TIP3    H130978   3.759   4.021  22.389
 2261TIP3    H230979   3.880   4.101  22.251
 2262TIP3   OH230980   5.307   5.509  23.025
 2262TIP3    H130981   5.356   5.465  22.815
 2262TIP3    H230982   5.371   5.574  23.127
 2263TIP3   OH230983   3.833   3.894  24.915
 2263TIP3    H130984   3.769   3.871  25.125
 2263TIP3    H230985   3.789   3.968  24.780
 2264TIP3   OH230986   4.054   5.212  26.133
 2264TIP3    H130987   3.969   5.246  26.037
 2264TIP3    H230988   4.033   5.177  26.394
 2265TIP3   OH230989   4.320   5.380  25.122
 2265TIP3    H130990   4.340   5.471  25.032
 2265TIP3    H230991   4.408   5.340  25.134
 2266TIP3   OH230992   4.760   5.483  25.884
 2266TIP3    H130993   4.763   5.455  26.169
 2266TIP3    H230994   4.852   5.516  25.851
 2267TIP3   OH230995   4.988   5.616  25.698
 2267TIP3    H130996   5.069   5.566  25.659
 2267TIP3    H230997   5.012   5.666  25.944
 2268TIP3   OH230998   5.508   3.843  25.467
 2268TIP3    H130999   5.434   3.875  25.308
 2268TIP3    H231000   5.526   3.755  25.344
 2269TIP3   OH231001   4.089   5.661  25.029
 2269TIP3    H131002   4.008   5.710  24.951
 2269TIP3    H231003   4.079   5.654  25.317
 2270TIP3   OH231004   4.332   5.613  24.711
 2270TIP3    H131005   4.240   5.630  24.810
 2270TIP3    H231006   4.333   5.669  24.471
 2271TIP3   OH231007   4.776   5.575  24.360
 2271TIP3    H131008   4.719   5.629  24.189
 2271TIP3    H231009   4.799   5.638  24.573
 2272TIP3   OH231010   5.012   5.463  24.888
 2272TIP3    H131011   4.957   5.537  24.984
 2272TIP3    H231012   5.099   5.508  24.879
 2273TIP3   OH231013   5.241   5.622  24.822
 2273TIP3    H131014   5.255   5.716  24.756
 2273TIP3    H231015   5.291   5.577  24.606
 2274TIP3   OH231016   4.020   5.504  24.150
 2274TIP3    H131017   4.001   5.453  24.396
 2274TIP3    H231018   4.110   5.472  24.081
 2275TIP3   OH231019   4.240   5.413  23.808
 2275TIP3    H131020   4.230   5.316  23.844
 2275TIP3    H231021   4.337   5.424  23.853
 2276TIP3   OH231022   4.496   5.422  24.003
 2276TIP3    H131023   4.516   5.329  23.949
 2276TIP3    H231024   4.497   5.428  24.294
 2277TIP3   OH231025   4.863   3.951  23.709
 2277TIP3    H131026   4.779   3.934  23.847
 2277TIP3    H231027   4.857   3.885  23.496
 2278TIP3   OH231028   4.056   3.849  23.124
 2278TIP3    H131029   3.965   3.832  23.031
 2278TIP3    H231030   4.100   3.762  23.076
 2279TIP3   OH231031   4.467   3.819  23.010
 2279TIP3    H131032   4.530   3.852  22.818
 2279TIP3    H231033   4.520   3.821  23.253
 2280TIP3   OH231034   4.609   4.103  22.143
 2280TIP3    H131035   4.646   4.035  22.323
 2280TIP3    H231036   4.681   4.167  22.152
 2281TIP3   OH231037   4.038   3.917  25.917
 2281TIP3    H131038   3.994   3.831  25.935
 2281TIP3    H231039   4.110   3.908  26.118
 2282TIP3   OH231040   4.237   3.850  26.472
 2282TIP3    H131041   4.329   3.838  26.394
 2282TIP3    H231042   4.216   3.756  26.526
 2283TIP3   OH231043   5.096   3.786  26.502
 2283TIP3    H131044   5.088   3.711  26.691
 2283TIP3    H231045   5.187   3.770  26.403
 2284TIP3   OH231046   5.410   5.392  25.986
 2284TIP3    H131047   5.344   5.385  25.764
 2284TIP3    H231048   5.391   5.482  26.076
 2285TIP3   OH231049   6.882   4.773  22.944
 2285TIP3    H131050   6.916   4.854  23.070
 2285TIP3    H231051   6.791   4.802  22.896
 2286TIP3   OH231052   6.755   4.669  24.021
 2286TIP3    H131053   6.774   4.617  24.264
 2286TIP3    H231054   6.690   4.613  23.880
 2287TIP3   OH231055   5.965   4.671  24.513
 2287TIP3    H131056   5.964   4.588  24.663
 2287TIP3    H231057   6.027   4.723  24.675
 2288TIP3   OH231058   7.121   4.971  23.703
 2288TIP3    H131059   7.120   4.907  23.925
 2288TIP3    H231060   7.109   5.055  23.847
 2289TIP3   OH231061   6.067   5.125  23.991
 2289TIP3    H131062   6.042   5.031  23.943
 2289TIP3    H231063   6.163   5.111  24.000
 2290TIP3   OH231064   5.783   4.666  23.376
 2290TIP3    H131065   5.841   4.597  23.499
 2290TIP3    H231066   5.844   4.739  23.334
 2291TIP3   OH231067   6.585   4.893  24.291
 2291TIP3    H131068   6.633   4.828  24.126
 2291TIP3    H231069   6.662   4.938  24.417
 2292TIP3   OH231070   7.457   4.107  24.372
 2292TIP3    H131071   7.451   4.170  24.591
 2292TIP3    H231072   7.518   4.153  24.195
 2293TIP3   OH231073   6.926   4.375  24.327
 2293TIP3    H131074   6.967   4.292  24.417
 2293TIP3    H231075   6.908   4.352  24.045
 2294TIP3   OH231076   6.226   4.157  23.382
 2294TIP3    H131077   6.228   4.245  23.247
 2294TIP3    H231078   6.174   4.104  23.187
 2295TIP3   OH231079   7.004   4.195  22.989
 2295TIP3    H131080   7.038   4.158  23.244
 2295TIP3    H231081   7.086   4.239  22.899
 2296TIP3   OH231082   5.924   4.468  23.742
 2296TIP3    H131083   5.982   4.409  23.898
 2296TIP3    H231084   5.924   4.419  23.484
 2297TIP3   OH231085   6.372   4.578  23.547
 2297TIP3    H131086   6.448   4.538  23.688
 2297TIP3    H231087   6.352   4.509  23.349
 2298TIP3   OH231088   7.453   4.202  25.194
 2298TIP3    H131089   7.406   4.277  25.068
 2298TIP3    H231090   7.526   4.251  25.314
 2299TIP3   OH231091   6.120   4.095  24.705
 2299TIP3    H131092   6.080   4.140  24.474
 2299TIP3    H231093   6.056   4.118  24.918
 2300TIP3   OH231094   6.800   5.025  22.716
 2300TIP3    H131095   6.773   5.033  22.434
 2300TIP3    H231096   6.774   5.111  22.815
 2301TIP3   OH231097   6.339   4.844  24.579
 2301TIP3    H131098   6.298   4.924  24.696
 2301TIP3    H231099   6.416   4.885  24.441
 2302TIP3   OH231100   7.149   4.165  23.643
 2302TIP3    H131101   7.109   4.102  23.832
 2302TIP3    H231102   7.244   4.150  23.670
 2303TIP3   OH231103   6.076   4.264  24.030
 2303TIP3    H131104   6.140   4.323  24.174
 2303TIP3    H231105   6.134   4.229  23.817
 2304TIP3   OH231106   6.206   5.050  24.903
 2304TIP3    H131107   6.194   5.141  24.801
 2304TIP3    H231108   6.120   5.040  25.047
 2305TIP3   OH231109   7.160   5.192  24.243
 2305TIP3    H131110   7.066   5.212  24.297
 2305TIP3    H231111   7.186   5.276  24.123
 2306TIP3   OH231112   7.189   4.061  24.597
 2306TIP3    H131113   7.108   4.090  24.450
 2306TIP3    H231114   7.259   4.075  24.399
 2307TIP3   OH231115   6.466   3.823  23.898
 2307TIP3    H131116   6.442   3.730  23.865
 2307TIP3    H231117   6.378   3.861  23.976
 2308TIP3   OH231118   7.261   5.008  25.404
 2308TIP3    H131119   7.271   4.948  25.170
 2308TIP3    H231120   7.265   5.095  25.263
 2309TIP3   OH231121   7.410   4.650  24.762
 2309TIP3    H131122   7.358   4.732  24.726
 2309TIP3    H231123   7.485   4.667  24.576
 2310TIP3   OH231124   7.069   4.641  22.491
 2310TIP3    H131125   7.010   4.705  22.626
 2310TIP3    H231126   7.141   4.635  22.692
 2311TIP3   OH231127   7.067   4.554  25.311
 2311TIP3    H131128   7.034   4.636  25.431
 2311TIP3    H231129   7.008   4.550  25.080
 2312TIP3   OH231130   6.239   4.768  23.148
 2312TIP3    H131131   6.187   4.719  22.950
 2312TIP3    H231132   6.297   4.698  23.256
 2313TIP3   OH231133   6.366   5.102  23.940
 2313TIP3    H131134   6.375   5.073  23.664
 2313TIP3    H231135   6.441   5.056  24.069
 2314TIP3   OH231136   6.252   4.628  24.261
 2314TIP3    H131137   6.291   4.634  23.991
 2314TIP3    H231138   6.292   4.708  24.390
 2315TIP3   OH231139   6.906   5.219  24.441
 2315TIP3    H131140   6.891   5.279  24.669
 2315TIP3    H231141   6.889   5.131  24.558
 2316TIP3   OH231142   6.361   5.094  25.569
 2316TIP3    H131143   6.292   5.141  25.725
 2316TIP3    H231144   6.313   5.075  25.320
 2317TIP3   OH231145   6.064   4.720  25.314
 2317TIP3    H131146   6.091   4.795  25.476
 2317TIP3    H231147   5.992   4.686  25.479
 2318TIP3   OH231148   6.194   5.281  25.809
 2318TIP3    H131149   6.169   5.293  25.530
 2318TIP3    H231150   6.108   5.255  25.932
 2319TIP3   OH231151   7.287   3.850  21.891
 2319TIP3    H131152   7.209   3.818  21.753
 2319TIP3    H231153   7.353   3.848  21.675
 2320TIP3   OH231154   6.087   4.666  22.548
 2320TIP3    H131155   6.120   4.739  22.389
 2320TIP3    H231156   6.052   4.604  22.356
 2321TIP3   OH231157   7.465   5.258  21.588
 2321TIP3    H131158   7.439   5.292  21.852
 2321TIP3    H231159   7.559   5.236  21.609
 2322TIP3   OH231160   5.763   4.946  25.101
 2322TIP3    H131161   5.718   4.943  24.843
 2322TIP3    H231162   5.788   4.853  25.152
 2323TIP3   OH231163   5.705   5.201  24.123
 2323TIP3    H131164   5.796   5.171  24.099
 2323TIP3    H231165   5.716   5.280  24.282
 2324TIP3   OH231166   7.535   5.277  25.902
 2324TIP3    H131167   7.524   5.193  25.764
 2324TIP3    H231168   7.446   5.284  26.028
 2325TIP3   OH231169   6.620   5.217  25.569
 2325TIP3    H131170   6.625   5.297  25.734
 2325TIP3    H231171   6.527   5.186  25.593
 2326TIP3   OH231172   6.045   5.481  23.037
 2326TIP3    H131173   6.070   5.448  23.304
 2326TIP3    H231174   5.958   5.439  23.004
 2327TIP3   OH231175   7.225   4.436  25.965
 2327TIP3    H131176   7.177   4.468  25.731
 2327TIP3    H231177   7.249   4.344  25.893
 2328TIP3   OH231178   5.993   5.053  25.371
 2328TIP3    H131179   5.993   5.014  25.647
 2328TIP3    H231180   5.903   5.030  25.275
 2329TIP3   OH231181   6.251   3.939  24.192
 2329TIP3    H131182   6.163   3.946  24.063
 2329TIP3    H231183   6.230   3.981  24.450
 2330TIP3   OH231184   6.730   3.865  25.107
 2330TIP3    H131185   6.768   3.819  25.341
 2330TIP3    H231186   6.633   3.862  25.158
 2331TIP3   OH231187   7.009   4.252  25.401
 2331TIP3    H131188   6.963   4.208  25.629
 2331TIP3    H231189   7.014   4.343  25.494
 2332TIP3   OH231190   7.146   4.682  21.327
 2332TIP3    H131191   7.101   4.753  21.192
 2332TIP3    H231192   7.144   4.711  21.609
 2333TIP3   OH231193   6.715   4.202  21.438
 2333TIP3    H131194   6.664   4.165  21.660
 2333TIP3    H231195   6.647   4.190  21.231
 2334TIP3   OH231196   6.252   4.386  24.522
 2334TIP3    H131197   6.172   4.394  24.687
 2334TIP3    H231198   6.258   4.481  24.429
 2335TIP3   OH231199   6.212   4.390  23.007
 2335TIP3    H131200   6.117   4.401  22.950
 2335TIP3    H231201   6.251   4.392  22.734
 2336TIP3   OH231202   6.789   4.487  22.575
 2336TIP3    H131203   6.819   4.579  22.602
 2336TIP3    H231204   6.870   4.439  22.503
 2337TIP3   OH231205   6.679   4.490  26.022
 2337TIP3    H131206   6.639   4.408  26.133
 2337TIP3    H231207   6.757   4.500  26.193
 2338TIP3   OH231208   6.890   4.421  23.481
 2338TIP3    H131209   6.867   4.502  23.334
 2338TIP3    H231210   6.909   4.357  23.268
 2339TIP3   OH231211   6.001   4.404  24.870
 2339TIP3    H131212   6.037   4.448  25.107
 2339TIP3    H231213   5.969   4.319  24.978
 2340TIP3   OH231214   6.239   4.240  21.129
 2340TIP3    H131215   6.293   4.165  21.231
 2340TIP3    H231216   6.187   4.196  20.916
 2341TIP3   OH231217   5.685   4.126  23.277
 2341TIP3    H131218   5.756   4.131  23.478
 2341TIP3    H231219   5.730   4.138  23.019
 2342TIP3   OH231220   5.795   4.203  21.840
 2342TIP3    H131221   5.870   4.245  21.711
 2342TIP3    H231222   5.729   4.274  21.810
 2343TIP3   OH231223   6.822   4.569  24.771
 2343TIP3    H131224   6.869   4.497  24.621
 2343TIP3    H231225   6.761   4.516  24.939
 2344TIP3   OH231226   6.502   4.173  23.349
 2344TIP3    H131227   6.405   4.171  23.400
 2344TIP3    H231228   6.538   4.114  23.550
 2345TIP3   OH231229   5.936   4.334  23.013
 2345TIP3    H131230   5.883   4.357  22.785
 2345TIP3    H231231   5.983   4.255  22.914
 2346TIP3   OH231232   6.330   4.380  22.290
 2346TIP3    H131233   6.422   4.355  22.350
 2346TIP3    H231234   6.314   4.336  22.038
 2347TIP3   OH231235   6.957   4.091  24.243
 2347TIP3    H131236   6.889   4.082  24.453
 2347TIP3    H231237   6.902   4.056  24.021
 2348TIP3   OH231238   6.181   4.478  21.483
 2348TIP3    H131239   6.108   4.418  21.411
 2348TIP3    H231240   6.253   4.437  21.327
 2349TIP3   OH231241   7.258   5.619  26.229
 2349TIP3    H131242   7.302   5.656  25.992
 2349TIP3    H231243   7.324   5.640  26.433
 2350TIP3   OH231244   6.019   4.900  26.058
 2350TIP3    H131245   6.090   4.912  26.256
 2350TIP3    H231246   5.941   4.889  26.235
 2351TIP3   OH231247   6.597   4.445  23.829
 2351TIP3    H131248   6.664   4.398  23.670
 2351TIP3    H231249   6.567   4.375  24.012
 2352TIP3   OH231250   6.066   4.063  22.767
 2352TIP3    H131251   6.026   3.982  22.881
 2352TIP3    H231252   6.136   4.025  22.599
 2353TIP3   OH231253   6.477   4.256  24.585
 2353TIP3    H131254   6.395   4.311  24.597
 2353TIP3    H231255   6.543   4.313  24.714
 2354TIP3   OH231256   6.530   4.890  22.137
 2354TIP3    H131257   6.458   4.830  22.044
 2354TIP3    H231258   6.493   4.917  22.395
 2355TIP3   OH231259   7.267   4.882  24.717
 2355TIP3    H131260   7.316   4.921  24.495
 2355TIP3    H231261   7.189   4.843  24.582
 2356TIP3   OH231262   6.990   4.170  21.573
 2356TIP3    H131263   6.898   4.192  21.498
 2356TIP3    H231264   7.021   4.252  21.699
 2357TIP3   OH231265   6.664   4.953  25.443
 2357TIP3    H131266   6.654   4.910  25.701
 2357TIP3    H231267   6.657   5.047  25.515
 2358TIP3   OH231268   7.029   4.402  22.119
 2358TIP3    H131269   7.093   4.350  22.275
 2358TIP3    H231270   7.052   4.493  22.215
 2359TIP3   OH231271   6.077   4.848  23.886
 2359TIP3    H131272   6.133   4.822  23.661
 2359TIP3    H231273   6.064   4.763  24.030
 2360TIP3   OH231274   6.723   5.058  21.954
 2360TIP3    H131275   6.690   5.148  22.020
 2360TIP3    H231276   6.645   4.998  21.984
 2361TIP3   OH231277   5.761   4.692  25.464
 2361TIP3    H131278   5.752   4.627  25.680
 2361TIP3    H231279   5.707   4.652  25.251
 2362TIP3   OH231280   6.451   4.634  25.977
 2362TIP3    H131281   6.408   4.576  25.785
 2362TIP3    H231282   6.541   4.595  25.989
 2363TIP3   OH231283   6.945   5.168  25.506
 2363TIP3    H131284   6.860   5.186  25.380
 2363TIP3    H231285   6.931   5.214  25.761
 2364TIP3   OH231286   7.490   4.969  25.764
 2364TIP3    H131287   7.404   5.000  25.647
 2364TIP3    H231288   7.545   4.957  25.521
 2365TIP3   OH231289   7.073   4.764  24.231
 2365TIP3    H131290   6.981   4.777  24.150
 2365TIP3    H231291   7.096   4.690  24.054
 2366TIP3   OH231292   6.290   5.209  23.007
 2366TIP3    H131293   6.310   5.294  22.872
 2366TIP3    H231294   6.194   5.206  22.977
 2367TIP3   OH231295   6.414   4.960  22.863
 2367TIP3    H131296   6.373   5.044  22.950
 2367TIP3    H231297   6.361   4.892  23.010
 2368TIP3   OH231298   6.485   5.376  25.038
 2368TIP3    H131299   6.553   5.431  24.909
 2368TIP3    H231300   6.543   5.323  25.218
 2369TIP3   OH231301   6.302   5.462  22.737
 2369TIP3    H131302   6.212   5.464  22.851
 2369TIP3    H231303   6.334   5.550  22.821
 2370TIP3   OH231304   6.800   4.954  24.714
 2370TIP3    H131305   6.753   4.947  24.975
 2370TIP3    H231306   6.843   4.868  24.714
 2371TIP3   OH231307   7.110   5.408  25.425
 2371TIP3    H131308   7.028   5.360  25.362
 2371TIP3    H231309   7.119   5.472  25.200
 2372TIP3   OH231310   5.933   4.154  25.278
 2372TIP3    H131311   5.861   4.203  25.416
 2372TIP3    H231312   5.932   4.071  25.434
 2373TIP3   OH231313   7.165   4.867  21.924
 2373TIP3    H131314   7.106   4.890  22.143
 2373TIP3    H231315   7.242   4.924  21.972
 2374TIP3   OH231316   5.895   5.327  24.783
 2374TIP3    H131317   5.958   5.253  24.798
 2374TIP3    H231318   5.918   5.377  25.020
 2375TIP3   OH231319   6.461   5.203  20.991
 2375TIP3    H131320   6.415   5.149  20.790
 2375TIP3    H231321   6.468   5.143  21.213
 2376TIP3   OH231322   6.798   4.142  25.047
 2376TIP3    H131323   6.887   4.154  25.167
 2376TIP3    H231324   6.774   4.053  25.143
 2377TIP3   OH231325   6.866   4.082  22.383
 2377TIP3    H131326   6.909   4.121  22.155
 2377TIP3    H231327   6.925   4.112  22.599
 2378TIP3   OH231328   6.657   5.326  22.023
 2378TIP3    H131329   6.561   5.343  22.044
 2378TIP3    H231330   6.682   5.381  21.798
 2379TIP3   OH231331   6.582   4.312  22.590
 2379TIP3    H131332   6.645   4.385  22.635
 2379TIP3    H231333   6.583   4.264  22.845
 2380TIP3   OH231334   6.684   4.393  25.239
 2380TIP3    H131335   6.682   4.419  25.524
 2380TIP3    H231336   6.732   4.308  25.233
 2381TIP3   OH231337   6.717   3.978  22.968
 2381TIP3    H131338   6.631   4.000  22.842
 2381TIP3    H231339   6.780   4.012  22.764
 2382TIP3   OH231340   6.389   5.371  22.035
 2382TIP3    H131341   6.409   5.454  21.885
 2382TIP3    H231342   6.356   5.410  22.287
 2383TIP3   OH231343   7.240   4.160  25.668
 2383TIP3    H131344   7.159   4.178  25.512
 2383TIP3    H231345   7.311   4.172  25.467
 2384TIP3   OH231346   7.116   4.553  23.742
 2384TIP3    H131347   7.042   4.491  23.700
 2384TIP3    H231348   7.167   4.502  23.946
 2385TIP3   OH231349   5.887   4.410  21.210
 2385TIP3    H131350   5.829   4.490  21.201
 2385TIP3    H231351   5.838   4.346  21.054
 2386TIP3   OH231352   7.252   5.463  24.237
 2386TIP3    H131353   7.235   5.538  24.054
 2386TIP3    H231354   7.350   5.461  24.240
 2387TIP3   OH231355   5.998   3.887  23.961
 2387TIP3    H131356   5.992   3.850  23.685
 2387TIP3    H231357   5.968   3.808  24.111
 2388TIP3   OH231358   5.861   5.273  22.821
 2388TIP3    H131359   5.779   5.320  22.863
 2388TIP3    H231360   5.886   5.301  22.554
 2389TIP3   OH231361   5.783   5.532  26.112
 2389TIP3    H131362   5.845   5.517  26.337
 2389TIP3    H231363   5.740   5.445  26.088
 2390TIP3   OH231364   6.231   5.387  26.568
 2390TIP3    H131365   6.322   5.409  26.625
 2390TIP3    H231366   6.230   5.384  26.274
 2391TIP3   OH231367   6.689   5.353  21.126
 2391TIP3    H131368   6.616   5.296  21.030
 2391TIP3    H231369   6.762   5.291  21.189
 2392TIP3   OH231370   6.890   5.279  26.232
 2392TIP3    H131371   6.861   5.190  26.328
 2392TIP3    H231372   6.971   5.288  26.397
 2393TIP3   OH231373   5.768   4.911  26.385
 2393TIP3    H131374   5.728   4.822  26.403
 2393TIP3    H231375   5.718   4.949  26.160
 2394TIP3   OH231376   6.444   4.900  26.085
 2394TIP3    H131377   6.422   4.958  25.857
 2394TIP3    H231378   6.432   4.809  25.980
 2395TIP3   OH231379   7.028   4.878  25.515
 2395TIP3    H131380   7.117   4.920  25.530
 2395TIP3    H231381   6.975   4.959  25.551
 2396TIP3   OH231382   5.914   4.613  26.337
 2396TIP3    H131383   5.996   4.563  26.364
 2396TIP3    H231384   5.919   4.672  26.571
 2397TIP3   OH231385   6.329   4.743  21.825
 2397TIP3    H131386   6.298   4.662  21.954
 2397TIP3    H231387   6.366   4.703  21.582
 2398TIP3   OH231388   6.247   4.523  25.287
 2398TIP3    H131389   6.189   4.601  25.293
 2398TIP3    H231390   6.326   4.568  25.173
 2399TIP3   OH231391   6.479   4.555  21.147
 2399TIP3    H131392   6.414   4.565  20.934
 2399TIP3    H231393   6.552   4.518  20.988
 2400TIP3   OH231394   6.793   4.794  26.439
 2400TIP3    H131395   6.853   4.754  26.244
 2400TIP3    H231396   6.773   4.717  26.616
 2401TIP3   OH231397   6.335   4.282  25.647
 2401TIP3    H131398   6.341   4.210  25.443
 2401TIP3    H231399   6.298   4.357  25.491
 2402TIP3   OH231400   6.359   4.087  25.074
 2402TIP3    H131401   6.411   4.136  24.867
 2402TIP3    H231402   6.268   4.088  24.960
 2403TIP3   OH231403   6.483   4.674  25.065
 2403TIP3    H131404   6.567   4.703  24.954
 2403TIP3    H231405   6.422   4.734  24.921
 2404TIP3   OH231406   6.990   4.393  26.541
 2404TIP3    H131407   7.045   4.320  26.445
 2404TIP3    H231408   7.054   4.464  26.499
 2405TIP3   OH231409   7.065   4.721  26.166
 2405TIP3    H131410   7.039   4.772  25.926
 2405TIP3    H231411   7.156   4.696  26.085
 2406TIP3   OH231412   6.170   4.361  26.304
 2406TIP3    H131413   6.085   4.316  26.244
 2406TIP3    H231414   6.227   4.327  26.085
 2407TIP3   OH231415   6.457   3.839  25.095
 2407TIP3    H131416   6.431   3.933  25.113
 2407TIP3    H231417   6.375   3.799  24.999
 2408TIP3   OH231418   6.549   4.264  26.298
 2408TIP3    H131419   6.488   4.237  26.511
 2408TIP3    H231420   6.491   4.255  26.067
 2409TIP3   OH231421   6.837   4.174  26.004
 2409TIP3    H131422   6.745   4.190  26.085
 2409TIP3    H231423   6.873   4.133  26.250
 2410TIP3   OH231424   7.003   4.066  26.550
 2410TIP3    H131425   6.989   3.969  26.571
 2410TIP3    H231426   6.977   4.100  26.814
 2411TIP3   OH231427   5.960   4.180  26.298
 2411TIP3    H131428   5.957   4.096  26.148
 2411TIP3    H231429   5.938   4.150  26.574
 2412TIP3   OH231430   6.419   3.809  25.941
 2412TIP3    H131431   6.489   3.743  25.980
 2412TIP3    H231432   6.422   3.814  25.647
 2413TIP3   OH231433   6.459   3.932  26.691
 2413TIP3    H131434   6.442   3.895  26.424
 2413TIP3    H231435   6.411   4.018  26.667
 2414TIP3   OH231436   6.454   5.601  21.708
 2414TIP3    H131437   6.552   5.607  21.666
 2414TIP3    H231438   6.427   5.688  21.609
 2415TIP3   OH231439   5.642   5.609  22.857
 2415TIP3    H131440   5.603   5.528  22.752
 2415TIP3    H231441   5.694   5.571  23.076
 2416TIP3   OH231442   5.750   5.448  23.433
 2416TIP3    H131443   5.680   5.397  23.565
 2416TIP3    H231444   5.817   5.453  23.646
 2417TIP3   OH231445   7.530   5.486  24.408
 2417TIP3    H131446   7.525   5.525  24.675
 2417TIP3    H231447   7.547   5.565  24.249
 2418TIP3   OH231448   7.464   5.456  25.251
 2418TIP3    H131449   7.423   5.391  25.071
 2418TIP3    H231450   7.494   5.397  25.464
 2419TIP3   OH231451   7.309   5.037  26.682
 2419TIP3    H131452   7.219   5.050  26.793
 2419TIP3    H231453   7.343   5.128  26.670
 2420TIP3   OH231454   7.446   4.868  22.176
 2420TIP3    H131455   7.524   4.925  22.221
 2420TIP3    H231456   7.448   4.816  22.422
 2421TIP3   OH231457   7.495   4.692  22.788
 2421TIP3    H131458   7.400   4.669  22.776
 2421TIP3    H231459   7.506   4.692  23.073
 2422TIP3   OH231460   7.498   4.946  24.309
 2422TIP3    H131461   7.585   4.934  24.189
 2422TIP3    H231462   7.493   5.045  24.276
 2423TIP3   OH231463   7.308   5.253  24.990
 2423TIP3    H131464   7.230   5.297  25.101
 2423TIP3    H231465   7.280   5.238  24.711
 2424TIP3   OH231466   7.489   4.627  21.702
 2424TIP3    H131467   7.557   4.664  21.522
 2424TIP3    H231468   7.455   4.707  21.834
 2425TIP3   OH231469   7.265   4.559  23.052
 2425TIP3    H131470   7.269   4.462  23.076
 2425TIP3    H231471   7.218   4.581  23.301
 2426TIP3   OH231472   5.741   4.759  24.156
 2426TIP3    H131473   5.744   4.730  23.877
 2426TIP3    H231474   5.832   4.731  24.243
 2427TIP3   OH231475   7.345   4.737  25.887
 2427TIP3    H131476   7.422   4.680  25.833
 2427TIP3    H231477   7.384   4.825  25.854
 2428TIP3   OH231478   7.492   4.515  25.947
 2428TIP3    H131479   7.394   4.514  25.986
 2428TIP3    H231480   7.512   4.421  26.013
 2429TIP3   OH231481   7.225   4.296  22.608
 2429TIP3    H131482   7.240   4.199  22.581
 2429TIP3    H231483   7.316   4.329  22.626
 2430TIP3   OH231484   7.263   4.388  24.177
 2430TIP3    H131485   7.358   4.372  24.120
 2430TIP3    H231486   7.262   4.370  24.462
 2431TIP3   OH231487   7.295   4.427  25.056
 2431TIP3    H131488   7.206   4.463  25.110
 2431TIP3    H231489   7.339   4.509  24.963
 2432TIP3   OH231490   5.744   4.280  25.947
 2432TIP3    H131491   5.828   4.267  26.088
 2432TIP3    H231492   5.693   4.202  26.043
 2433TIP3   OH231493   7.508   3.794  26.532
 2433TIP3    H131494   7.547   3.743  26.316
 2433TIP3    H231495   7.499   3.881  26.400
 2434TIP3   OH231496   7.264   4.035  22.500
 2434TIP3    H131497   7.283   3.982  22.743
 2434TIP3    H231498   7.258   3.963  22.299
 2435TIP3   OH231499   5.853   4.107  23.994
 2435TIP3    H131500   5.905   4.023  23.967
 2435TIP3    H231501   5.927   4.169  24.036
 2436TIP3   OH231502   5.694   4.423  24.207
 2436TIP3    H131503   5.772   4.396  24.054
 2436TIP3    H231504   5.730   4.499  24.348
 2437TIP3   OH231505   7.448   4.022  26.178
 2437TIP3    H131506   7.370   4.077  26.259
 2437TIP3    H231507   7.426   4.002  25.902
 2438TIP3   OH231508   5.714   4.073  22.479
 2438TIP3    H131509   5.623   4.070  22.386
 2438TIP3    H231510   5.758   4.107  22.239
 2439TIP3   OH231511   5.721   3.881  24.912
 2439TIP3    H131512   5.656   3.873  25.131
 2439TIP3    H231513   5.681   3.940  24.720
 2440TIP3   OH231514   5.940   5.218  26.121
 2440TIP3    H131515   5.857   5.235  25.980
 2440TIP3    H231516   5.909   5.192  26.382
 2441TIP3   OH231517   6.215   5.336  24.975
 2441TIP3    H131518   6.215   5.434  24.963
 2441TIP3    H231519   6.311   5.323  25.017
 2442TIP3   OH231520   6.633   5.493  25.929
 2442TIP3    H131521   6.646   5.468  26.208
 2442TIP3    H231522   6.725   5.521  25.851
 2443TIP3   OH231523   6.860   5.626  25.773
 2443TIP3    H131524   6.939   5.583  25.665
 2443TIP3    H231525   6.892   5.660  26.034
 2444TIP3   OH231526   7.357   3.848  25.509
 2444TIP3    H131527   7.281   3.889  25.377
 2444TIP3    H231528   7.361   3.760  25.389
 2445TIP3   OH231529   5.956   5.657  25.011
 2445TIP3    H131530   5.874   5.702  24.915
 2445TIP3    H231531   5.945   5.674  25.296
 2446TIP3   OH231532   6.197   5.605  24.744
 2446TIP3    H131533   6.103   5.624  24.828
 2446TIP3    H231534   6.209   5.672  24.537
 2447TIP3   OH231535   6.669   5.577  24.504
 2447TIP3    H131536   6.592   5.620  24.387
 2447TIP3    H231537   6.688   5.639  24.726
 2448TIP3   OH231538   6.871   5.437  24.948
 2448TIP3    H131539   6.802   5.472  24.771
 2448TIP3    H231540   6.937   5.507  24.933
 2449TIP3   OH231541   7.140   5.589  24.855
 2449TIP3    H131542   7.139   5.682  24.786
 2449TIP3    H231543   7.184   5.549  24.618
 2450TIP3   OH231544   5.917   5.496  24.111
 2450TIP3    H131545   5.909   5.439  24.351
 2450TIP3    H231546   6.005   5.466  24.009
 2451TIP3   OH231547   6.129   5.399  23.736
 2451TIP3    H131548   6.115   5.304  23.805
 2451TIP3    H231549   6.224   5.412  23.805
 2452TIP3   OH231550   6.372   5.414  24.054
 2452TIP3    H131551   6.386   5.318  24.093
 2452TIP3    H231552   6.370   5.447  24.330
 2453TIP3   OH231553   6.766   4.007  23.787
 2453TIP3    H131554   6.693   3.948  23.850
 2453TIP3    H231555   6.760   4.009  23.493
 2454TIP3   OH231556   7.217   3.784  23.742
 2454TIP3    H131557   7.251   3.850  23.550
 2454TIP3    H231558   7.122   3.790  23.661
 2455TIP3   OH231559   7.342   3.929  23.184
 2455TIP3    H131560   7.415   3.864  23.148
 2455TIP3    H231561   7.395   4.003  23.301
 2456TIP3   OH231562   5.959   3.833  23.178
 2456TIP3    H131563   5.867   3.819  23.094
 2456TIP3    H231564   6.001   3.748  23.097
 2457TIP3   OH231565   5.853   3.857  21.750
 2457TIP3    H131566   5.925   3.917  21.654
 2457TIP3    H231567   5.794   3.923  21.867
 2458TIP3   OH231568   6.375   3.843  23.127
 2458TIP3    H131569   6.425   3.891  22.920
 2458TIP3    H231570   6.421   3.875  23.367
 2459TIP3   OH231571   6.979   3.849  23.454
 2459TIP3    H131572   6.952   3.851  23.178
 2459TIP3    H231573   6.907   3.794  23.565
 2460TIP3   OH231574   5.827   5.469  22.086
 2460TIP3    H131575   5.807   5.424  21.837
 2460TIP3    H231576   5.844   5.562  21.999
 2461TIP3   OH231577   6.490   4.006  22.512
 2461TIP3    H131578   6.477   3.979  22.233
 2461TIP3    H231579   6.482   4.102  22.482
 2462TIP3   OH231580   6.711   5.599  21.486
 2462TIP3    H131581   6.803   5.589  21.567
 2462TIP3    H231582   6.701   5.524  21.297
 2463TIP3   OH231583   5.926   3.922  25.944
 2463TIP3    H131584   5.872   3.842  25.965
 2463TIP3    H231585   6.004   3.899  26.109
 2464TIP3   OH231586   6.119   3.851  26.496
 2464TIP3    H131587   6.212   3.830  26.424
 2464TIP3    H231588   6.090   3.761  26.577
 2465TIP3   OH231589   6.992   3.788  26.541
 2465TIP3    H131590   6.988   3.734  26.787
 2465TIP3    H231591   7.076   3.753  26.427
 2466TIP3   OH231592   7.285   5.335  25.998
 2466TIP3    H131593   7.228   5.352  25.761
 2466TIP3    H231594   7.299   5.426  26.094
 2467TIP3   OH231595   7.544   4.437  22.533
 2467TIP3    H131596   7.535   4.518  22.692
 2467TIP3    H231597   7.539   4.476  22.266
 2468TIP3   OH231598   7.590   4.901  25.059
 2468TIP3    H131599   7.541   4.892  24.804
 2468TIP3    H231600   7.597   4.809  25.158
 2469TIP3   OH231601   7.550   5.197  24.114
 2469TIP3    H131602   7.646   5.203  24.039
 2469TIP3    H231603   7.537   5.286  24.228
 2470TIP3   OH231604   7.519   4.134  23.262
 2470TIP3    H131605   7.615   4.158  23.286
 2470TIP3    H231606   7.506   4.147  22.980
 2471TIP3   OH231607   7.598   4.654  25.368
 2471TIP3    H131608   7.582   4.594  25.599
 2471TIP3    H231609   7.518   4.635  25.212
 2472TIP3   OH231610   7.649   4.842  26.277
 2472TIP3    H131611   7.593   4.771  26.391
 2472TIP3    H231612   7.584   4.892  26.115
 2473TIP3   OH231613   7.494   5.626  22.995
 2473TIP3    H131614   7.413   5.605  22.830
 2473TIP3    H231615   7.505   5.539  23.136
 2474TIP3   OH231616   7.544   5.407  23.430
 2474TIP3    H131617   7.549   5.312  23.484
 2474TIP3    H231618   7.634   5.436  23.514
 2475TIP3   OH231619   7.629   4.674  24.261
 2475TIP3    H131620   7.604   4.708  24.003
 2475TIP3    H231621   7.706   4.732  24.318
 2476TIP3   OH231622   7.550   4.263  26.088
 2476TIP3    H131623   7.647   4.266  26.040
 2476TIP3    H231624   7.536   4.168  26.145
 2477TIP3   OH231625   7.523   4.382  24.189
 2477TIP3    H131626   7.619   4.370  24.135
 2477TIP3    H231627   7.525   4.478  24.246
 2478TIP3   OH231628   7.519   4.061  22.278
 2478TIP3    H131629   7.425   4.063  22.362
 2478TIP3    H231630   7.528   3.972  22.164
 2479TIP3   OH231631   7.482   3.865  24.780
 2479TIP3    H131632   7.469   3.877  25.068
 2479TIP3    H231633   7.452   3.952  24.675
 2480TIP3   OH231634   1.219   6.684  22.968
 2480TIP3    H131635   1.214   6.764  22.800
 2480TIP3    H231636   1.142   6.636  22.872
 2481TIP3   OH231637   1.097   6.549  24.012
 2481TIP3    H131638   1.107   6.509  24.285
 2481TIP3    H231639   1.030   6.490  23.895
 2482TIP3   OH231640   0.333   6.531  24.495
 2482TIP3    H131641   0.321   6.455  24.675
 2482TIP3    H231642   0.408   6.574  24.624
 2483TIP3   OH231643   0.359   6.997  23.943
 2483TIP3    H131644   0.346   6.902  23.877
 2483TIP3    H231645   0.454   6.991  23.991
 2484TIP3   OH231646   0.164   6.373  22.668
 2484TIP3    H131647   0.085   6.424  22.728
 2484TIP3    H231648   0.134   6.285  22.752
 2485TIP3   OH231649   0.119   6.557  23.517
 2485TIP3    H131650   0.177   6.478  23.472
 2485TIP3    H231651   0.166   6.627  23.376
 2486TIP3   OH231652   0.914   6.807  24.318
 2486TIP3    H131653   0.959   6.755  24.111
 2486TIP3    H231654   0.994   6.841  24.459
 2487TIP3   OH231655   1.790   5.957  24.357
 2487TIP3    H131656   1.797   6.027  24.561
 2487TIP3    H231657   1.860   5.985  24.171
 2488TIP3   OH231658   1.295   6.270  24.351
 2488TIP3    H131659   1.299   6.175  24.417
 2488TIP3    H231660   1.290   6.263  24.057
 2489TIP3   OH231661   1.337   6.085  23.028
 2489TIP3    H131662   1.389   6.064  23.268
 2489TIP3    H231663   1.402   6.138  22.881
 2490TIP3   OH231664   0.257   6.330  23.547
 2490TIP3    H131665   0.301   6.277  23.751
 2490TIP3    H231666   0.200   6.259  23.427
 2491TIP3   OH231667   0.679   6.493  23.496
 2491TIP3    H131668   0.758   6.462  23.634
 2491TIP3    H231669   0.675   6.433  23.265
 2492TIP3   OH231670   1.794   6.118  25.065
 2492TIP3    H131671   1.746   6.194  24.933
 2492TIP3    H231672   1.816   6.160  25.317
 2493TIP3   OH231673   0.458   5.953  24.654
 2493TIP3    H131674   0.438   6.022  24.459
 2493TIP3    H231675   0.410   5.989  24.885
 2494TIP3   OH231676   0.707   6.743  24.768
 2494TIP3    H131677   0.650   6.821  24.816
 2494TIP3    H231678   0.777   6.782  24.594
 2495TIP3   OH231679   1.509   6.073  23.646
 2495TIP3    H131680   1.507   5.981  23.736
 2495TIP3    H231681   1.596   6.106  23.739
 2496TIP3   OH231682   0.414   6.164  24.081
 2496TIP3    H131683   0.462   6.230  24.249
 2496TIP3    H231684   0.482   6.146  23.883
 2497TIP3   OH231685   0.568   6.963  24.957
 2497TIP3    H131686   0.555   7.056  24.879
 2497TIP3    H231687   0.480   6.944  25.068
 2498TIP3   OH231688   0.090   6.897  22.122
 2498TIP3    H131689   0.111   6.919  21.840
 2498TIP3    H231690   0.138   6.966  22.266
 2499TIP3   OH231691   1.512   7.091  24.387
 2499TIP3    H131692   1.418   7.106  24.438
 2499TIP3    H231693   1.536   7.165  24.213
 2500TIP3   OH231694   1.508   5.893  24.624
 2500TIP3    H131695   1.439   5.953  24.519
 2500TIP3    H231696   1.582   5.906  24.438
 2501TIP3   OH231697   0.801   5.715  23.859
 2501TIP3    H131698   0.781   5.626  23.760
 2501TIP3    H231699   0.764   5.711  24.126
 2502TIP3   OH231700   1.620   6.895  25.383
 2502TIP3    H131701   1.630   6.819  25.200
 2502TIP3    H231702   1.641   6.968  25.200
 2503TIP3   OH231703   1.088   6.599  22.221
 2503TIP3    H131704   1.029   6.672  22.128
 2503TIP3    H231705   1.163   6.599  22.029
 2504TIP3   OH231706   1.821   6.545  24.753
 2504TIP3    H131707   1.760   6.621  24.765
 2504TIP3    H231708   1.883   6.578  24.546
 2505TIP3   OH231709   1.439   6.594  22.560
 2505TIP3    H131710   1.366   6.639  22.707
 2505TIP3    H231711   1.498   6.564  22.773
 2506TIP3   OH231712   1.429   6.446  25.287
 2506TIP3    H131713   1.394   6.531  25.371
 2506TIP3    H231714   1.373   6.430  25.053
 2507TIP3   OH231715   0.596   6.712  23.094
 2507TIP3    H131716   0.541   6.666  22.890
 2507TIP3    H231717   0.631   6.634  23.238
 2508TIP3   OH231718   0.721   6.988  23.958
 2508TIP3    H131719   0.741   6.990  23.673
 2508TIP3    H231720   0.795   6.937  24.072
 2509TIP3   OH231721   0.630   6.539  24.300
 2509TIP3    H131722   0.654   6.566  24.030
 2509TIP3    H231723   0.657   6.617  24.459
 2510TIP3   OH231724   0.706   6.970  25.665
 2510TIP3    H131725   0.632   7.021  25.785
 2510TIP3    H231726   0.676   6.966  25.380
 2511TIP3   OH231727   1.320   6.541  21.873
 2511TIP3    H131728   1.346   6.515  22.146
 2511TIP3    H231729   1.377   6.618  21.849
 2512TIP3   OH231730   0.438   6.608  25.335
 2512TIP3    H131731   0.427   6.680  25.527
 2512TIP3    H231732   0.349   6.566  25.347
 2513TIP3   OH231733   0.524   7.170  25.899
 2513TIP3    H131734   0.515   7.178  25.608
 2513TIP3    H231735   0.430   7.159  25.974
 2514TIP3   OH231736   1.666   5.701  22.035
 2514TIP3    H131737   1.573   5.722  22.101
 2514TIP3    H231738   1.694   5.775  21.861
 2515TIP3   OH231739   0.461   6.561  22.536
 2515TIP3    H131740   0.409   6.627  22.383
 2515TIP3    H231741   0.424   6.479  22.434
 2516TIP3   OH231742   0.157   6.793  25.170
 2516TIP3    H131743   0.061   6.784  25.116
 2516TIP3    H231744   0.189   6.701  25.140
 2517TIP3   OH231745   0.129   7.119  23.958
 2517TIP3    H131746   0.209   7.060  23.961
 2517TIP3    H231747   0.139   7.161  24.219
 2518TIP3   OH231748   1.862   7.158  25.869
 2518TIP3    H131749   1.851   7.061  25.902
 2518TIP3    H231750   1.771   7.186  25.950
 2519TIP3   OH231751   0.956   7.094  25.425
 2519TIP3    H131752   0.968   7.171  25.599
 2519TIP3    H231753   0.874   7.053  25.524
 2520TIP3   OH231754   0.998   7.576  22.368
 2520TIP3    H131755   1.024   7.518  22.155
 2520TIP3    H231756   1.053   7.655  22.320
 2521TIP3   OH231757   0.395   7.342  22.974
 2521TIP3    H131758   0.412   7.335  23.265
 2521TIP3    H231759   0.308   7.297  22.956
 2522TIP3   OH231760   1.576   6.297  25.917
 2522TIP3    H131761   1.518   6.334  25.707
 2522TIP3    H231762   1.571   6.203  25.851
 2523TIP3   OH231763   0.316   6.990  25.320
 2523TIP3    H131764   0.308   6.967  25.602
 2523TIP3    H231765   0.249   6.926  25.221
 2524TIP3   OH231766   1.061   5.751  25.092
 2524TIP3    H131767   1.098   5.702  25.323
 2524TIP3    H231768   0.965   5.748  25.143
 2525TIP3   OH231769   1.345   6.165  25.521
 2525TIP3    H131770   1.289   6.108  25.704
 2525TIP3    H231771   1.293   6.247  25.530
 2526TIP3   OH231772   0.592   6.289  24.513
 2526TIP3    H131773   0.519   6.300  24.705
 2526TIP3    H231774   0.611   6.383  24.447
 2527TIP3   OH231775   1.110   6.379  22.674
 2527TIP3    H131776   1.106   6.461  22.512
 2527TIP3    H231777   1.193   6.339  22.566
 2528TIP3   OH231778   1.029   6.369  26.076
 2528TIP3    H131779   0.989   6.285  26.175
 2528TIP3    H231780   1.107   6.377  26.244
 2529TIP3   OH231781   1.259   6.310  23.523
 2529TIP3    H131782   1.235   6.392  23.385
 2529TIP3    H231783   1.276   6.250  23.298
 2530TIP3   OH231784   0.363   6.291  24.924
 2530TIP3    H131785   0.399   6.341  25.146
 2530TIP3    H231786   0.321   6.214  25.056
 2531TIP3   OH231787   0.124   6.124  23.325
 2531TIP3    H131788   0.155   6.047  23.484
 2531TIP3    H231789   0.128   6.089  23.049
 2532TIP3   OH231790   0.099   6.197  21.780
 2532TIP3    H131791   0.183   6.225  21.666
 2532TIP3    H231792   0.124   6.167  22.047
 2533TIP3   OH231793   1.146   6.446  24.759
 2533TIP3    H131794   1.211   6.384  24.639
 2533TIP3    H231795   1.099   6.390  24.957
 2534TIP3   OH231796   0.652   6.238  22.383
 2534TIP3    H131797   0.741   6.211  22.302
 2534TIP3    H231798   0.614   6.263  22.122
 2535TIP3   OH231799   1.277   5.988  24.234
 2535TIP3    H131800   1.208   5.960  24.420
 2535TIP3    H231801   1.255   5.935  23.997
 2536TIP3   OH231802   0.606   6.291  21.570
 2536TIP3    H131803   0.521   6.309  21.444
 2536TIP3    H231804   0.667   6.343  21.405
 2537TIP3   OH231805   1.546   7.549  26.163
 2537TIP3    H131806   1.567   7.573  25.890
 2537TIP3    H231807   1.637   7.560  26.283
 2538TIP3   OH231808   0.383   6.785  26.010
 2538TIP3    H131809   0.466   6.799  26.157
 2538TIP3    H231810   0.318   6.814  26.214
 2539TIP3   OH231811   0.963   6.326  23.754
 2539TIP3    H131812   1.052   6.302  23.661
 2539TIP3    H231813   0.959   6.278  24.006
 2540TIP3   OH231814   0.827   6.158  24.612
 2540TIP3    H131815   0.756   6.221  24.666
 2540TIP3    H231816   0.903   6.199  24.747
 2541TIP3   OH231817   0.883   6.778  22.110
 2541TIP3    H131818   0.795   6.744  22.050
 2541TIP3    H231819   0.869   6.830  22.356
 2542TIP3   OH231820   1.631   6.749  24.735
 2542TIP3    H131821   1.673   6.789  24.495
 2542TIP3    H231822   1.542   6.729  24.627
 2543TIP3   OH231823   1.026   6.833  25.452
 2543TIP3    H131824   1.018   6.790  25.710
 2543TIP3    H231825   1.018   6.928  25.515
 2544TIP3   OH231826   1.322   6.303  22.230
 2544TIP3    H131827   1.410   6.262  22.257
 2544TIP3    H231828   1.324   6.338  21.957
 2545TIP3   OH231829   0.440   6.751  23.781
 2545TIP3    H131830   0.495   6.754  23.535
 2545TIP3    H231831   0.455   6.662  23.883
 2546TIP3   OH231832   0.182   6.520  25.323
 2546TIP3    H131833   0.179   6.502  25.611
 2546TIP3    H231834   0.086   6.526  25.257
 2547TIP3   OH231835   0.813   6.531  26.001
 2547TIP3    H131836   0.766   6.470  25.827
 2547TIP3    H231837   0.901   6.486  26.013
 2548TIP3   OH231838   1.288   7.056  25.491
 2548TIP3    H131839   1.222   7.085  25.299
 2548TIP3    H231840   1.258   7.100  25.737
 2549TIP3   OH231841   1.787   6.289  22.158
 2549TIP3    H131842   1.766   6.270  21.879
 2549TIP3    H231843   1.809   6.384  22.146
 2550TIP3   OH231844   1.846   6.877  25.794
 2550TIP3    H131845   1.750   6.888  25.731
 2550TIP3    H231846   1.882   6.874  25.521
 2551TIP3   OH231847   1.707   7.126  22.005
 2551TIP3    H131848   1.645   7.059  22.104
 2551TIP3    H231849   1.664   7.149  21.750
 2552TIP3   OH231850   1.418   6.618  24.321
 2552TIP3    H131851   1.325   6.604  24.249
 2552TIP3    H231852   1.461   6.553  24.144
 2553TIP3   OH231853   0.641   7.079  23.013
 2553TIP3    H131854   0.655   7.163  22.863
 2553TIP3    H231855   0.545   7.070  23.001
 2554TIP3   OH231856   0.186   6.544  21.342
 2554TIP3    H131857   0.270   6.593  21.372
 2554TIP3    H231858   0.157   6.531  21.615
 2555TIP3   OH231859   0.814   6.860  22.899
 2555TIP3    H131860   0.747   6.931  22.920
 2555TIP3    H231861   0.759   6.781  22.926
 2556TIP3   OH231862   0.834   7.257  24.900
 2556TIP3    H131863   0.874   7.346  24.915
 2556TIP3    H231864   0.897   7.202  25.056
 2557TIP3   OH231865   0.639   7.328  22.683
 2557TIP3    H131866   0.548   7.345  22.785
 2557TIP3    H231867   0.688   7.388  22.860
 2558TIP3   OH231868   1.147   6.856  24.714
 2558TIP3    H131869   1.116   6.847  24.996
 2558TIP3    H231870   1.204   6.778  24.684
 2559TIP3   OH231871   1.450   7.315  25.452
 2559TIP3    H131872   1.372   7.263  25.365
 2559TIP3    H231873   1.462   7.383  25.242
 2560TIP3   OH231874   0.278   6.055  25.248
 2560TIP3    H131875   0.239   6.094  25.491
 2560TIP3    H231876   0.251   5.962  25.272
 2561TIP3   OH231877   0.241   7.206  24.792
 2561TIP3    H131878   0.301   7.136  24.888
 2561TIP3    H231879   0.242   7.265  25.017
 2562TIP3   OH231880   0.747   7.076  21.759
 2562TIP3    H131881   0.791   6.992  21.687
 2562TIP3    H231882   0.787   7.092  22.020
 2563TIP3   OH231883   0.319   6.718  21.972
 2563TIP3    H131884   0.244   6.781  21.978
 2563TIP3    H231885   0.382   6.764  21.798
 2564TIP3   OH231886   1.135   6.015  25.044
 2564TIP3    H131887   1.227   6.029  25.131
 2564TIP3    H231888   1.117   5.920  25.101
 2565TIP3   OH231889   1.179   5.980  22.428
 2565TIP3    H131890   1.201   6.006  22.158
 2565TIP3    H231891   1.248   6.020  22.599
 2566TIP3   OH231892   0.969   6.152  22.779
 2566TIP3    H131893   1.017   6.225  22.647
 2566TIP3    H231894   0.923   6.199  22.986
 2567TIP3   OH231895   1.050   6.260  25.284
 2567TIP3    H131896   1.061   6.280  25.569
 2567TIP3    H231897   1.068   6.162  25.272
 2568TIP3   OH231898   1.035   5.828  22.899
 2568TIP3    H131899   0.984   5.899  23.025
 2568TIP3    H231900   1.101   5.886  22.755
 2569TIP3   OH231901   1.590   6.027  25.566
 2569TIP3    H131902   1.497   6.053  25.515
 2569TIP3    H231903   1.636   6.060  25.326
 2570TIP3   OH231904   1.502   6.417  23.760
 2570TIP3    H131905   1.426   6.357  23.733
 2570TIP3    H231906   1.567   6.363  23.904
 2571TIP3   OH231907   0.251   6.292  21.054
 2571TIP3    H131908   0.260   6.387  21.120
 2571TIP3    H231909   0.155   6.286  21.042
 2572TIP3   OH231910   1.580   7.368  24.285
 2572TIP3    H131911   1.587   7.427  24.048
 2572TIP3    H231912   1.670   7.334  24.288
 2573TIP3   OH231913   0.212   7.097  22.587
 2573TIP3    H131914   0.128   7.132  22.677
 2573TIP3    H231915   0.236   7.168  22.395
 2574TIP3   OH231916   0.125   7.427  26.049
 2574TIP3    H131917   0.215   7.447  26.139
 2574TIP3    H231918   0.113   7.341  26.172
 2575TIP3   OH231919   0.658   7.273  26.601
 2575TIP3    H131920   0.740   7.227  26.532
 2575TIP3    H231921   0.607   7.259  26.358
 2576TIP3   OH231922   1.241   7.158  26.250
 2576TIP3    H131923   1.201   7.070  26.307
 2576TIP3    H231924   1.320   7.153  26.418
 2577TIP3   OH231925   0.186   6.835  26.541
 2577TIP3    H131926   0.188   6.741  26.472
 2577TIP3    H231927   0.095   6.851  26.445
 2578TIP3   OH231928   0.801   6.789  26.172
 2578TIP3    H131929   0.775   6.839  25.929
 2578TIP3    H231930   0.797   6.694  26.088
 2579TIP3   OH231931   1.087   6.965  21.006
 2579TIP3    H131932   1.109   6.992  21.279
 2579TIP3    H231933   1.026   6.893  21.063
 2580TIP3   OH231934   1.361   6.768  25.488
 2580TIP3    H131935   1.449   6.811  25.479
 2580TIP3    H231936   1.306   6.849  25.500
 2581TIP3   OH231937   0.229   6.499  26.325
 2581TIP3    H131938   0.298   6.430  26.301
 2581TIP3    H231939   0.241   6.530  26.601
 2582TIP3   OH231940   0.623   6.401  25.335
 2582TIP3    H131941   0.568   6.480  25.395
 2582TIP3    H231942   0.699   6.443  25.197
 2583TIP3   OH231943   0.785   6.446  21.180
 2583TIP3    H131944   0.798   6.540  21.120
 2583TIP3    H231945   0.853   6.427  21.378
 2584TIP3   OH231946   1.157   6.668  26.454
 2584TIP3    H131947   1.235   6.619  26.364
 2584TIP3    H231948   1.117   6.601  26.637
 2585TIP3   OH231949   0.670   6.163  25.692
 2585TIP3    H131950   0.676   6.098  25.476
 2585TIP3    H231951   0.666   6.248  25.545
 2586TIP3   OH231952   0.695   5.966  25.014
 2586TIP3    H131953   0.744   6.023  24.822
 2586TIP3    H231954   0.609   5.952  24.876
 2587TIP3   OH231955   0.840   6.542  25.041
 2587TIP3    H131956   0.919   6.589  24.945
 2587TIP3    H231957   0.775   6.612  24.975
 2588TIP3   OH231958   1.271   6.302  26.568
 2588TIP3    H131959   1.300   6.212  26.511
 2588TIP3    H231960   1.353   6.348  26.634
 2589TIP3   OH231961   1.437   6.618  26.121
 2589TIP3    H131962   1.393   6.669  25.905
 2589TIP3    H231963   1.527   6.611  26.010
 2590TIP3   OH231964   0.436   6.304  26.187
 2590TIP3    H131965   0.391   6.221  26.265
 2590TIP3    H231966   0.510   6.268  26.034
 2591TIP3   OH231967   0.790   5.721  25.092
 2591TIP3    H131968   0.764   5.816  25.077
 2591TIP3    H231969   0.715   5.680  24.957
 2592TIP3   OH231970   0.897   6.140  26.277
 2592TIP3    H131971   0.844   6.117  26.514
 2592TIP3    H231972   0.828   6.138  26.070
 2593TIP3   OH231973   1.170   6.065  26.025
 2593TIP3    H131974   1.074   6.066  26.076
 2593TIP3    H231975   1.201   6.013  26.256
 2594TIP3   OH231976   1.326   5.933  26.562
 2594TIP3    H131977   1.324   5.835  26.547
 2594TIP3    H231978   1.312   5.948  26.850
 2595TIP3   OH231979   0.313   6.056  26.370
 2595TIP3    H131980   0.335   5.973  26.238
 2595TIP3    H231981   0.274   6.020  26.622
 2596TIP3   OH231982   0.780   5.697  25.947
 2596TIP3    H131983   0.860   5.640  25.971
 2596TIP3    H231984   0.773   5.697  25.653
 2597TIP3   OH231985   0.785   5.815  26.682
 2597TIP3    H131986   0.785   5.770  26.418
 2597TIP3    H231987   0.739   5.899  26.631
 2598TIP3   OH231988   0.169   6.962  21.345
 2598TIP3    H131989   0.234   7.027  21.237
 2598TIP3    H231990   0.152   6.903  21.120
 2599TIP3   OH231991   0.047   7.492  22.638
 2599TIP3    H131992  -0.043   7.521  22.716
 2599TIP3    H231993   0.052   7.411  22.797
 2600TIP3   OH231994   0.164   7.309  23.400
 2600TIP3    H131995   0.145   7.216  23.475
 2600TIP3    H231996   0.187   7.346  23.661
 2601TIP3   OH231997   1.876   7.420  24.207
 2601TIP3    H131998   1.897   7.453  24.480
 2601TIP3    H231999   1.897   7.497  24.042
 2602TIP3   OH232000   1.807   7.347  25.278
 2602TIP3    H132001   1.785   7.279  25.077
 2602TIP3    H232002   1.847   7.288  25.479
 2603TIP3   OH232003   1.664   6.955  26.580
 2603TIP3    H132004   1.579   6.947  26.721
 2603TIP3    H232005   1.698   7.039  26.685
 2604TIP3   OH232006   1.797   6.763  22.206
 2604TIP3    H132007   1.883   6.808  22.254
 2604TIP3    H232008   1.798   6.695  22.413
 2605TIP3   OH232009   1.817   6.587  22.827
 2605TIP3    H132010   1.742   6.525  22.875
 2605TIP3    H232011   1.849   6.603  23.097
 2606TIP3   OH232012   1.777   6.846  24.162
 2606TIP3    H132013   1.849   6.780  24.141
 2606TIP3    H232014   1.828   6.928  24.129
 2607TIP3   OH232015   1.670   7.131  24.993
 2607TIP3    H132016   1.604   7.175  25.164
 2607TIP3    H232017   1.616   7.101  24.765
 2608TIP3   OH232018   1.722   6.291  21.288
 2608TIP3    H132019   1.707   6.350  21.063
 2608TIP3    H232020   1.642   6.235  21.282
 2609TIP3   OH232021   1.618   6.427  23.010
 2609TIP3    H132022   1.599   6.334  22.929
 2609TIP3    H232023   1.585   6.431  23.286
 2610TIP3   OH232024   0.166   6.717  24.147
 2610TIP3    H132025   0.159   6.650  23.934
 2610TIP3    H232026   0.250   6.690  24.273
 2611TIP3   OH232027   1.721   6.626  25.872
 2611TIP3    H132028   1.764   6.539  25.917
 2611TIP3    H232029   1.794   6.684  25.788
 2612TIP3   OH232030   1.825   6.374  25.950
 2612TIP3    H132031   1.730   6.347  25.941
 2612TIP3    H232032   1.870   6.289  25.995
 2613TIP3   OH232033   1.563   6.201  22.593
 2613TIP3    H132034   1.579   6.103  22.599
 2613TIP3    H232035   1.641   6.226  22.437
 2614TIP3   OH232036   1.679   6.248  24.162
 2614TIP3    H132037   1.778   6.262  24.180
 2614TIP3    H232038   1.656   6.270  24.438
 2615TIP3   OH232039   1.651   6.334  24.909
 2615TIP3    H132040   1.566   6.373  24.993
 2615TIP3    H232041   1.703   6.416  24.861
 2616TIP3   OH232042   0.125   6.129  25.869
 2616TIP3    H132043   0.196   6.138  26.073
 2616TIP3    H232044   0.116   6.033  25.863
 2617TIP3   OH232045   1.894   5.751  26.613
 2617TIP3    H132046   1.936   5.676  26.481
 2617TIP3    H232047   1.880   5.818  26.400
 2618TIP3   OH232048   1.641   5.948  22.638
 2618TIP3    H132049   1.668   5.891  22.863
 2618TIP3    H232050   1.581   5.890  22.491
 2619TIP3   OH232051   0.207   5.974  23.964
 2619TIP3    H132052   0.228   5.903  24.150
 2619TIP3    H232053   0.210   6.056  24.123
 2620TIP3   OH232054   0.087   6.304  24.162
 2620TIP3    H132055   0.132   6.335  23.919
 2620TIP3    H232056   0.111   6.373  24.348
 2621TIP3   OH232057   1.818   5.917  26.031
 2621TIP3    H132058   1.750   5.957  26.211
 2621TIP3    H232059   1.773   5.941  25.782
 2622TIP3   OH232060   1.813   5.911  21.654
 2622TIP3    H132061   1.804   5.854  21.417
 2622TIP3    H232062   1.893   5.961  21.585
 2623TIP3   OH232063   0.132   6.002  22.614
 2623TIP3    H132064   0.045   5.959  22.632
 2623TIP3    H232065   0.187   5.928  22.521
 2624TIP3   OH232066   1.531   7.404  23.016
 2624TIP3    H132067   1.609   7.381  22.848
 2624TIP3    H232068   1.570   7.453  23.235
 2625TIP3   OH232069   0.069   5.769  24.972
 2625TIP3    H132070  -0.019   5.750  25.083
 2625TIP3    H232071   0.044   5.821  24.738
 2626TIP3   OH232072   0.267   7.117  26.136
 2626TIP3    H132073   0.179   7.122  26.022
 2626TIP3    H232074   0.250   7.106  26.421
 2627TIP3   OH232075   0.577   7.224  25.131
 2627TIP3    H132076   0.564   7.315  25.029
 2627TIP3    H232077   0.674   7.220  25.113
 2628TIP3   OH232078   0.998   7.315  25.911
 2628TIP3    H132079   0.999   7.307  26.205
 2628TIP3    H232080   1.075   7.374  25.863
 2629TIP3   OH232081   1.244   7.506  25.722
 2629TIP3    H132082   1.326   7.455  25.671
 2629TIP3    H232083   1.250   7.510  26.016
 2630TIP3   OH232084   1.690   5.729  25.485
 2630TIP3    H132085   1.635   5.791  25.332
 2630TIP3    H232086   1.656   5.644  25.386
 2631TIP3   OH232087   0.312   7.577  25.074
 2631TIP3    H132088   0.241   7.589  24.876
 2631TIP3    H232089   0.261   7.550  25.305
 2632TIP3   OH232090   0.533   7.465  24.801
 2632TIP3    H132091   0.451   7.498  24.927
 2632TIP3    H232092   0.532   7.519  24.558
 2633TIP3   OH232093   1.026   7.483  24.450
 2633TIP3    H132094   0.937   7.493  24.333
 2633TIP3    H232095   1.029   7.560  24.633
 2634TIP3   OH232096   1.229   7.341  24.771
 2634TIP3    H132097   1.155   7.395  24.663
 2634TIP3    H232098   1.295   7.409  24.831
 2635TIP3   OH232099   1.457   7.526  24.882
 2635TIP3    H132100   1.445   7.623  24.876
 2635TIP3    H232101   1.500   7.506  24.624
 2636TIP3   OH232102   0.267   7.359  24.153
 2636TIP3    H132103   0.266   7.309  24.405
 2636TIP3    H232104   0.344   7.320  24.012
 2637TIP3   OH232105   0.481   7.281  23.712
 2637TIP3    H132106   0.479   7.184  23.721
 2637TIP3    H232107   0.569   7.295  23.841
 2638TIP3   OH232108   0.708   7.264  24.144
 2638TIP3    H132109   0.731   7.169  24.114
 2638TIP3    H232110   0.741   7.283  24.414
 2639TIP3   OH232111   1.078   5.845  23.790
 2639TIP3    H132112   0.983   5.857  23.751
 2639TIP3    H232113   1.101   5.799  23.544
 2640TIP3   OH232114   1.591   5.676  23.721
 2640TIP3    H132115   1.651   5.740  23.586
 2640TIP3    H232116   1.503   5.700  23.607
 2641TIP3   OH232117   1.756   5.818  23.268
 2641TIP3    H132118   1.819   5.759  23.124
 2641TIP3    H232119   1.811   5.900  23.292
 2642TIP3   OH232120   1.336   5.732  23.478
 2642TIP3    H132121   1.314   5.737  23.196
 2642TIP3    H232122   1.285   5.653  23.559
 2643TIP3   OH232123   1.395   5.746  22.170
 2643TIP3    H132124   1.352   5.754  21.903
 2643TIP3    H232125   1.369   5.656  22.257
 2644TIP3   OH232126   0.205   7.306  22.107
 2644TIP3    H132127   0.114   7.307  22.014
 2644TIP3    H232128   0.239   7.386  21.975
 2645TIP3   OH232129   0.891   5.945  22.116
 2645TIP3    H132130   0.947   5.894  22.293
 2645TIP3    H232131   0.937   6.029  22.098
 2646TIP3   OH232132   1.720   7.352  22.476
 2646TIP3    H132133   1.719   7.264  22.341
 2646TIP3    H232134   1.720   7.412  22.242
 2647TIP3   OH232135   0.260   5.782  25.965
 2647TIP3    H132136   0.216   5.694  25.992
 2647TIP3    H232137   0.347   5.763  26.085
 2648TIP3   OH232138   0.490   5.724  26.514
 2648TIP3    H132139   0.584   5.719  26.436
 2648TIP3    H232140   0.475   5.631  26.574
 2649TIP3   OH232141   1.318   5.664  26.493
 2649TIP3    H132142   1.322   5.602  26.721
 2649TIP3    H232143   1.409   5.654  26.394
 2650TIP3   OH232144   1.621   7.253  26.082
 2650TIP3    H132145   1.545   7.259  25.899
 2650TIP3    H232146   1.646   7.346  26.109
 2651TIP3   OH232147   3.109   6.655  23.028
 2651TIP3    H132148   3.095   6.746  23.118
 2651TIP3    H232149   3.033   6.645  22.851
 2652TIP3   OH232150   2.994   6.560  24.084
 2652TIP3    H132151   2.992   6.500  24.318
 2652TIP3    H232152   2.924   6.520  23.919
 2653TIP3   OH232153   2.187   6.545  24.540
 2653TIP3    H132154   2.210   6.468  24.699
 2653TIP3    H232155   2.264   6.603  24.576
 2654TIP3   OH232156   3.321   6.848  23.619
 2654TIP3    H132157   3.306   6.775  23.811
 2654TIP3    H232158   3.321   6.926  23.790
 2655TIP3   OH232159   2.307   7.000  24.021
 2655TIP3    H132160   2.278   6.913  23.910
 2655TIP3    H232161   2.403   6.984  24.003
 2656TIP3   OH232162   1.980   6.338  22.689
 2656TIP3    H132163   1.944   6.428  22.716
 2656TIP3    H232164   1.899   6.289  22.623
 2657TIP3   OH232165   2.039   6.573  23.508
 2657TIP3    H132166   2.080   6.484  23.559
 2657TIP3    H232167   2.093   6.609  23.295
 2658TIP3   OH232168   3.039   7.371  23.556
 2658TIP3    H132169   3.119   7.329  23.433
 2658TIP3    H232170   3.011   7.298  23.727
 2659TIP3   OH232171   2.806   6.836  24.252
 2659TIP3    H132172   2.836   6.770  24.063
 2659TIP3    H232173   2.888   6.847  24.411
 2660TIP3   OH232174   3.663   5.969  24.477
 2660TIP3    H132175   3.679   6.032  24.696
 2660TIP3    H232176   3.733   6.000  24.297
 2661TIP3   OH232177   3.177   6.264  24.381
 2661TIP3    H132178   3.126   6.203  24.552
 2661TIP3    H232179   3.134   6.248  24.120
 2662TIP3   OH232180   2.463   6.046  23.385
 2662TIP3    H132181   2.472   6.132  23.247
 2662TIP3    H232182   2.407   5.996  23.199
 2663TIP3   OH232183   2.116   6.332  23.706
 2663TIP3    H132184   2.175   6.282  23.883
 2663TIP3    H232185   2.139   6.289  23.448
 2664TIP3   OH232186   2.600   6.480  23.550
 2664TIP3    H132187   2.687   6.440  23.595
 2664TIP3    H232188   2.548   6.400  23.475
 2665TIP3   OH232189   3.694   6.129  25.095
 2665TIP3    H132190   3.655   6.211  24.984
 2665TIP3    H232191   3.717   6.159  25.362
 2666TIP3   OH232192   2.359   5.972  24.663
 2666TIP3    H132193   2.314   6.015  24.438
 2666TIP3    H232194   2.296   5.989  24.882
 2667TIP3   OH232195   3.036   6.923  22.755
 2667TIP3    H132196   3.088   6.919  22.512
 2667TIP3    H232197   3.002   7.014  22.755
 2668TIP3   OH232198   2.580   6.736  24.594
 2668TIP3    H132199   2.529   6.810  24.714
 2668TIP3    H232200   2.651   6.784  24.450
 2669TIP3   OH232201   2.298   6.162  24.048
 2669TIP3    H132202   2.363   6.220  24.192
 2669TIP3    H232203   2.353   6.138  23.814
 2670TIP3   OH232204   2.442   6.951  24.945
 2670TIP3    H132205   2.427   7.043  24.867
 2670TIP3    H232206   2.356   6.929  25.074
 2671TIP3   OH232207   2.021   6.907  22.206
 2671TIP3    H132208   1.970   6.976  22.074
 2671TIP3    H232209   2.049   6.955  22.449
 2672TIP3   OH232210   3.405   7.104  24.336
 2672TIP3    H132211   3.309   7.093  24.372
 2672TIP3    H232212   3.405   7.179  24.156
 2673TIP3   OH232213   3.395   5.901  24.609
 2673TIP3    H132214   3.367   5.993  24.654
 2673TIP3    H232215   3.487   5.912  24.513
 2674TIP3   OH232216   2.687   5.719  23.814
 2674TIP3    H132217   2.671   5.628  23.889
 2674TIP3    H232218   2.606   5.763  23.922
 2675TIP3   OH232219   3.233   7.244  23.193
 2675TIP3    H132220   3.261   7.163  23.049
 2675TIP3    H232221   3.303   7.305  23.091
 2676TIP3   OH232222   3.340   7.028  22.764
 2676TIP3    H132223   3.333   6.965  22.539
 2676TIP3    H232224   3.345   6.965  22.983
 2677TIP3   OH232225   3.494   6.895  25.368
 2677TIP3    H132226   3.520   6.823  25.185
 2677TIP3    H232227   3.518   6.972  25.200
 2678TIP3   OH232228   2.961   6.602  22.305
 2678TIP3    H132229   2.898   6.666  22.185
 2678TIP3    H232230   3.033   6.600  22.107
 2679TIP3   OH232231   3.704   6.534  24.720
 2679TIP3    H132232   3.644   6.611  24.747
 2679TIP3    H232233   3.763   6.571  24.510
 2680TIP3   OH232234   3.316   6.591  22.578
 2680TIP3    H132235   3.244   6.617  22.767
 2680TIP3    H232236   3.376   6.541  22.758
 2681TIP3   OH232237   3.313   6.440  25.290
 2681TIP3    H132238   3.297   6.529  25.395
 2681TIP3    H232239   3.252   6.440  25.062
 2682TIP3   OH232240   2.460   6.653  23.106
 2682TIP3    H132241   2.430   6.612  22.851
 2682TIP3    H232242   2.521   6.584  23.214
 2683TIP3   OH232243   2.595   6.992  23.919
 2683TIP3    H132244   2.612   7.002  23.631
 2683TIP3    H232245   2.679   6.956  24.024
 2684TIP3   OH232246   2.476   6.530  24.240
 2684TIP3    H132247   2.516   6.531  23.970
 2684TIP3    H232248   2.526   6.603  24.375
 2685TIP3   OH232249   3.137   7.105  24.441
 2685TIP3    H132250   3.097   7.176  24.606
 2685TIP3    H232251   3.099   7.026  24.573
 2686TIP3   OH232252   2.590   6.980  25.668
 2686TIP3    H132253   2.526   7.045  25.779
 2686TIP3    H232254   2.555   6.968  25.398
 2687TIP3   OH232255   3.194   6.537  21.900
 2687TIP3    H132256   3.227   6.545  22.176
 2687TIP3    H232257   3.251   6.603  21.777
 2688TIP3   OH232258   2.299   6.601  25.365
 2688TIP3    H132259   2.296   6.689  25.482
 2688TIP3    H232260   2.245   6.554  25.563
 2689TIP3   OH232261   2.938   7.187  22.740
 2689TIP3    H132262   2.980   7.183  23.001
 2689TIP3    H232263   2.895   7.273  22.755
 2690TIP3   OH232264   2.409   7.174  25.854
 2690TIP3    H132265   2.397   7.182  25.566
 2690TIP3    H232266   2.324   7.132  25.932
 2691TIP3   OH232267   3.582   5.683  21.921
 2691TIP3    H132268   3.486   5.683  22.002
 2691TIP3    H232269   3.586   5.764  21.756
 2692TIP3   OH232270   2.354   6.552  22.425
 2692TIP3    H132271   2.322   6.631  22.278
 2692TIP3    H232272   2.307   6.481  22.287
 2693TIP3   OH232273   1.994   6.822  25.122
 2693TIP3    H132274   1.948   6.814  24.870
 2693TIP3    H232275   2.031   6.731  25.155
 2694TIP3   OH232276   1.974   7.067  24.012
 2694TIP3    H132277   2.069   7.051  24.027
 2694TIP3    H232278   1.965   7.146  24.183
 2695TIP3   OH232279   3.744   7.161  25.890
 2695TIP3    H132280   3.728   7.065  25.884
 2695TIP3    H232281   3.657   7.190  26.004
 2696TIP3   OH232282   2.848   7.093  25.476
 2696TIP3    H132283   2.863   7.182  25.596
 2696TIP3    H232284   2.759   7.070  25.569
 2697TIP3   OH232285   2.939   7.517  22.419
 2697TIP3    H132286   2.941   7.538  22.134
 2697TIP3    H232287   2.893   7.592  22.533
 2698TIP3   OH232288   2.292   7.319  23.034
 2698TIP3    H132289   2.327   7.314  23.310
 2698TIP3    H232290   2.217   7.259  23.061
 2699TIP3   OH232291   3.161   7.370  22.353
 2699TIP3    H132292   3.079   7.411  22.458
 2699TIP3    H232293   3.173   7.289  22.506
 2700TIP3   OH232294   3.469   6.289  25.935
 2700TIP3    H132295   3.416   6.334  25.728
 2700TIP3    H232296   3.461   6.196  25.851
 2701TIP3   OH232297   2.221   6.931  25.374
 2701TIP3    H132298   2.218   6.895  25.647
 2701TIP3    H232299   2.131   6.912  25.275
 2702TIP3   OH232300   2.474   5.810  24.165
 2702TIP3    H132301   2.389   5.806  24.024
 2702TIP3    H232302   2.447   5.862  24.402
 2703TIP3   OH232303   2.962   5.753  25.155
 2703TIP3    H132304   2.992   5.710  25.401
 2703TIP3    H232305   2.865   5.759  25.188
 2704TIP3   OH232306   3.210   6.167  25.371
 2704TIP3    H132307   3.169   6.134  25.623
 2704TIP3    H232308   3.190   6.261  25.380
 2705TIP3   OH232309   2.483   6.280  24.507
 2705TIP3    H132310   2.407   6.281  24.693
 2705TIP3    H232311   2.486   6.375  24.426
 2706TIP3   OH232312   2.452   6.296  23.115
 2706TIP3    H132313   2.358   6.286  23.031
 2706TIP3    H232314   2.499   6.303  22.857
 2707TIP3   OH232315   3.033   6.342  22.629
 2707TIP3    H132316   3.007   6.430  22.533
 2707TIP3    H232317   3.103   6.318  22.437
 2708TIP3   OH232318   2.916   6.378  26.013
 2708TIP3    H132319   2.865   6.305  26.142
 2708TIP3    H232320   2.995   6.378  26.184
 2709TIP3   OH232321   3.122   6.291  23.520
 2709TIP3    H132322   3.128   6.383  23.430
 2709TIP3    H232323   3.109   6.248  23.259
 2710TIP3   OH232324   2.249   6.284  24.906
 2710TIP3    H132325   2.271   6.329  25.158
 2710TIP3    H232326   2.215   6.198  25.002
 2711TIP3   OH232327   1.928   6.023  23.337
 2711TIP3    H132328   2.003   6.027  23.520
 2711TIP3    H232329   1.971   6.031  23.073
 2712TIP3   OH232330   1.993   6.128  21.834
 2712TIP3    H132331   2.078   6.101  21.951
 2712TIP3    H232332   1.951   6.180  22.044
 2713TIP3   OH232333   3.042   6.442  24.786
 2713TIP3    H132334   3.100   6.375  24.666
 2713TIP3    H232335   2.981   6.389  24.957
 2714TIP3   OH232336   2.764   6.075  23.367
 2714TIP3    H132337   2.677   6.039  23.436
 2714TIP3    H232338   2.824   6.001  23.454
 2715TIP3   OH232339   2.187   6.204  23.055
 2715TIP3    H132340   2.131   6.244  22.842
 2715TIP3    H232341   2.219   6.122  22.923
 2716TIP3   OH232342   2.556   6.245  22.353
 2716TIP3    H132343   2.652   6.231  22.365
 2716TIP3    H232344   2.545   6.275  22.074
 2717TIP3   OH232345   2.511   6.281  21.576
 2717TIP3    H132346   2.415   6.296  21.561
 2717TIP3    H232347   2.544   6.360  21.435
 2718TIP3   OH232348   3.437   7.536  26.178
 2718TIP3    H132349   3.450   7.567  25.902
 2718TIP3    H232350   3.529   7.548  26.295
 2719TIP3   OH232351   2.251   6.774  26.070
 2719TIP3    H132352   2.316   6.797  26.280
 2719TIP3    H232353   2.170   6.756  26.229
 2720TIP3   OH232354   2.834   6.331  23.895
 2720TIP3    H132355   2.898   6.292  23.712
 2720TIP3    H232356   2.767   6.260  23.922
 2721TIP3   OH232357   2.292   5.966  22.755
 2721TIP3    H132358   2.249   5.891  22.896
 2721TIP3    H232359   2.353   5.919  22.581
 2722TIP3   OH232360   2.703   6.142  24.657
 2722TIP3    H132361   2.628   6.202  24.600
 2722TIP3    H232362   2.774   6.204  24.717
 2723TIP3   OH232363   2.774   6.795  22.080
 2723TIP3    H132364   2.708   6.729  22.002
 2723TIP3    H232365   2.735   6.825  22.338
 2724TIP3   OH232366   3.528   6.736  24.732
 2724TIP3    H132367   3.574   6.784  24.510
 2724TIP3    H232368   3.439   6.731  24.612
 2725TIP3   OH232369   2.875   6.820  25.449
 2725TIP3    H132370   2.880   6.789  25.725
 2725TIP3    H232371   2.872   6.916  25.485
 2726TIP3   OH232372   3.263   6.245  22.185
 2726TIP3    H132373   3.313   6.172  22.065
 2726TIP3    H232374   3.287   6.325  22.041
 2727TIP3   OH232375   2.297   6.750  23.736
 2727TIP3    H132376   2.352   6.726  23.502
 2727TIP3    H232377   2.310   6.673  23.910
 2728TIP3   OH232378   2.932   6.990  21.834
 2728TIP3    H132379   2.915   7.026  22.098
 2728TIP3    H232380   2.882   6.905  21.858
 2729TIP3   OH232381   1.990   6.565  25.446
 2729TIP3    H132382   1.970   6.507  25.677
 2729TIP3    H232383   1.938   6.525  25.233
 2730TIP3   OH232384   2.674   6.521  25.992
 2730TIP3    H132385   2.627   6.454  25.836
 2730TIP3    H232386   2.766   6.488  25.980
 2731TIP3   OH232387   3.175   7.042  25.533
 2731TIP3    H132388   3.094   7.061  25.380
 2731TIP3    H232389   3.159   7.095  25.773
 2732TIP3   OH232390   3.716   6.325  21.969
 2732TIP3    H132391   3.653   6.302  21.756
 2732TIP3    H232392   3.729   6.420  21.897
 2733TIP3   OH232393   3.729   6.880  25.782
 2733TIP3    H132394   3.637   6.891  25.686
 2733TIP3    H232395   3.779   6.871  25.530
 2734TIP3   OH232396   3.556   7.137  22.149
 2734TIP3    H132397   3.478   7.079  22.143
 2734TIP3    H232398   3.574   7.148  21.864
 2735TIP3   OH232399   3.284   6.657  24.201
 2735TIP3    H132400   3.193   6.628  24.168
 2735TIP3    H232401   3.333   6.586  24.060
 2736TIP3   OH232402   2.518   7.075  23.076
 2736TIP3    H132403   2.557   7.159  22.977
 2736TIP3    H232404   2.427   7.081  22.971
 2737TIP3   OH232405   2.663   6.851  22.839
 2737TIP3    H132406   2.618   6.933  22.920
 2737TIP3    H232407   2.616   6.783  22.998
 2738TIP3   OH232408   2.715   7.252  24.957
 2738TIP3    H132409   2.768   7.331  24.891
 2738TIP3    H232410   2.781   7.198  25.104
 2739TIP3   OH232411   2.560   7.322  22.740
 2739TIP3    H132412   2.467   7.340  22.812
 2739TIP3    H232413   2.606   7.397  22.866
 2740TIP3   OH232414   3.023   6.858  24.729
 2740TIP3    H132415   2.976   6.829  24.975
 2740TIP3    H232416   3.068   6.776  24.648
 2741TIP3   OH232417   3.309   7.019  21.549
 2741TIP3    H132418   3.319   6.936  21.699
 2741TIP3    H232419   3.233   6.996  21.378
 2742TIP3   OH232420   3.327   7.321  25.491
 2742TIP3    H132421   3.249   7.270  25.401
 2742TIP3    H232422   3.348   7.382  25.266
 2743TIP3   OH232423   2.167   6.041  25.269
 2743TIP3    H132424   2.094   6.096  25.374
 2743TIP3    H232425   2.157   5.962  25.434
 2744TIP3   OH232426   3.375   6.814  22.116
 2744TIP3    H132427   3.376   6.728  22.266
 2744TIP3    H232428   3.471   6.824  22.059
 2745TIP3   OH232429   2.124   7.191  24.846
 2745TIP3    H132430   2.171   7.109  24.795
 2745TIP3    H232431   2.184   7.232  25.041
 2746TIP3   OH232432   2.207   6.739  21.924
 2746TIP3    H132433   2.141   6.798  22.053
 2746TIP3    H232434   2.267   6.803  21.801
 2747TIP3   OH232435   3.057   6.027  24.882
 2747TIP3    H132436   3.135   6.044  25.044
 2747TIP3    H232437   3.014   5.953  25.023
 2748TIP3   OH232438   2.816   6.153  22.575
 2748TIP3    H132439   2.897   6.208  22.584
 2748TIP3    H232440   2.806   6.124  22.854
 2749TIP3   OH232441   2.916   6.271  25.260
 2749TIP3    H132442   2.925   6.297  25.542
 2749TIP3    H232443   2.967   6.188  25.245
 2750TIP3   OH232444   2.479   5.993  21.894
 2750TIP3    H132445   2.499   6.082  21.993
 2750TIP3    H232446   2.570   5.960  21.846
 2751TIP3   OH232447   3.459   6.054  25.533
 2751TIP3    H132448   3.374   6.091  25.431
 2751TIP3    H232449   3.518   6.056  25.305
 2752TIP3   OH232450   3.372   6.424  23.811
 2752TIP3    H132451   3.301   6.366  23.901
 2752TIP3    H232452   3.452   6.374  23.892
 2753TIP3   OH232453   2.273   6.411  21.426
 2753TIP3    H132454   2.245   6.495  21.303
 2753TIP3    H232455   2.190   6.365  21.474
 2754TIP3   OH232456   3.475   7.394  24.324
 2754TIP3    H132457   3.470   7.432  24.054
 2754TIP3    H232458   3.573   7.391  24.342
 2755TIP3   OH232459   2.219   5.757  23.946
 2755TIP3    H132460   2.216   5.742  23.655
 2755TIP3    H232461   2.187   5.670  24.045
 2756TIP3   OH232462   2.083   7.133  22.605
 2756TIP3    H132463   2.015   7.173  22.773
 2756TIP3    H232464   2.081   7.194  22.374
 2757TIP3   OH232465   2.025   7.423  26.124
 2757TIP3    H132466   2.115   7.422  26.226
 2757TIP3    H232467   1.995   7.331  26.163
 2758TIP3   OH232468   2.520   7.253  26.595
 2758TIP3    H132469   2.614   7.268  26.571
 2758TIP3    H232470   2.488   7.235  26.322
 2759TIP3   OH232471   3.129   7.163  26.256
 2759TIP3    H132472   3.097   7.073  26.334
 2759TIP3    H232473   3.204   7.172  26.439
 2760TIP3   OH232474   3.424   7.215  21.051
 2760TIP3    H132475   3.391   7.143  21.222
 2760TIP3    H232476   3.521   7.196  21.066
 2761TIP3   OH232477   1.990   6.784  26.406
 2761TIP3    H132478   1.962   6.691  26.409
 2761TIP3    H232479   1.936   6.818  26.181
 2762TIP3   OH232480   2.681   6.782  26.151
 2762TIP3    H132481   2.655   6.840  25.923
 2762TIP3    H232482   2.660   6.692  26.055
 2763TIP3   OH232483   3.083   6.930  21.189
 2763TIP3    H132484   3.023   6.973  21.384
 2763TIP3    H232485   3.049   6.962  20.937
 2764TIP3   OH232486   3.250   6.766  25.464
 2764TIP3    H132487   3.335   6.815  25.446
 2764TIP3    H232488   3.192   6.844  25.503
 2765TIP3   OH232489   2.125   6.508  26.343
 2765TIP3    H132490   2.180   6.430  26.343
 2765TIP3    H232491   2.158   6.560  26.574
 2766TIP3   OH232492   2.478   6.408  25.308
 2766TIP3    H132493   2.428   6.491  25.335
 2766TIP3    H232494   2.558   6.443  25.176
 2767TIP3   OH232495   3.044   6.679  26.439
 2767TIP3    H132496   3.095   6.631  26.238
 2767TIP3    H232497   3.013   6.609  26.619
 2768TIP3   OH232498   2.565   6.174  25.638
 2768TIP3    H132499   2.568   6.105  25.425
 2768TIP3    H232500   2.554   6.256  25.476
 2769TIP3   OH232501   2.585   5.966  25.098
 2769TIP3    H132502   2.639   6.023  24.912
 2769TIP3    H232503   2.502   5.959  24.945
 2770TIP3   OH232504   2.720   6.530  24.996
 2770TIP3    H132505   2.811   6.559  25.035
 2770TIP3    H232506   2.677   6.613  24.903
 2771TIP3   OH232507   3.175   6.282  26.484
 2771TIP3    H132508   3.207   6.191  26.472
 2771TIP3    H232509   3.248   6.331  26.604
 2772TIP3   OH232510   3.323   6.611  26.097
 2772TIP3    H132511   3.291   6.668  25.878
 2772TIP3    H232512   3.416   6.602  26.022
 2773TIP3   OH232513   2.414   6.246  26.292
 2773TIP3    H132514   2.324   6.209  26.241
 2773TIP3    H232515   2.464   6.214  26.052
 2774TIP3   OH232516   2.683   5.721  25.107
 2774TIP3    H132517   2.648   5.813  25.125
 2774TIP3    H232518   2.611   5.679  24.963
 2775TIP3   OH232519   2.771   6.158  26.319
 2775TIP3    H132520   2.709   6.128  26.529
 2775TIP3    H232521   2.715   6.142  26.085
 2776TIP3   OH232522   3.054   6.082  25.983
 2776TIP3    H132523   2.962   6.079  26.067
 2776TIP3    H232524   3.097   6.033  26.205
 2777TIP3   OH232525   3.197   5.939  26.505
 2777TIP3    H132526   3.204   5.842  26.505
 2777TIP3    H232527   3.191   5.959  26.793
 2778TIP3   OH232528   2.195   6.085  26.340
 2778TIP3    H132529   2.235   6.006  26.229
 2778TIP3    H232530   2.174   6.057  26.616
 2779TIP3   OH232531   2.682   5.701  25.923
 2779TIP3    H132532   2.750   5.632  25.962
 2779TIP3    H232533   2.682   5.699  25.629
 2780TIP3   OH232534   2.654   5.800  26.691
 2780TIP3    H132535   2.665   5.773  26.409
 2780TIP3    H232536   2.627   5.894  26.664
 2781TIP3   OH232537   2.667   7.483  21.537
 2781TIP3    H132538   2.755   7.524  21.501
 2781TIP3    H232539   2.611   7.542  21.381
 2782TIP3   OH232540   1.907   7.510  22.845
 2782TIP3    H132541   1.819   7.482  22.752
 2782TIP3    H232542   1.908   7.464  23.103
 2783TIP3   OH232543   1.991   7.318  23.499
 2783TIP3    H132544   1.926   7.253  23.601
 2783TIP3    H232545   2.041   7.335  23.745
 2784TIP3   OH232546   3.746   7.426  24.225
 2784TIP3    H132547   3.763   7.486  24.453
 2784TIP3    H232548   3.832   7.422  24.093
 2785TIP3   OH232549   3.685   7.345  25.287
 2785TIP3    H132550   3.663   7.280  25.077
 2785TIP3    H232551   3.715   7.282  25.491
 2786TIP3   OH232552   3.549   6.960  26.586
 2786TIP3    H132553   3.465   6.948  26.736
 2786TIP3    H232554   3.582   7.043  26.703
 2787TIP3   OH232555   3.650   6.792  22.155
 2787TIP3    H132556   3.732   6.838  22.233
 2787TIP3    H232557   3.642   6.730  22.380
 2788TIP3   OH232558   3.709   6.590  22.779
 2788TIP3    H132559   3.625   6.546  22.854
 2788TIP3    H232560   3.753   6.601  23.034
 2789TIP3   OH232561   3.684   6.843  24.192
 2789TIP3    H132562   3.752   6.775  24.141
 2789TIP3    H232563   3.731   6.926  24.126
 2790TIP3   OH232564   3.549   7.133  24.978
 2790TIP3    H132565   3.475   7.177  25.104
 2790TIP3    H232566   3.512   7.122  24.702
 2791TIP3   OH232567   3.728   6.591  21.621
 2791TIP3    H132568   3.690   6.630  21.375
 2791TIP3    H232569   3.707   6.665  21.804
 2792TIP3   OH232570   3.575   6.265  21.318
 2792TIP3    H132571   3.587   6.325  21.093
 2792TIP3    H232572   3.570   6.177  21.207
 2793TIP3   OH232573   3.493   6.442  23.010
 2793TIP3    H132574   3.500   6.350  22.923
 2793TIP3    H232575   3.476   6.436  23.298
 2794TIP3   OH232576   1.980   6.666  24.231
 2794TIP3    H132577   1.988   6.631  23.955
 2794TIP3    H232578   2.068   6.639  24.336
 2795TIP3   OH232579   3.604   6.625  25.878
 2795TIP3    H132580   3.658   6.543  25.917
 2795TIP3    H232581   3.670   6.694  25.827
 2796TIP3   OH232582   3.714   6.382  25.992
 2796TIP3    H132583   3.621   6.348  25.983
 2796TIP3    H232584   3.769   6.303  26.055
 2797TIP3   OH232585   3.563   6.250  24.111
 2797TIP3    H132586   3.660   6.262  24.162
 2797TIP3    H232587   3.531   6.247  24.387
 2798TIP3   OH232588   3.525   6.322  24.879
 2798TIP3    H132589   3.450   6.360  25.035
 2798TIP3    H232590   3.581   6.402  24.834
 2799TIP3   OH232591   1.967   6.143  25.974
 2799TIP3    H132592   2.048   6.156  26.133
 2799TIP3    H232593   1.940   6.053  26.049
 2800TIP3   OH232594   3.766   5.773  26.517
 2800TIP3    H132595   3.804   5.697  26.376
 2800TIP3    H232596   3.755   5.838  26.298
 2801TIP3   OH232597   2.083   5.987  24.108
 2801TIP3    H132598   2.133   5.904  24.054
 2801TIP3    H232599   2.151   6.055  24.066
 2802TIP3   OH232600   1.932   6.300  24.249
 2802TIP3    H132601   1.993   6.280  24.027
 2802TIP3    H232602   1.974   6.379  24.354
 2803TIP3   OH232603   3.706   5.970  25.995
 2803TIP3    H132604   3.629   5.998  26.160
 2803TIP3    H232605   3.661   5.916  25.794
 2804TIP3   OH232606   3.751   5.899  21.459
 2804TIP3    H132607   3.819   5.870  21.273
 2804TIP3    H232608   3.790   5.981  21.561
 2805TIP3   OH232609   1.936   5.959  22.482
 2805TIP3    H132610   1.840   5.948  22.512
 2805TIP3    H232611   1.940   5.952  22.191
 2806TIP3   OH232612   3.404   7.431  22.950
 2806TIP3    H132613   3.490   7.401  22.842
 2806TIP3    H232614   3.432   7.474  23.199
 2807TIP3   OH232615   1.949   5.779  24.975
 2807TIP3    H132616   1.873   5.722  24.912
 2807TIP3    H232617   1.947   5.840  24.747
 2808TIP3   OH232618   2.167   7.093  26.103
 2808TIP3    H132619   2.082   7.084  25.965
 2808TIP3    H232620   2.142   7.092  26.382
 2809TIP3   OH232621   2.442   7.220  25.077
 2809TIP3    H132622   2.437   7.318  25.050
 2809TIP3    H232623   2.539   7.213  25.056
 2810TIP3   OH232624   2.888   7.322  25.863
 2810TIP3    H132625   2.878   7.307  26.154
 2810TIP3    H232626   2.968   7.377  25.863
 2811TIP3   OH232627   3.127   7.500  25.761
 2811TIP3    H132628   3.208   7.449  25.710
 2811TIP3    H232629   3.134   7.507  26.052
 2812TIP3   OH232630   3.612   5.725  25.485
 2812TIP3    H132631   3.546   5.763  25.305
 2812TIP3    H232632   3.621   5.633  25.380
 2813TIP3   OH232633   2.191   7.570  25.020
 2813TIP3    H132634   2.106   7.562  24.876
 2813TIP3    H232635   2.161   7.561  25.293
 2814TIP3   OH232636   2.430   7.476  24.879
 2814TIP3    H132637   2.340   7.509  24.960
 2814TIP3    H232638   2.431   7.507  24.600
 2815TIP3   OH232639   2.929   7.463  24.480
 2815TIP3    H132640   2.855   7.473  24.288
 2815TIP3    H232641   2.932   7.551  24.600
 2816TIP3   OH232642   3.095   7.312  24.942
 2816TIP3    H132643   3.030   7.372  24.813
 2816TIP3    H232644   3.179   7.357  24.876
 2817TIP3   OH232645   3.350   7.531  24.888
 2817TIP3    H132646   3.318   7.620  24.825
 2817TIP3    H232647   3.387   7.500  24.627
 2818TIP3   OH232648   2.156   7.340  24.174
 2818TIP3    H132649   2.132   7.300  24.435
 2818TIP3    H232650   2.235   7.290  24.090
 2819TIP3   OH232651   2.371   7.270  23.769
 2819TIP3    H132652   2.366   7.172  23.805
 2819TIP3    H232653   2.460   7.284  23.889
 2820TIP3   OH232654   2.597   7.262  24.153
 2820TIP3    H132655   2.618   7.167  24.126
 2820TIP3    H232656   2.624   7.283  24.426
 2821TIP3   OH232657   2.900   5.858  23.613
 2821TIP3    H132658   2.829   5.812  23.766
 2821TIP3    H232659   2.945   5.782  23.499
 2822TIP3   OH232660   3.468   5.656  23.607
 2822TIP3    H132661   3.551   5.699  23.529
 2822TIP3    H232662   3.444   5.601  23.376
 2823TIP3   OH232663   2.198   5.744  23.085
 2823TIP3    H132664   2.116   5.738  22.929
 2823TIP3    H232665   2.236   5.655  23.040
 2824TIP3   OH232666   2.549   5.723  23.082
 2824TIP3    H132667   2.613   5.741  22.869
 2824TIP3    H232668   2.600   5.745  23.322
 2825TIP3   OH232669   2.026   7.317  22.032
 2825TIP3    H132670   1.931   7.318  21.984
 2825TIP3    H232671   2.040   7.407  22.131
 2826TIP3   OH232672   2.257   5.979  21.414
 2826TIP3    H132673   2.244   5.890  21.309
 2826TIP3    H232674   2.343   5.970  21.546
 2827TIP3   OH232675   2.750   5.971  21.906
 2827TIP3    H132676   2.742   5.885  22.035
 2827TIP3    H232677   2.763   6.034  22.128
 2828TIP3   OH232678   3.614   7.375  22.533
 2828TIP3    H132679   3.595   7.283  22.437
 2828TIP3    H232680   3.593   7.422  22.281
 2829TIP3   OH232681   2.136   5.781  25.893
 2829TIP3    H132682   2.127   5.687  25.974
 2829TIP3    H232683   2.207   5.805  26.082
 2830TIP3   OH232684   2.355   5.731  26.472
 2830TIP3    H132685   2.451   5.723  26.433
 2830TIP3    H232686   2.340   5.643  26.595
 2831TIP3   OH232687   3.206   5.674  26.460
 2831TIP3    H132688   3.204   5.601  26.655
 2831TIP3    H232689   3.299   5.668  26.364
 2832TIP3   OH232690   3.507   7.258  26.073
 2832TIP3    H132691   3.423   7.260  25.920
 2832TIP3    H232692   3.523   7.352  26.106
 2833TIP3   OH232693   4.111   6.557  24.498
 2833TIP3    H132694   4.105   6.473  24.651
 2833TIP3    H232695   4.145   6.616  24.711
 2834TIP3   OH232696   5.213   6.854  23.646
 2834TIP3    H132697   5.192   6.775  23.811
 2834TIP3    H232698   5.216   6.921  23.853
 2835TIP3   OH232699   4.170   7.018  23.946
 2835TIP3    H132700   4.147   6.924  23.904
 2835TIP3    H232701   4.265   7.006  23.988
 2836TIP3   OH232702   3.835   6.320  22.707
 2836TIP3    H132703   3.809   6.414  22.707
 2836TIP3    H232704   3.777   6.286  22.500
 2837TIP3   OH232705   3.938   6.585  23.448
 2837TIP3    H132706   3.973   6.493  23.484
 2837TIP3    H232707   3.977   6.617  23.202
 2838TIP3   OH232708   4.921   7.376  23.580
 2838TIP3    H132709   5.009   7.334  23.529
 2838TIP3    H232710   4.874   7.305  23.715
 2839TIP3   OH232711   4.677   6.805  24.330
 2839TIP3    H132712   4.713   6.827  24.072
 2839TIP3    H232713   4.756   6.825  24.495
 2840TIP3   OH232714   5.552   5.960  24.429
 2840TIP3    H132715   5.560   6.024  24.651
 2840TIP3    H232716   5.635   5.980  24.288
 2841TIP3   OH232717   5.050   6.275  24.342
 2841TIP3    H132718   5.067   6.180  24.402
 2841TIP3    H232719   5.043   6.269  24.048
 2842TIP3   OH232720   4.327   6.064  23.397
 2842TIP3    H132721   4.283   6.130  23.229
 2842TIP3    H232722   4.323   5.986  23.220
 2843TIP3   OH232723   5.115   6.082  23.004
 2843TIP3    H132724   5.163   6.051  23.244
 2843TIP3    H232725   5.183   6.137  22.884
 2844TIP3   OH232726   4.018   6.340  23.700
 2844TIP3    H132727   4.068   6.273  23.853
 2844TIP3    H232728   4.021   6.301  23.433
 2845TIP3   OH232729   5.575   6.116  25.080
 2845TIP3    H132730   5.542   6.199  24.954
 2845TIP3    H232731   5.578   6.145  25.356
 2846TIP3   OH232732   4.224   5.970  24.711
 2846TIP3    H132733   4.193   6.022  24.480
 2846TIP3    H232734   4.158   5.997  24.918
 2847TIP3   OH232735   4.441   6.725  24.675
 2847TIP3    H132736   4.394   6.800  24.807
 2847TIP3    H232737   4.518   6.772  24.558
 2848TIP3   OH232738   5.270   6.029  23.625
 2848TIP3    H132739   5.276   5.954  23.805
 2848TIP3    H232740   5.350   6.078  23.691
 2849TIP3   OH232741   4.188   6.161  24.081
 2849TIP3    H132742   4.254   6.211  24.240
 2849TIP3    H232743   4.243   6.132  23.850
 2850TIP3   OH232744   4.327   6.955  24.966
 2850TIP3    H132745   4.315   7.043  24.855
 2850TIP3    H232746   4.239   6.936  25.083
 2851TIP3   OH232747   3.932   6.873  22.338
 2851TIP3    H132748   3.918   6.934  22.119
 2851TIP3    H232749   3.940   6.935  22.560
 2852TIP3   OH232750   5.278   7.106  24.381
 2852TIP3    H132751   5.181   7.100  24.384
 2852TIP3    H232752   5.290   7.161  24.147
 2853TIP3   OH232753   5.274   5.909  24.645
 2853TIP3    H132754   5.206   5.955  24.483
 2853TIP3    H232755   5.357   5.929  24.504
 2854TIP3   OH232756   4.580   5.720  23.853
 2854TIP3    H132757   4.542   5.633  23.880
 2854TIP3    H232758   4.501   5.773  23.943
 2855TIP3   OH232759   5.143   7.251  23.316
 2855TIP3    H132760   5.129   7.166  23.181
 2855TIP3    H232761   5.217   7.288  23.154
 2856TIP3   OH232762   5.248   7.032  22.779
 2856TIP3    H132763   5.203   6.981  22.572
 2856TIP3    H232764   5.230   6.971  23.001
 2857TIP3   OH232765   5.376   6.895  25.374
 2857TIP3    H132766   5.385   6.820  25.188
 2857TIP3    H232767   5.405   6.969  25.197
 2858TIP3   OH232768   5.596   6.544  24.750
 2858TIP3    H132769   5.532   6.618  24.771
 2858TIP3    H232770   5.653   6.580  24.534
 2859TIP3   OH232771   5.182   6.528  22.626
 2859TIP3    H132772   5.145   6.616  22.650
 2859TIP3    H232773   5.262   6.529  22.797
 2860TIP3   OH232774   5.197   6.433  25.302
 2860TIP3    H132775   5.182   6.513  25.455
 2860TIP3    H232776   5.125   6.440  25.107
 2861TIP3   OH232777   4.473   7.000  23.982
 2861TIP3    H132778   4.472   7.008  23.685
 2861TIP3    H232779   4.559   6.958  24.042
 2862TIP3   OH232780   4.407   6.517  24.213
 2862TIP3    H132781   4.407   6.560  23.955
 2862TIP3    H232782   4.417   6.593  24.396
 2863TIP3   OH232783   5.013   7.102  24.429
 2863TIP3    H132784   4.971   7.176  24.573
 2863TIP3    H232785   4.978   7.025  24.573
 2864TIP3   OH232786   4.485   6.969  25.623
 2864TIP3    H132787   4.421   7.030  25.752
 2864TIP3    H232788   4.443   6.961  25.359
 2865TIP3   OH232789   4.183   6.623  25.302
 2865TIP3    H132790   4.192   6.698  25.488
 2865TIP3    H232791   4.119   6.570  25.458
 2866TIP3   OH232792   4.308   7.163  25.860
 2866TIP3    H132793   4.302   7.171  25.566
 2866TIP3    H232794   4.216   7.135  25.926
 2867TIP3   OH232795   4.189   6.555  22.560
 2867TIP3    H132796   4.184   6.621  22.350
 2867TIP3    H232797   4.181   6.472  22.413
 2868TIP3   OH232798   3.870   6.826  25.116
 2868TIP3    H132799   3.823   6.805  24.870
 2868TIP3    H232800   3.907   6.738  25.182
 2869TIP3   OH232801   3.860   7.076  24.090
 2869TIP3    H132802   3.954   7.056  24.042
 2869TIP3    H232803   3.864   7.160  24.231
 2870TIP3   OH232804   5.629   7.157  25.944
 2870TIP3    H132805   5.607   7.062  25.953
 2870TIP3    H232806   5.541   7.193  26.031
 2871TIP3   OH232807   4.730   7.095  25.452
 2871TIP3    H132808   4.742   7.182  25.584
 2871TIP3    H232809   4.643   7.065  25.554
 2872TIP3   OH232810   4.770   7.454  22.326
 2872TIP3    H132811   4.866   7.445  22.287
 2872TIP3    H232812   4.765   7.473  22.608
 2873TIP3   OH232813   4.175   7.304  23.055
 2873TIP3    H132814   4.205   7.316  23.334
 2873TIP3    H232815   4.102   7.242  23.097
 2874TIP3   OH232816   5.086   7.406  21.609
 2874TIP3    H132817   5.143   7.367  21.408
 2874TIP3    H232818   5.104   7.351  21.843
 2875TIP3   OH232819   5.036   7.354  22.446
 2875TIP3    H132820   4.999   7.342  22.710
 2875TIP3    H232821   5.095   7.278  22.437
 2876TIP3   OH232822   5.347   6.289  25.965
 2876TIP3    H132823   5.292   6.328  25.755
 2876TIP3    H232824   5.346   6.194  25.890
 2877TIP3   OH232825   4.097   6.934  25.365
 2877TIP3    H132826   4.100   6.894  25.635
 2877TIP3    H232827   4.006   6.911  25.284
 2878TIP3   OH232828   4.342   5.814  24.135
 2878TIP3    H132829   4.253   5.797  24.033
 2878TIP3    H232830   4.320   5.868  24.372
 2879TIP3   OH232831   4.830   5.710  25.074
 2879TIP3    H132832   4.859   5.705  25.350
 2879TIP3    H232833   4.734   5.730  25.095
 2880TIP3   OH232834   5.098   6.176  25.530
 2880TIP3    H132835   5.038   6.138  25.740
 2880TIP3    H232836   5.070   6.269  25.521
 2881TIP3   OH232837   4.365   6.282  24.561
 2881TIP3    H132838   4.296   6.304  24.759
 2881TIP3    H232839   4.371   6.367  24.411
 2882TIP3   OH232840   4.913   6.376  22.614
 2882TIP3    H132841   4.933   6.464  22.515
 2882TIP3    H232842   4.972   6.320  22.455
 2883TIP3   OH232843   4.803   6.378  26.055
 2883TIP3    H132844   4.770   6.292  26.148
 2883TIP3    H232845   4.878   6.393  26.238
 2884TIP3   OH232846   5.028   6.301  23.514
 2884TIP3    H132847   5.011   6.381  23.358
 2884TIP3    H232848   5.021   6.231  23.310
 2885TIP3   OH232849   4.114   6.303  24.924
 2885TIP3    H132850   4.161   6.328  25.167
 2885TIP3    H232851   4.086   6.211  24.990
 2886TIP3   OH232852   4.428   6.106  21.087
 2886TIP3    H132853   4.412   6.049  21.318
 2886TIP3    H232854   4.486   6.048  20.925
 2887TIP3   OH232855   3.765   6.014  23.274
 2887TIP3    H132856   3.836   5.999  23.466
 2887TIP3    H232857   3.802   5.986  23.016
 2888TIP3   OH232858   3.880   6.112  21.801
 2888TIP3    H132859   3.961   6.157  21.714
 2888TIP3    H232860   3.823   6.188  21.867
 2889TIP3   OH232861   4.975   6.489  24.795
 2889TIP3    H132862   4.994   6.410  24.630
 2889TIP3    H232863   4.904   6.453  24.966
 2890TIP3   OH232864   4.606   6.056  23.325
 2890TIP3    H132865   4.509   6.069  23.367
 2890TIP3    H232866   4.640   6.088  23.580
 2891TIP3   OH232867   4.100   6.213  22.968
 2891TIP3    H132868   4.022   6.246  22.821
 2891TIP3    H232869   4.100   6.119  22.884
 2892TIP3   OH232870   4.470   6.220  22.182
 2892TIP3    H132871   4.548   6.273  22.242
 2892TIP3    H232872   4.409   6.283  22.062
 2893TIP3   OH232873   5.055   6.006  24.255
 2893TIP3    H132874   4.982   5.996  24.450
 2893TIP3    H232875   5.010   5.986  24.003
 2894TIP3   OH232876   4.328   6.343  21.525
 2894TIP3    H132877   4.294   6.263  21.399
 2894TIP3    H232878   4.409   6.350  21.369
 2895TIP3   OH232879   5.318   7.548  26.163
 2895TIP3    H132880   5.337   7.572  25.887
 2895TIP3    H232881   5.408   7.556  26.280
 2896TIP3   OH232882   4.134   6.770  26.058
 2896TIP3    H132883   4.202   6.802  26.244
 2896TIP3    H232884   4.056   6.755  26.235
 2897TIP3   OH232885   4.737   6.299  23.769
 2897TIP3    H132886   4.832   6.282  23.772
 2897TIP3    H232887   4.709   6.256  24.015
 2898TIP3   OH232888   4.200   5.940  22.758
 2898TIP3    H132889   4.133   5.888  22.905
 2898TIP3    H232890   4.240   5.874  22.590
 2899TIP3   OH232891   4.590   6.146  24.522
 2899TIP3    H132892   4.517   6.211  24.558
 2899TIP3    H232893   4.660   6.183  24.687
 2900TIP3   OH232894   5.407   6.736  24.759
 2900TIP3    H132895   5.461   6.786  24.564
 2900TIP3    H232896   5.326   6.728  24.603
 2901TIP3   OH232897   4.988   6.086  21.504
 2901TIP3    H132898   4.938   6.155  21.372
 2901TIP3    H232899   5.054   6.138  21.651
 2902TIP3   OH232900   4.770   6.823  25.446
 2902TIP3    H132901   4.769   6.797  25.725
 2902TIP3    H232902   4.749   6.918  25.467
 2903TIP3   OH232903   5.117   6.261  22.065
 2903TIP3    H132904   5.182   6.241  22.278
 2903TIP3    H232905   5.170   6.322  21.909
 2904TIP3   OH232906   4.202   6.752  23.814
 2904TIP3    H132907   4.188   6.720  23.544
 2904TIP3    H232908   4.185   6.673  23.979
 2905TIP3   OH232909   3.879   6.567  25.440
 2905TIP3    H132910   3.869   6.505  25.668
 2905TIP3    H232911   3.825   6.524  25.233
 2906TIP3   OH232912   4.572   6.517  25.956
 2906TIP3    H132913   4.525   6.454  25.791
 2906TIP3    H232914   4.663   6.478  25.968
 2907TIP3   OH232915   5.056   7.044  25.512
 2907TIP3    H132916   4.975   7.069  25.380
 2907TIP3    H232917   5.046   7.093  25.764
 2908TIP3   OH232918   5.581   6.289  22.095
 2908TIP3    H132919   5.583   6.233  21.858
 2908TIP3    H232920   5.591   6.380  21.981
 2909TIP3   OH232921   5.614   6.872  25.794
 2909TIP3    H132922   5.521   6.884  25.704
 2909TIP3    H232923   5.660   6.873  25.536
 2910TIP3   OH232924   5.457   7.114  22.014
 2910TIP3    H132925   5.397   7.052  22.152
 2910TIP3    H232926   5.450   7.085  21.738
 2911TIP3   OH232927   5.168   6.650  24.204
 2911TIP3    H132928   5.107   6.595  24.363
 2911TIP3    H232929   5.220   6.583  24.060
 2912TIP3   OH232930   4.427   7.057  23.208
 2912TIP3    H132931   4.506   7.071  23.040
 2912TIP3    H232932   4.354   7.090  23.043
 2913TIP3   OH232933   4.057   6.577  21.237
 2913TIP3    H132934   4.079   6.642  21.441
 2913TIP3    H232935   3.963   6.561  21.291
 2914TIP3   OH232936   4.607   7.260  24.945
 2914TIP3    H132937   4.660   7.341  24.894
 2914TIP3    H232938   4.675   7.203  25.077
 2915TIP3   OH232939   4.416   7.336  22.659
 2915TIP3    H132940   4.332   7.328  22.812
 2915TIP3    H232941   4.470   7.388  22.848
 2916TIP3   OH232942   4.907   6.861  24.747
 2916TIP3    H132943   4.864   6.839  25.008
 2916TIP3    H232944   4.978   6.795  24.747
 2917TIP3   OH232945   5.215   7.315  25.479
 2917TIP3    H132946   5.137   7.264  25.383
 2917TIP3    H232947   5.231   7.380  25.263
 2918TIP3   OH232948   5.684   7.399  21.504
 2918TIP3    H132949   5.728   7.481  21.432
 2918TIP3    H232950   5.600   7.436  21.612
 2919TIP3   OH232951   4.055   6.057  25.284
 2919TIP3    H132952   3.974   6.098  25.386
 2919TIP3    H232953   4.056   5.975  25.446
 2920TIP3   OH232954   5.291   6.813  22.149
 2920TIP3    H132955   5.275   6.723  22.227
 2920TIP3    H232956   5.390   6.815  22.116
 2921TIP3   OH232957   4.016   7.194  24.861
 2921TIP3    H132958   4.048   7.104  24.852
 2921TIP3    H232959   4.081   7.234  25.041
 2922TIP3   OH232960   4.541   7.119  20.997
 2922TIP3    H132961   4.626   7.080  20.937
 2922TIP3    H232962   4.528   7.096  21.276
 2923TIP3   OH232963   4.446   7.020  21.726
 2923TIP3    H132964   4.524   6.993  21.879
 2923TIP3    H232965   4.440   7.115  21.804
 2924TIP3   OH232966   4.148   6.753  21.891
 2924TIP3    H132967   4.066   6.783  22.023
 2924TIP3    H232968   4.194   6.835  21.825
 2925TIP3   OH232969   4.903   6.021  25.047
 2925TIP3    H132970   4.986   6.051  25.170
 2925TIP3    H232971   4.887   5.934  25.167
 2926TIP3   OH232972   5.016   5.965  22.371
 2926TIP3    H132973   5.007   6.049  22.230
 2926TIP3    H232974   5.052   6.000  22.629
 2927TIP3   OH232975   4.748   6.133  22.629
 2927TIP3    H132976   4.781   6.224  22.665
 2927TIP3    H232977   4.688   6.121  22.857
 2928TIP3   OH232978   4.820   6.275  25.269
 2928TIP3    H132979   4.822   6.294  25.557
 2928TIP3    H232980   4.844   6.180  25.248
 2929TIP3   OH232981   4.798   5.824  22.725
 2929TIP3    H132982   4.763   5.891  22.908
 2929TIP3    H232983   4.881   5.869  22.647
 2930TIP3   OH232984   4.454   7.287  21.897
 2930TIP3    H132985   4.383   7.349  21.843
 2930TIP3    H232986   4.451   7.295  22.194
 2931TIP3   OH232987   4.372   5.978  21.798
 2931TIP3    H132988   4.359   6.052  21.981
 2931TIP3    H232989   4.462   5.950  21.876
 2932TIP3   OH232990   5.349   6.050  25.575
 2932TIP3    H132991   5.256   6.076  25.515
 2932TIP3    H232992   5.394   6.056  25.317
 2933TIP3   OH232993   5.261   6.419  23.736
 2933TIP3    H132994   5.187   6.356  23.712
 2933TIP3    H232995   5.330   6.365  23.871
 2934TIP3   OH232996   5.361   7.394  24.336
 2934TIP3    H132997   5.362   7.438  24.072
 2934TIP3    H232998   5.456   7.369  24.348
 2935TIP3   OH232999   4.079   5.760  23.985
 2935TIP3    H133000   4.074   5.751  23.691
 2935TIP3    H233001   4.057   5.668  24.069
 2936TIP3   OH233002   3.956   7.136  22.722
 2936TIP3    H133003   3.878   7.184  22.806
 2936TIP3    H233004   3.975   7.185  22.473
 2937TIP3   OH233005   3.911   7.425  26.136
 2937TIP3    H133006   4.001   7.418  26.247
 2937TIP3    H233007   3.880   7.333  26.154
 2938TIP3   OH233008   4.399   7.259  26.601
 2938TIP3    H133009   4.494   7.277  26.616
 2938TIP3    H233010   4.385   7.238  26.316
 2939TIP3   OH233011   5.016   7.162  26.259
 2939TIP3    H133012   4.979   7.075  26.340
 2939TIP3    H233013   5.095   7.165  26.424
 2940TIP3   OH233014   3.879   6.786  26.403
 2940TIP3    H133015   3.842   6.697  26.427
 2940TIP3    H233016   3.826   6.821  26.178
 2941TIP3   OH233017   4.561   6.778  26.130
 2941TIP3    H133018   4.536   6.838  25.905
 2941TIP3    H233019   4.542   6.688  26.022
 2942TIP3   OH233020   5.126   6.772  25.494
 2942TIP3    H133021   5.207   6.828  25.476
 2942TIP3    H233022   5.061   6.845  25.521
 2943TIP3   OH233023   4.020   6.489  26.244
 2943TIP3    H133024   4.003   6.400  26.337
 2943TIP3    H233025   4.054   6.538  26.478
 2944TIP3   OH233026   4.356   6.414  25.287
 2944TIP3    H133027   4.317   6.505  25.281
 2944TIP3    H233028   4.445   6.436  25.182
 2945TIP3   OH233029   4.930   6.684  26.475
 2945TIP3    H133030   5.012   6.636  26.415
 2945TIP3    H233031   4.888   6.623  26.664
 2946TIP3   OH233032   4.458   6.163  25.641
 2946TIP3    H133033   4.453   6.090  25.443
 2946TIP3    H233034   4.426   6.238  25.482
 2947TIP3   OH233035   4.468   5.968  25.035
 2947TIP3    H133036   4.515   6.012  24.813
 2947TIP3    H233037   4.375   5.970  24.942
 2948TIP3   OH233038   4.594   6.544  25.029
 2948TIP3    H133039   4.674   6.596  24.999
 2948TIP3    H233040   4.533   6.602  24.879
 2949TIP3   OH233041   5.067   6.288  26.547
 2949TIP3    H133042   5.094   6.196  26.505
 2949TIP3    H233043   5.151   6.335  26.565
 2950TIP3   OH233044   5.209   6.609  26.100
 2950TIP3    H133045   5.171   6.664  25.884
 2950TIP3    H233046   5.304   6.609  26.031
 2951TIP3   OH233047   4.290   6.248  26.340
 2951TIP3    H133048   4.206   6.203  26.271
 2951TIP3    H233049   4.344   6.229  26.103
 2952TIP3   OH233050   4.560   5.720  25.053
 2952TIP3    H133051   4.531   5.814  25.080
 2952TIP3    H233052   4.476   5.681  24.969
 2953TIP3   OH233053   4.672   6.135  26.253
 2953TIP3    H133054   4.610   6.116  26.472
 2953TIP3    H233055   4.610   6.137  26.028
 2954TIP3   OH233056   4.926   6.070  26.022
 2954TIP3    H133057   4.837   6.083  26.139
 2954TIP3    H233058   4.969   6.015  26.229
 2955TIP3   OH233059   5.094   5.937  26.541
 2955TIP3    H133060   5.098   5.839  26.523
 2955TIP3    H233061   5.083   5.953  26.829
 2956TIP3   OH233062   4.079   6.052  26.340
 2956TIP3    H133063   4.054   5.972  26.190
 2956TIP3    H233064   4.058   6.024  26.619
 2957TIP3   OH233065   4.562   5.687  25.959
 2957TIP3    H133066   4.641   5.631  25.980
 2957TIP3    H233067   4.549   5.675  25.671
 2958TIP3   OH233068   4.584   5.821  26.673
 2958TIP3    H133069   4.563   5.784  26.406
 2958TIP3    H233070   4.530   5.903  26.682
 2959TIP3   OH233071   3.794   7.533  22.914
 2959TIP3    H133072   3.719   7.484  22.788
 2959TIP3    H233073   3.803   7.478  23.154
 2960TIP3   OH233074   3.888   7.320  23.505
 2960TIP3    H133075   3.819   7.259  23.604
 2960TIP3    H233076   3.953   7.322  23.724
 2961TIP3   OH233077   5.635   7.400  24.246
 2961TIP3    H133078   5.657   7.463  24.462
 2961TIP3    H233079   5.693   7.428  24.027
 2962TIP3   OH233080   5.568   7.346  25.263
 2962TIP3    H133081   5.540   7.276  25.074
 2962TIP3    H233082   5.620   7.290  25.443
 2963TIP3   OH233083   5.439   6.933  26.601
 2963TIP3    H133084   5.350   6.931  26.727
 2963TIP3    H233085   5.472   7.020  26.691
 2964TIP3   OH233086   5.554   6.777  22.170
 2964TIP3    H133087   5.635   6.833  22.203
 2964TIP3    H233088   5.561   6.724  22.413
 2965TIP3   OH233089   5.595   6.584  22.749
 2965TIP3    H133090   5.519   6.533  22.854
 2965TIP3    H233091   5.641   6.610  22.992
 2966TIP3   OH233092   5.561   6.847  24.213
 2966TIP3    H133093   5.630   6.779  24.171
 2966TIP3    H233094   5.602   6.927  24.096
 2967TIP3   OH233095   5.439   7.126  24.990
 2967TIP3    H133096   5.377   7.177  25.155
 2967TIP3    H233097   5.388   7.118  24.738
 2968TIP3   OH233098   5.599   6.533  21.819
 2968TIP3    H133099   5.556   6.599  21.654
 2968TIP3    H233100   5.638   6.594  22.017
 2969TIP3   OH233101   5.399   6.441  23.034
 2969TIP3    H133102   5.366   6.352  22.971
 2969TIP3    H233103   5.369   6.450  23.313
 2970TIP3   OH233104   3.881   6.648  24.207
 2970TIP3    H133105   3.895   6.628  23.919
 2970TIP3    H233106   3.970   6.625  24.309
 2971TIP3   OH233107   5.489   6.625  25.872
 2971TIP3    H133108   5.540   6.540  25.911
 2971TIP3    H233109   5.557   6.694  25.827
 2972TIP3   OH233110   5.594   6.379  25.923
 2972TIP3    H133111   5.502   6.345  25.944
 2972TIP3    H233112   5.648   6.301  25.998
 2973TIP3   OH233113   5.344   6.194  22.557
 2973TIP3    H133114   5.368   6.099  22.587
 2973TIP3    H233115   5.427   6.224  22.434
 2974TIP3   OH233116   5.444   6.247  24.156
 2974TIP3    H133117   5.541   6.260  24.198
 2974TIP3    H233118   5.412   6.260  24.429
 2975TIP3   OH233119   5.423   6.328  24.936
 2975TIP3    H133120   5.338   6.362  25.044
 2975TIP3    H233121   5.475   6.412  24.906
 2976TIP3   OH233122   3.869   6.173  26.049
 2976TIP3    H133123   3.952   6.132  26.151
 2976TIP3    H233124   3.810   6.095  26.037
 2977TIP3   OH233125   5.667   5.767  26.526
 2977TIP3    H133126   5.709   5.690  26.400
 2977TIP3    H233127   5.642   5.823  26.298
 2978TIP3   OH233128   5.411   5.930  22.554
 2978TIP3    H133129   5.446   5.893  22.809
 2978TIP3    H233130   5.359   5.854  22.446
 2979TIP3   OH233131   3.954   6.002  23.994
 2979TIP3    H133132   3.996   5.914  24.012
 2979TIP3    H233133   4.031   6.061  24.000
 2980TIP3   OH233134   3.826   6.303  24.243
 2980TIP3    H133135   3.888   6.288  24.018
 2980TIP3    H233136   3.866   6.384  24.339
 2981TIP3   OH233137   5.572   5.953  25.971
 2981TIP3    H133138   5.481   5.989  25.962
 2981TIP3    H233139   5.568   5.890  25.752
 2982TIP3   OH233140   5.564   5.916  21.489
 2982TIP3    H133141   5.551   5.946  21.213
 2982TIP3    H233142   5.617   5.987  21.603
 2983TIP3   OH233143   3.833   5.950  22.464
 2983TIP3    H133144   3.740   5.967  22.425
 2983TIP3    H233145   3.866   5.959  22.191
 2984TIP3   OH233146   5.314   7.405  22.920
 2984TIP3    H133147   5.396   7.378  22.782
 2984TIP3    H233148   5.349   7.454  23.151
 2985TIP3   OH233149   3.823   5.780  24.930
 2985TIP3    H133150   3.762   5.748  25.137
 2985TIP3    H233151   3.767   5.841  24.771
 2986TIP3   OH233152   4.053   7.095  26.103
 2986TIP3    H133153   3.966   7.095  25.974
 2986TIP3    H233154   4.031   7.109  26.379
 2987TIP3   OH233155   4.340   7.226  25.098
 2987TIP3    H133156   4.325   7.324  25.083
 2987TIP3    H233157   4.436   7.225  25.053
 2988TIP3   OH233158   4.771   7.321  25.869
 2988TIP3    H133159   4.764   7.305  26.160
 2988TIP3    H233160   4.852   7.376  25.854
 2989TIP3   OH233161   5.005   7.507  25.740
 2989TIP3    H133162   5.079   7.444  25.704
 2989TIP3    H233163   5.014   7.522  26.034
 2990TIP3   OH233164   5.513   5.733  25.461
 2990TIP3    H133165   5.440   5.774  25.317
 2990TIP3    H233166   5.521   5.645  25.332
 2991TIP3   OH233167   4.058   7.577  25.026
 2991TIP3    H133168   3.970   7.584  24.894
 2991TIP3    H233169   4.034   7.547  25.293
 2992TIP3   OH233170   4.298   7.482  24.891
 2992TIP3    H133171   4.214   7.530  24.963
 2992TIP3    H233172   4.308   7.508  24.612
 2993TIP3   OH233173   4.799   7.471  24.519
 2993TIP3    H133174   4.728   7.489  24.327
 2993TIP3    H233175   4.804   7.557  24.660
 2994TIP3   OH233176   4.982   7.324  24.933
 2994TIP3    H133177   4.911   7.377  24.801
 2994TIP3    H233178   5.057   7.385  24.891
 2995TIP3   OH233179   5.223   7.527  24.885
 2995TIP3    H133180   5.205   7.619  24.813
 2995TIP3    H233181   5.270   7.494  24.642
 2996TIP3   OH233182   4.035   7.330  24.186
 2996TIP3    H133183   4.024   7.277  24.438
 2996TIP3    H233184   4.120   7.296  24.081
 2997TIP3   OH233185   4.257   7.283  23.784
 2997TIP3    H133186   4.238   7.189  23.844
 2997TIP3    H233187   4.350   7.287  23.886
 2998TIP3   OH233188   4.488   7.271  24.168
 2998TIP3    H133189   4.514   7.180  24.099
 2998TIP3    H233190   4.514   7.278  24.450
 2999TIP3   OH233191   4.832   5.901  23.715
 2999TIP3    H133192   4.739   5.871  23.727
 2999TIP3    H233193   4.874   5.822  23.610
 3000TIP3   OH233194   5.362   5.673  23.694
 3000TIP3    H133195   5.431   5.732  23.574
 3000TIP3    H233196   5.282   5.719  23.607
 3001TIP3   OH233197   5.523   5.817  23.235
 3001TIP3    H133198   5.577   5.760  23.058
 3001TIP3    H233199   5.586   5.890  23.295
 3002TIP3   OH233200   4.057   5.742  23.139
 3002TIP3    H133201   3.975   5.729  22.986
 3002TIP3    H233202   4.104   5.658  23.076
 3003TIP3   OH233203   4.509   5.741  23.028
 3003TIP3    H133204   4.589   5.726  22.872
 3003TIP3    H233205   4.542   5.734  23.301
 3004TIP3   OH233206   5.099   5.718  23.421
 3004TIP3    H133207   5.101   5.795  23.250
 3004TIP3    H233208   5.144   5.647  23.268
 3005TIP3   OH233209   5.246   5.732  22.284
 3005TIP3    H133210   5.164   5.783  22.296
 3005TIP3    H233211   5.209   5.642  22.299
 3006TIP3   OH233212   3.936   7.309  22.113
 3006TIP3    H133213   3.844   7.308  22.014
 3006TIP3    H233214   3.964   7.396  22.008
 3007TIP3   OH233215   4.104   5.889  21.390
 3007TIP3    H133216   4.180   5.853  21.246
 3007TIP3    H233217   4.148   5.955  21.549
 3008TIP3   OH233218   4.644   5.933  22.011
 3008TIP3    H133219   4.676   5.904  22.269
 3008TIP3    H233220   4.639   6.029  22.059
 3009TIP3   OH233221   5.506   7.359  22.383
 3009TIP3    H133222   5.489   7.278  22.221
 3009TIP3    H233223   5.483   7.429  22.188
 3010TIP3   OH233224   4.040   5.808  25.917
 3010TIP3    H133225   3.989   5.726  25.941
 3010TIP3    H233226   4.115   5.791  26.106
 3011TIP3   OH233227   4.239   5.724  26.457
 3011TIP3    H133228   4.334   5.706  26.409
 3011TIP3    H233229   4.211   5.636  26.556
 3012TIP3   OH233230   5.086   5.662  26.436
 3012TIP3    H133231   5.070   5.601  26.658
 3012TIP3    H233232   5.183   5.648  26.388
 3013TIP3   OH233233   5.390   7.256  26.088
 3013TIP3    H133234   5.314   7.262  25.899
 3013TIP3    H233235   5.415   7.350  26.103
 3014TIP3   OH233236   6.870   6.642  22.995
 3014TIP3    H133237   6.872   6.740  23.019
 3014TIP3    H233238   6.785   6.635  22.863
 3015TIP3   OH233239   6.751   6.531  24.003
 3015TIP3    H133240   6.762   6.500  24.282
 3015TIP3    H233241   6.664   6.499  23.913
 3016TIP3   OH233242   5.967   6.534  24.528
 3016TIP3    H133243   5.981   6.464  24.726
 3016TIP3    H233244   6.039   6.596  24.585
 3017TIP3   OH233245   7.137   6.891  23.691
 3017TIP3    H133246   7.117   6.814  23.856
 3017TIP3    H233247   7.114   6.966  23.862
 3018TIP3   OH233248   6.077   6.998  24.057
 3018TIP3    H133249   6.043   6.911  23.967
 3018TIP3    H233250   6.172   6.981  24.012
 3019TIP3   OH233251   5.752   6.338  22.671
 3019TIP3    H133252   5.716   6.419  22.788
 3019TIP3    H233253   5.693   6.327  22.443
 3020TIP3   OH233254   5.816   6.574  23.490
 3020TIP3    H133255   5.856   6.484  23.520
 3020TIP3    H233256   5.866   6.615  23.274
 3021TIP3   OH233257   6.801   7.387  23.595
 3021TIP3    H133258   6.883   7.337  23.529
 3021TIP3    H233259   6.768   7.334  23.817
 3022TIP3   OH233260   6.577   6.817  24.309
 3022TIP3    H133261   6.608   6.800  24.039
 3022TIP3    H233262   6.661   6.838  24.444
 3023TIP3   OH233263   7.464   5.994  24.315
 3023TIP3    H133264   7.461   6.068  24.504
 3023TIP3    H233265   7.519   6.033  24.105
 3024TIP3   OH233266   6.928   6.252  24.366
 3024TIP3    H133267   6.965   6.161  24.402
 3024TIP3    H233268   6.927   6.255  24.075
 3025TIP3   OH233269   6.228   6.050  23.349
 3025TIP3    H133270   6.235   6.143  23.256
 3025TIP3    H233271   6.170   6.014  23.139
 3026TIP3   OH233272   6.977   6.061  23.046
 3026TIP3    H133273   7.030   6.039  23.286
 3026TIP3    H233274   7.040   6.117  22.902
 3027TIP3   OH233275   5.870   6.310  23.676
 3027TIP3    H133276   5.933   6.267  23.859
 3027TIP3    H233277   5.907   6.280  23.418
 3028TIP3   OH233278   6.365   6.487  23.556
 3028TIP3    H133279   6.448   6.442  23.628
 3028TIP3    H233280   6.330   6.417  23.376
 3029TIP3   OH233281   7.464   6.087  25.185
 3029TIP3    H133282   7.409   6.160  25.080
 3029TIP3    H233283   7.520   6.136  25.371
 3030TIP3   OH233284   6.136   5.958  24.636
 3030TIP3    H133285   6.093   6.012  24.429
 3030TIP3    H233286   6.078   5.977  24.864
 3031TIP3   OH233287   6.818   6.893  22.755
 3031TIP3    H133288   6.801   6.883  22.467
 3031TIP3    H233289   6.791   6.987  22.797
 3032TIP3   OH233290   6.344   6.738  24.621
 3032TIP3    H133291   6.299   6.813  24.750
 3032TIP3    H233292   6.418   6.781  24.474
 3033TIP3   OH233293   7.159   6.050  23.670
 3033TIP3    H133294   7.158   5.957  23.727
 3033TIP3    H233295   7.251   6.075  23.742
 3034TIP3   OH233296   6.080   6.150  24.054
 3034TIP3    H133297   6.144   6.213  24.177
 3034TIP3    H233298   6.129   6.119  23.814
 3035TIP3   OH233299   6.215   6.950  24.957
 3035TIP3    H133300   6.201   7.042  24.870
 3035TIP3    H233301   6.127   6.932  25.083
 3036TIP3   OH233302   5.798   6.886  22.203
 3036TIP3    H133303   5.822   6.938  21.969
 3036TIP3    H233304   5.803   6.953  22.416
 3037TIP3   OH233305   7.149   7.121  24.336
 3037TIP3    H133306   7.052   7.110  24.330
 3037TIP3    H233307   7.155   7.204  24.186
 3038TIP3   OH233308   7.196   5.955  24.675
 3038TIP3    H133309   7.106   5.973  24.567
 3038TIP3    H233310   7.250   5.955  24.432
 3039TIP3   OH233311   6.472   5.702  23.865
 3039TIP3    H133312   6.452   5.607  23.865
 3039TIP3    H233313   6.382   5.736  23.940
 3040TIP3   OH233314   6.999   7.234  23.313
 3040TIP3    H133315   7.020   7.155  23.160
 3040TIP3    H233316   7.058   7.298  23.175
 3041TIP3   OH233317   7.121   7.018  22.791
 3041TIP3    H133318   7.091   6.945  22.623
 3041TIP3    H233319   7.149   6.970  23.031
 3042TIP3   OH233320   7.249   6.890  25.389
 3042TIP3    H133321   7.246   6.820  25.176
 3042TIP3    H233322   7.282   6.963  25.224
 3043TIP3   OH233323   6.716   6.584  22.215
 3043TIP3    H133324   6.666   6.667  22.176
 3043TIP3    H233325   6.800   6.600  22.074
 3044TIP3   OH233326   7.401   6.519  24.699
 3044TIP3    H133327   7.347   6.601  24.720
 3044TIP3    H233328   7.480   6.554  24.555
 3045TIP3   OH233329   7.094   6.605  22.545
 3045TIP3    H133330   7.016   6.622  22.716
 3045TIP3    H233331   7.147   6.548  22.725
 3046TIP3   OH233332   7.073   6.439  25.314
 3046TIP3    H133333   7.032   6.514  25.452
 3046TIP3    H233334   7.018   6.437  25.074
 3047TIP3   OH233335   6.228   6.666  23.097
 3047TIP3    H133336   6.201   6.617  22.854
 3047TIP3    H233337   6.286   6.602  23.232
 3048TIP3   OH233338   6.362   7.000  23.880
 3048TIP3    H133339   6.383   7.027  23.604
 3048TIP3    H233340   6.444   6.964  23.991
 3049TIP3   OH233341   6.242   6.536  24.267
 3049TIP3    H133342   6.275   6.535  23.988
 3049TIP3    H233343   6.297   6.607  24.387
 3050TIP3   OH233344   6.877   7.107  24.369
 3050TIP3    H133345   6.862   7.180  24.561
 3050TIP3    H233346   6.856   7.027  24.531
 3051TIP3   OH233347   6.362   6.987  25.641
 3051TIP3    H133348   6.299   7.051  25.758
 3051TIP3    H233349   6.322   6.972  25.374
 3052TIP3   OH233350   6.960   6.530  21.909
 3052TIP3    H133351   7.022   6.549  22.134
 3052TIP3    H233352   7.009   6.570  21.684
 3053TIP3   OH233353   6.075   6.594  25.377
 3053TIP3    H133354   6.070   6.684  25.485
 3053TIP3    H233355   6.000   6.554  25.518
 3054TIP3   OH233356   6.757   7.165  22.977
 3054TIP3    H133357   6.803   7.199  23.211
 3054TIP3    H233358   6.694   7.236  22.920
 3055TIP3   OH233359   6.174   7.172  25.872
 3055TIP3    H133360   6.166   7.186  25.581
 3055TIP3    H233361   6.092   7.122  25.935
 3056TIP3   OH233362   6.121   6.551  22.416
 3056TIP3    H133363   6.078   6.633  22.332
 3056TIP3    H233364   6.066   6.484  22.284
 3057TIP3   OH233365   5.765   6.822  25.128
 3057TIP3    H133366   5.727   6.813  24.861
 3057TIP3    H233367   5.795   6.730  25.176
 3058TIP3   OH233368   5.758   7.073  24.048
 3058TIP3    H133369   5.853   7.054  24.060
 3058TIP3    H233370   5.750   7.149  24.228
 3059TIP3   OH233371   7.530   7.163  25.896
 3059TIP3    H133372   7.514   7.076  25.776
 3059TIP3    H233373   7.448   7.177  26.052
 3060TIP3   OH233374   6.625   7.080  25.470
 3060TIP3    H133375   6.642   7.167  25.593
 3060TIP3    H233376   6.532   7.061  25.545
 3061TIP3   OH233377   6.702   7.473  22.440
 3061TIP3    H133378   6.659   7.455  22.182
 3061TIP3    H233379   6.665   7.559  22.500
 3062TIP3   OH233380   6.049   7.322  23.013
 3062TIP3    H133381   6.074   7.312  23.295
 3062TIP3    H233382   5.986   7.248  22.980
 3063TIP3   OH233383   7.047   7.404  21.582
 3063TIP3    H133384   7.002   7.348  21.387
 3063TIP3    H233385   7.003   7.371  21.825
 3064TIP3   OH233386   6.932   7.349  22.317
 3064TIP3    H133387   6.850   7.395  22.404
 3064TIP3    H233388   6.935   7.273  22.500
 3065TIP3   OH233389   7.236   6.310  25.965
 3065TIP3    H133390   7.170   6.335  25.764
 3065TIP3    H233391   7.252   6.215  25.905
 3066TIP3   OH233392   5.992   6.932  25.392
 3066TIP3    H133393   5.989   6.897  25.668
 3066TIP3    H233394   5.902   6.911  25.287
 3067TIP3   OH233395   6.232   5.783  24.120
 3067TIP3    H133396   6.141   5.789  24.012
 3067TIP3    H233397   6.220   5.844  24.348
 3068TIP3   OH233398   6.725   5.745  25.116
 3068TIP3    H133399   6.753   5.709  25.377
 3068TIP3    H233400   6.627   5.752  25.146
 3069TIP3   OH233401   6.997   6.159  25.458
 3069TIP3    H133402   6.948   6.120  25.686
 3069TIP3    H233403   7.000   6.253  25.527
 3070TIP3   OH233404   7.081   6.634  21.219
 3070TIP3    H133405   7.084   6.588  20.964
 3070TIP3    H233406   7.160   6.689  21.186
 3071TIP3   OH233407   6.256   6.296  24.552
 3071TIP3    H133408   6.175   6.286  24.717
 3071TIP3    H233409   6.245   6.392  24.480
 3072TIP3   OH233410   6.249   6.296  23.034
 3072TIP3    H133411   6.153   6.293  22.977
 3072TIP3    H233412   6.285   6.278  22.764
 3073TIP3   OH233413   6.825   6.340  22.497
 3073TIP3    H133414   6.783   6.421  22.386
 3073TIP3    H233415   6.910   6.380  22.575
 3074TIP3   OH233416   6.680   6.380  26.082
 3074TIP3    H133417   6.645   6.294  26.175
 3074TIP3    H233418   6.754   6.391  26.268
 3075TIP3   OH233419   6.900   6.313  23.526
 3075TIP3    H133420   6.884   6.399  23.397
 3075TIP3    H233421   6.901   6.252  23.298
 3076TIP3   OH233422   6.020   6.288  24.906
 3076TIP3    H133423   6.042   6.326  25.164
 3076TIP3    H233424   5.980   6.203  24.984
 3077TIP3   OH233425   5.703   6.019  23.307
 3077TIP3    H133426   5.762   6.031  23.538
 3077TIP3    H233427   5.752   6.062  23.091
 3078TIP3   OH233428   5.772   6.100  21.840
 3078TIP3    H133429   5.840   6.123  21.639
 3078TIP3    H233430   5.756   6.192  21.927
 3079TIP3   OH233431   6.826   6.464  24.771
 3079TIP3    H133432   6.872   6.388  24.639
 3079TIP3    H233433   6.769   6.416  24.957
 3080TIP3   OH233434   6.529   6.002  23.283
 3080TIP3    H133435   6.432   6.002  23.253
 3080TIP3    H233436   6.539   6.048  23.538
 3081TIP3   OH233437   5.972   6.216  22.995
 3081TIP3    H133438   5.903   6.249  22.809
 3081TIP3    H233439   5.998   6.129  22.881
 3082TIP3   OH233440   6.308   6.237  22.266
 3082TIP3    H133441   6.405   6.235  22.293
 3082TIP3    H233442   6.292   6.296  22.041
 3083TIP3   OH233443   6.951   5.974  24.330
 3083TIP3    H133444   6.873   5.974  24.507
 3083TIP3    H233445   6.913   5.944  24.072
 3084TIP3   OH233446   6.220   6.353  21.408
 3084TIP3    H133447   6.175   6.324  21.162
 3084TIP3    H233448   6.309   6.369  21.294
 3085TIP3   OH233449   7.228   7.531  26.226
 3085TIP3    H133450   7.257   7.559  25.959
 3085TIP3    H233451   7.311   7.535  26.379
 3086TIP3   OH233452   6.027   6.765  26.058
 3086TIP3    H133453   6.090   6.804  26.247
 3086TIP3    H233454   5.946   6.753  26.223
 3087TIP3   OH233455   6.603   6.315  23.748
 3087TIP3    H133456   6.698   6.309  23.685
 3087TIP3    H233457   6.603   6.293  24.030
 3088TIP3   OH233458   6.055   5.969  22.767
 3088TIP3    H133459   6.009   5.892  22.887
 3088TIP3    H233460   6.096   5.930  22.530
 3089TIP3   OH233461   6.475   6.148  24.606
 3089TIP3    H133462   6.397   6.210  24.597
 3089TIP3    H233463   6.540   6.201  24.750
 3090TIP3   OH233464   6.536   6.787  22.083
 3090TIP3    H133465   6.466   6.721  22.029
 3090TIP3    H233466   6.510   6.816  22.356
 3091TIP3   OH233467   7.254   6.746  24.741
 3091TIP3    H133468   7.306   6.780  24.516
 3091TIP3    H233469   7.171   6.719  24.603
 3092TIP3   OH233470   6.686   6.819  25.506
 3092TIP3    H133471   6.660   6.792  25.773
 3092TIP3    H233472   6.673   6.916  25.518
 3093TIP3   OH233473   6.063   6.752  23.754
 3093TIP3    H133474   6.119   6.738  23.514
 3093TIP3    H233475   6.090   6.680  23.931
 3094TIP3   OH233476   6.777   6.904  21.951
 3094TIP3    H133477   6.754   6.992  21.849
 3094TIP3    H233478   6.687   6.861  21.948
 3095TIP3   OH233479   5.776   6.554  25.416
 3095TIP3    H133480   5.751   6.501  25.653
 3095TIP3    H233481   5.715   6.521  25.209
 3096TIP3   OH233482   6.445   6.521  26.007
 3096TIP3    H133483   6.406   6.461  25.809
 3096TIP3    H233484   6.539   6.492  26.004
 3097TIP3   OH233485   6.953   7.052  25.521
 3097TIP3    H133486   6.862   7.058  25.425
 3097TIP3    H233487   6.941   7.091  25.788
 3098TIP3   OH233488   7.417   6.316  22.086
 3098TIP3    H133489   7.413   6.283  21.807
 3098TIP3    H233490   7.454   6.404  22.041
 3099TIP3   OH233491   7.473   6.868  25.773
 3099TIP3    H133492   7.378   6.890  25.710
 3099TIP3    H233493   7.510   6.865  25.500
 3100TIP3   OH233494   7.288   7.119  22.017
 3100TIP3    H133495   7.252   7.111  22.290
 3100TIP3    H233496   7.211   7.084  21.867
 3101TIP3   OH233497   7.066   6.653  24.219
 3101TIP3    H133498   6.971   6.643  24.168
 3101TIP3    H233499   7.102   6.584  24.042
 3102TIP3   OH233500   6.291   7.068  23.076
 3102TIP3    H133501   6.313   7.154  22.944
 3102TIP3    H233502   6.197   7.063  23.004
 3103TIP3   OH233503   5.876   6.585  21.600
 3103TIP3    H133504   5.927   6.555  21.363
 3103TIP3    H233505   5.788   6.562  21.510
 3104TIP3   OH233506   6.438   6.850  22.854
 3104TIP3    H133507   6.394   6.936  22.896
 3104TIP3    H233508   6.379   6.790  22.998
 3105TIP3   OH233509   6.486   7.257  24.972
 3105TIP3    H133510   6.537   7.336  24.903
 3105TIP3    H233511   6.557   7.197  25.062
 3106TIP3   OH233512   6.308   7.306  22.746
 3106TIP3    H133513   6.223   7.343  22.833
 3106TIP3    H233514   6.364   7.386  22.767
 3107TIP3   OH233515   6.801   6.855  24.735
 3107TIP3    H133516   6.757   6.840  24.999
 3107TIP3    H233517   6.863   6.781  24.741
 3108TIP3   OH233518   7.072   6.986  21.567
 3108TIP3    H133519   7.090   6.921  21.783
 3108TIP3    H233520   6.977   6.973  21.567
 3109TIP3   OH233521   7.091   7.319  25.479
 3109TIP3    H133522   7.017   7.261  25.389
 3109TIP3    H233523   7.108   7.381  25.260
 3110TIP3   OH233524   7.515   7.354  21.468
 3110TIP3    H133525   7.566   7.433  21.411
 3110TIP3    H233526   7.432   7.394  21.561
 3111TIP3   OH233527   5.940   6.038  25.266
 3111TIP3    H133528   5.859   6.085  25.341
 3111TIP3    H233529   5.928   5.953  25.407
 3112TIP3   OH233530   7.147   6.830  22.140
 3112TIP3    H133531   7.118   6.742  22.233
 3112TIP3    H233532   7.242   6.824  22.206
 3113TIP3   OH233533   5.901   7.198  24.852
 3113TIP3    H133534   5.952   7.116  24.822
 3113TIP3    H233535   5.957   7.245  25.044
 3114TIP3   OH233536   6.797   6.016  25.068
 3114TIP3    H133537   6.883   6.035  25.197
 3114TIP3    H233538   6.776   5.925  25.146
 3115TIP3   OH233539   6.846   5.984  22.404
 3115TIP3    H133540   6.918   5.939  22.266
 3115TIP3    H233541   6.891   5.999  22.662
 3116TIP3   OH233542   6.569   6.148  22.515
 3116TIP3    H133543   6.655   6.191  22.560
 3116TIP3    H233544   6.553   6.105  22.770
 3117TIP3   OH233545   6.690   6.278  25.248
 3117TIP3    H133546   6.682   6.301  25.533
 3117TIP3    H233547   6.738   6.193  25.251
 3118TIP3   OH233548   6.661   5.828  22.866
 3118TIP3    H133549   6.606   5.893  23.016
 3118TIP3    H233550   6.730   5.885  22.749
 3119TIP3   OH233551   6.241   5.955  21.960
 3119TIP3    H133552   6.230   6.051  21.987
 3119TIP3    H233553   6.337   5.945  21.978
 3120TIP3   OH233554   7.234   6.049  25.641
 3120TIP3    H133555   7.149   6.066  25.503
 3120TIP3    H233556   7.298   6.060  25.422
 3121TIP3   OH233557   7.124   6.453  23.673
 3121TIP3    H133558   7.044   6.398  23.673
 3121TIP3    H233559   7.175   6.402  23.871
 3122TIP3   OH233560   5.859   6.300  21.234
 3122TIP3    H133561   5.944   6.347  21.198
 3122TIP3    H233562   5.845   6.275  20.952
 3123TIP3   OH233563   7.266   7.388  24.312
 3123TIP3    H133564   7.243   7.431  24.054
 3123TIP3    H233565   7.361   7.370  24.270
 3124TIP3   OH233566   5.973   5.762  23.943
 3124TIP3    H133567   5.977   5.750  23.649
 3124TIP3    H233568   5.954   5.670  24.030
 3125TIP3   OH233569   5.841   7.129  22.764
 3125TIP3    H133570   5.778   7.192  22.878
 3125TIP3    H233571   5.856   7.172  22.503
 3126TIP3   OH233572   5.795   7.427  26.130
 3126TIP3    H133573   5.884   7.421  26.247
 3126TIP3    H233574   5.767   7.333  26.130
 3127TIP3   OH233575   6.274   7.281  26.580
 3127TIP3    H133576   6.371   7.282  26.595
 3127TIP3    H233577   6.256   7.247  26.310
 3128TIP3   OH233578   6.900   7.163  26.256
 3128TIP3    H133579   6.864   7.076  26.334
 3128TIP3    H233580   6.980   7.167  26.424
 3129TIP3   OH233581   5.770   6.788  26.394
 3129TIP3    H133582   5.730   6.700  26.415
 3129TIP3    H233583   5.716   6.826  26.178
 3130TIP3   OH233584   6.452   6.787  26.175
 3130TIP3    H133585   6.426   6.838  25.938
 3130TIP3    H233586   6.429   6.694  26.103
 3131TIP3   OH233587   7.025   6.758  25.488
 3131TIP3    H133588   7.114   6.799  25.515
 3131TIP3    H233589   6.972   6.840  25.524
 3132TIP3   OH233590   5.906   6.497  26.364
 3132TIP3    H133591   5.994   6.457  26.340
 3132TIP3    H233592   5.923   6.556  26.595
 3133TIP3   OH233593   6.338   6.599  21.798
 3133TIP3    H133594   6.274   6.572  21.999
 3133TIP3    H233595   6.314   6.536  21.585
 3134TIP3   OH233596   6.265   6.402  25.386
 3134TIP3    H133597   6.208   6.481  25.416
 3134TIP3    H233598   6.333   6.437  25.206
 3135TIP3   OH233599   6.440   6.443  21.081
 3135TIP3    H133600   6.435   6.444  20.790
 3135TIP3    H233601   6.515   6.500  21.138
 3136TIP3   OH233602   6.795   6.683  26.454
 3136TIP3    H133603   6.860   6.647  26.262
 3136TIP3    H233604   6.779   6.604  26.619
 3137TIP3   OH233605   6.306   6.137  25.647
 3137TIP3    H133606   6.339   6.076  25.437
 3137TIP3    H233607   6.297   6.222  25.512
 3138TIP3   OH233608   6.367   5.964  25.035
 3138TIP3    H133609   6.413   6.013  24.813
 3138TIP3    H233610   6.276   5.961  24.930
 3139TIP3   OH233611   6.480   6.554  25.041
 3139TIP3    H133612   6.565   6.599  25.020
 3139TIP3    H233613   6.422   6.618  24.903
 3140TIP3   OH233614   6.975   6.275  26.535
 3140TIP3    H133615   7.032   6.198  26.514
 3140TIP3    H233616   7.034   6.341  26.646
 3141TIP3   OH233617   7.062   6.606  26.139
 3141TIP3    H133618   7.046   6.659  25.896
 3141TIP3    H233619   7.156   6.582  26.100
 3142TIP3   OH233620   6.167   6.249  26.304
 3142TIP3    H133621   6.081   6.201  26.295
 3142TIP3    H233622   6.210   6.217  26.058
 3143TIP3   OH233623   6.454   5.718  25.053
 3143TIP3    H133624   6.424   5.812  25.065
 3143TIP3    H233625   6.370   5.675  24.972
 3144TIP3   OH233626   6.554   6.137  26.307
 3144TIP3    H133627   6.500   6.118  26.547
 3144TIP3    H233628   6.494   6.112  26.097
 3145TIP3   OH233629   6.824   6.060  26.046
 3145TIP3    H133630   6.730   6.060  26.130
 3145TIP3    H233631   6.868   6.021  26.280
 3146TIP3   OH233632   7.009   5.945  26.541
 3146TIP3    H133633   7.003   5.847  26.523
 3146TIP3    H233634   6.990   5.963  26.823
 3147TIP3   OH233635   5.960   6.056  26.331
 3147TIP3    H133636   5.950   5.978  26.157
 3147TIP3    H233637   5.947   6.018  26.601
 3148TIP3   OH233638   6.413   5.682  25.851
 3148TIP3    H133639   6.494   5.635  25.932
 3148TIP3    H233640   6.425   5.684  25.560
 3149TIP3   OH233641   6.482   5.854  26.631
 3149TIP3    H133642   6.429   5.788  26.487
 3149TIP3    H233643   6.412   5.917  26.712
 3150TIP3   OH233644   5.670   7.501  22.866
 3150TIP3    H133645   5.604   7.461  22.686
 3150TIP3    H233646   5.660   7.442  23.094
 3151TIP3   OH233647   5.755   7.306  23.466
 3151TIP3    H133648   5.693   7.246  23.604
 3151TIP3    H233649   5.830   7.308  23.658
 3152TIP3   OH233650   7.548   7.369  24.309
 3152TIP3    H133651   7.571   7.393  24.582
 3152TIP3    H233652   7.536   7.459  24.204
 3153TIP3   OH233653   7.466   7.344  25.215
 3153TIP3    H133654   7.414   7.277  25.065
 3153TIP3    H233655   7.526   7.285  25.359
 3154TIP3   OH233656   7.286   6.953  26.604
 3154TIP3    H133657   7.213   6.966  26.799
 3154TIP3    H233658   7.340   7.032  26.649
 3155TIP3   OH233659   7.406   6.762  22.293
 3155TIP3    H133660   7.492   6.803  22.347
 3155TIP3    H233661   7.410   6.683  22.470
 3156TIP3   OH233662   7.477   6.570  22.806
 3156TIP3    H133663   7.384   6.543  22.845
 3156TIP3    H233664   7.508   6.576  23.082
 3157TIP3   OH233665   7.477   6.826  24.294
 3157TIP3    H133666   7.565   6.809  24.177
 3157TIP3    H233667   7.472   6.920  24.207
 3158TIP3   OH233668   7.318   7.135  24.975
 3158TIP3    H133669   7.241   7.168  25.125
 3158TIP3    H233670   7.280   7.129  24.705
 3159TIP3   OH233671   7.358   6.269  21.282
 3159TIP3    H133672   7.307   6.339  21.153
 3159TIP3    H233673   7.304   6.189  21.228
 3160TIP3   OH233674   7.246   6.434  22.962
 3160TIP3    H133675   7.232   6.341  22.872
 3160TIP3    H233676   7.216   6.430  23.244
 3161TIP3   OH233677   5.759   6.655  24.219
 3161TIP3    H133678   5.768   6.631  23.931
 3161TIP3    H233679   5.847   6.619  24.309
 3162TIP3   OH233680   7.346   6.625  25.908
 3162TIP3    H133681   7.410   6.554  25.839
 3162TIP3    H233682   7.396   6.706  25.839
 3163TIP3   OH233683   7.492   6.408  25.953
 3163TIP3    H133684   7.395   6.396  26.001
 3163TIP3    H233685   7.519   6.314  26.010
 3164TIP3   OH233686   7.195   6.050  21.156
 3164TIP3    H133687   7.253   5.977  21.243
 3164TIP3    H233688   7.187   6.024  20.877
 3165TIP3   OH233689   7.241   6.193  22.569
 3165TIP3    H133690   7.243   6.096  22.524
 3165TIP3    H233691   7.304   6.226  22.362
 3166TIP3   OH233692   7.237   6.281  24.180
 3166TIP3    H133693   7.333   6.267  24.138
 3166TIP3    H233694   7.231   6.266  24.468
 3167TIP3   OH233695   7.291   6.304  25.035
 3167TIP3    H133696   7.204   6.344  25.104
 3167TIP3    H233697   7.331   6.380  24.894
 3168TIP3   OH233698   5.733   6.161  26.028
 3168TIP3    H133699   5.815   6.147  26.178
 3168TIP3    H233700   5.685   6.076  26.067
 3169TIP3   OH233701   7.503   5.700  26.553
 3169TIP3    H133702   7.557   5.644  26.382
 3169TIP3    H233703   7.493   5.780  26.382
 3170TIP3   OH233704   7.246   5.923  22.515
 3170TIP3    H133705   7.267   5.877  22.767
 3170TIP3    H233706   7.276   5.857  22.317
 3171TIP3   OH233707   5.845   5.997  24.084
 3171TIP3    H133708   5.882   5.906  24.072
 3171TIP3    H233709   5.926   6.052  24.087
 3172TIP3   OH233710   5.698   6.304  24.282
 3172TIP3    H133711   5.745   6.286  24.033
 3172TIP3    H233712   5.745   6.385  24.363
 3173TIP3   OH233713   7.450   5.916  26.136
 3173TIP3    H133714   7.372   5.973  26.214
 3173TIP3    H233715   7.424   5.889  25.869
 3174TIP3   OH233716   5.684   5.909  22.365
 3174TIP3    H133717   5.593   5.940  22.422
 3174TIP3    H233718   5.715   5.974  22.170
 3175TIP3   OH233719   7.158   7.402  22.938
 3175TIP3    H133720   7.225   7.404  22.722
 3175TIP3    H233721   7.204   7.447  23.157
 3176TIP3   OH233722   5.713   5.775  24.924
 3176TIP3    H133723   5.656   5.751  25.149
 3176TIP3    H233724   5.663   5.845  24.786
 3177TIP3   OH233725   5.931   7.077  26.124
 3177TIP3    H133726   5.845   7.073  25.992
 3177TIP3    H233727   5.908   7.098  26.397
 3178TIP3   OH233728   6.221   7.222  25.104
 3178TIP3    H133729   6.216   7.318  25.038
 3178TIP3    H233730   6.319   7.218  25.137
 3179TIP3   OH233731   6.673   7.320  25.848
 3179TIP3    H133732   6.656   7.304  26.133
 3179TIP3    H233733   6.750   7.380  25.860
 3180TIP3   OH233734   6.893   7.505  25.725
 3180TIP3    H133735   6.967   7.450  25.632
 3180TIP3    H233736   6.916   7.509  26.013
 3181TIP3   OH233737   7.359   5.730  25.518
 3181TIP3    H133738   7.280   5.767  25.386
 3181TIP3    H233739   7.368   5.643  25.386
 3182TIP3   OH233740   5.941   7.547  25.011
 3182TIP3    H133741   5.851   7.547  24.894
 3182TIP3    H233742   5.918   7.540  25.293
 3183TIP3   OH233743   6.193   7.473  24.870
 3183TIP3    H133744   6.105   7.513  24.939
 3183TIP3    H233745   6.208   7.514  24.609
 3184TIP3   OH233746   6.679   7.465  24.507
 3184TIP3    H133747   6.611   7.489  24.303
 3184TIP3    H233748   6.685   7.549  24.657
 3185TIP3   OH233749   6.876   7.322  24.885
 3185TIP3    H133750   6.804   7.378  24.783
 3185TIP3    H233751   6.952   7.380  24.831
 3186TIP3   OH233752   7.132   7.547  24.843
 3186TIP3    H133753   7.122   7.632  24.699
 3186TIP3    H233754   7.182   7.492  24.645
 3187TIP3   OH233755   5.919   7.333  24.111
 3187TIP3    H133756   5.904   7.283  24.360
 3187TIP3    H233757   6.007   7.298  24.024
 3188TIP3   OH233758   6.144   7.272  23.739
 3188TIP3    H133759   6.139   7.175  23.778
 3188TIP3    H233760   6.234   7.288  23.850
 3189TIP3   OH233761   6.369   7.268  24.150
 3189TIP3    H133762   6.394   7.174  24.117
 3189TIP3    H233763   6.379   7.282  24.438
 3190TIP3   OH233764   6.811   5.868  23.667
 3190TIP3    H133765   6.741   5.847  23.856
 3190TIP3    H233766   6.760   5.880  23.421
 3191TIP3   OH233767   7.206   5.682  23.775
 3191TIP3    H133768   7.267   5.733  23.598
 3191TIP3    H233769   7.143   5.651  23.580
 3192TIP3   OH233770   7.353   5.837  23.253
 3192TIP3    H133771   7.415   5.770  23.142
 3192TIP3    H233772   7.419   5.904  23.340
 3193TIP3   OH233773   5.964   5.737  23.109
 3193TIP3    H133774   5.878   5.736  22.977
 3193TIP3    H233775   5.997   5.646  23.049
 3194TIP3   OH233776   5.821   5.728  21.771
 3194TIP3    H133777   5.779   5.792  21.588
 3194TIP3    H233778   5.773   5.751  22.014
 3195TIP3   OH233779   6.362   5.706  23.046
 3195TIP3    H133780   6.430   5.748  22.878
 3195TIP3    H233781   6.395   5.720  23.316
 3196TIP3   OH233782   5.848   7.311  22.155
 3196TIP3    H133783   5.766   7.301  22.002
 3196TIP3    H233784   5.891   7.383  22.008
 3197TIP3   OH233785   6.529   5.907  22.071
 3197TIP3    H133786   6.582   5.858  22.266
 3197TIP3    H233787   6.539   5.999  22.164
 3198TIP3   OH233788   7.367   7.376  22.449
 3198TIP3    H133789   7.355   7.285  22.344
 3198TIP3    H233790   7.364   7.426  22.197
 3199TIP3   OH233791   5.905   5.808  25.809
 3199TIP3    H133792   5.861   5.723  25.866
 3199TIP3    H233793   5.978   5.797  26.010
 3200TIP3   OH233794   6.094   5.727  26.292
 3200TIP3    H133795   6.180   5.715  26.166
 3200TIP3    H233796   6.119   5.698  26.565
 3201TIP3   OH233797   6.990   5.670  26.487
 3201TIP3    H133798   6.983   5.630  26.754
 3201TIP3    H233799   7.074   5.629  26.394
 3202TIP3   OH233800   7.283   7.252  26.070
 3202TIP3    H133801   7.215   7.274  25.869
 3202TIP3    H233802   7.307   7.340  26.166
 3203TIP3   OH233803   7.588   6.310  22.725
 3203TIP3    H133804   7.555   6.402  22.737
 3203TIP3    H233805   7.541   6.281  22.485
 3204TIP3   OH233806   7.574   6.784  25.074
 3204TIP3    H133807   7.529   6.774  24.813
 3204TIP3    H233808   7.583   6.691  25.170
 3205TIP3   OH233809   7.559   7.059  24.084
 3205TIP3    H133810   7.651   7.060  23.982
 3205TIP3    H233811   7.559   7.140  24.246
 3206TIP3   OH233812   7.556   6.020  23.286
 3206TIP3    H133813   7.626   6.089  23.262
 3206TIP3    H233814   7.537   6.003  23.001
 3207TIP3   OH233815   7.590   6.534  25.314
 3207TIP3    H133816   7.583   6.479  25.557
 3207TIP3    H233817   7.511   6.506  25.167
 3208TIP3   OH233818   7.626   6.751  26.313
 3208TIP3    H133819   7.612   6.656  26.283
 3208TIP3    H233820   7.558   6.790  26.130
 3209TIP3   OH233821   7.496   7.529  23.034
 3209TIP3    H133822   7.432   7.494  22.836
 3209TIP3    H233823   7.507   7.449  23.202
 3210TIP3   OH233824   7.558   7.306  23.442
 3210TIP3    H133825   7.515   7.228  23.559
 3210TIP3    H233826   7.641   7.307  23.598
 3211TIP3   OH233827   7.626   6.580  24.312
 3211TIP3    H133828   7.618   6.591  24.024
 3211TIP3    H233829   7.707   6.633  24.354
 3212TIP3   OH233830   7.547   6.157  26.031
 3212TIP3    H133831   7.644   6.151  25.995
 3212TIP3    H233832   7.525   6.063  26.070
 3213TIP3   OH233833   7.505   6.267  24.174
 3213TIP3    H133834   7.603   6.261  24.156
 3213TIP3    H233835   7.495   6.359  24.255
 3214TIP3   OH233836   7.536   5.930  22.521
 3214TIP3    H133837   7.450   5.972  22.470
 3214TIP3    H233838   7.553   5.887  22.263
 3215TIP3   OH233839   7.485   5.749  24.798
 3215TIP3    H133840   7.464   5.772  25.077
 3215TIP3    H233841   7.457   5.829  24.648
 3216TIP3   OH233842   0.805   7.535  24.066
 3216TIP3    H133843   0.801   7.482  23.817
 3216TIP3    H233844   0.710   7.563  24.099
 3217TIP3   OH233845   1.720   7.501  21.831
 3217TIP3    H133846   1.625   7.511  21.786
 3217TIP3    H233847   1.747   7.594  21.798
 3218TIP3   OH233848   0.579  -0.021  24.177
 3218TIP3    H133849   0.485  -0.034  24.090
 3218TIP3    H233850   0.592   0.076  24.168
 3219TIP3   OH233851   1.078   7.599  25.149
 3219TIP3    H133852   1.155   7.572  25.314
 3219TIP3    H233853   1.010   7.538  25.251
 3220TIP3   OH233854   0.325   7.605  23.961
 3220TIP3    H133855   0.310   7.596  23.667
 3220TIP3    H233856   0.288   7.518  24.048
 3221TIP3   OH233857   0.795   7.517  25.071
 3221TIP3    H133858   0.785   7.613  25.026
 3221TIP3    H233859   0.731   7.480  24.882
 3222TIP3   OH233860   0.753   7.498  25.872
 3222TIP3    H133861   0.815   7.440  26.007
 3222TIP3    H233862   0.776   7.485  25.587
 3223TIP3   OH233863   1.801   7.547  26.364
 3223TIP3    H133864   1.885   7.516  26.238
 3223TIP3    H233865   1.840   7.612  26.550
 3224TIP3   OH233866   0.055   7.616  24.888
 3224TIP3    H133867  -0.009   7.662  25.053
 3224TIP3    H233868   0.075   7.685  24.693
 3225TIP3   OH233869   1.668   7.576  25.386
 3225TIP3    H133870   1.605   7.552  25.173
 3225TIP3    H233871   1.724   7.495  25.395
 3226TIP3   OH233872   1.587   7.542  23.694
 3226TIP3    H133873   1.600   7.637  23.754
 3226TIP3    H233874   1.496   7.548  23.595
 3227TIP3   OH233875   0.275   7.565  23.175
 3227TIP3    H133876   0.194   7.545  23.019
 3227TIP3    H233877   0.336   7.500  23.052
 3228TIP3   OH233878   0.210   7.545  21.741
 3228TIP3    H133879   0.234   7.641  21.732
 3228TIP3    H233880   0.142   7.552  21.945
 3229TIP3   OH233881   0.736   7.528  23.181
 3229TIP3    H133882   0.794   7.579  23.010
 3229TIP3    H233883   0.662   7.590  23.217
 3230TIP3   OH233884   1.294   7.545  23.487
 3230TIP3    H133885   1.230   7.545  23.268
 3230TIP3    H233886   1.256   7.480  23.664
 3231TIP3   OH233887   1.398   7.561  22.146
 3231TIP3    H133888   1.358   7.573  21.885
 3231TIP3    H233889   1.364   7.475  22.233
 3232TIP3   OH233890   0.443   7.531  26.238
 3232TIP3    H133891   0.525   7.501  26.112
 3232TIP3    H233892   0.430   7.463  26.448
 3233TIP3   OH233893   1.326   7.456  26.478
 3233TIP3    H133894   1.345   7.431  26.757
 3233TIP3    H233895   1.418   7.470  26.382
 3234TIP3   OH233896   2.715   7.532  24.069
 3234TIP3    H133897   2.705   7.466  23.856
 3234TIP3    H233898   2.620   7.550  24.129
 3235TIP3   OH233899   3.544   7.501  21.861
 3235TIP3    H133900   3.453   7.510  21.960
 3235TIP3    H233901   3.569   7.594  21.822
 3236TIP3   OH233902   2.466   7.632  24.207
 3236TIP3    H133903   2.371   7.619  24.132
 3236TIP3    H233904   2.475   7.730  24.180
 3237TIP3   OH233905   2.955   7.609  25.188
 3237TIP3    H133906   3.026   7.566  25.350
 3237TIP3    H233907   2.879   7.553  25.260
 3238TIP3   OH233908   2.202   7.590  23.925
 3238TIP3    H133909   2.194   7.583  23.634
 3238TIP3    H233910   2.176   7.498  24.006
 3239TIP3   OH233911   2.690   7.517  25.119
 3239TIP3    H133912   2.691   7.615  25.083
 3239TIP3    H233913   2.606   7.495  24.981
 3240TIP3   OH233914   2.626   7.489  25.893
 3240TIP3    H133915   2.705   7.457  26.034
 3240TIP3    H233916   2.656   7.481  25.614
 3241TIP3   OH233917   3.687   7.546  26.406
 3241TIP3    H133918   3.772   7.507  26.322
 3241TIP3    H233919   3.716   7.633  26.508
 3242TIP3   OH233920   1.921   7.587  24.882
 3242TIP3    H133921   1.845   7.593  25.062
 3242TIP3    H233922   1.938   7.681  24.813
 3243TIP3   OH233923   3.552   7.582  25.434
 3243TIP3    H133924   3.497   7.560  25.200
 3243TIP3    H233925   3.593   7.495  25.488
 3244TIP3   OH233926   3.479   7.536  23.667
 3244TIP3    H133927   3.519   7.624  23.703
 3244TIP3    H233928   3.385   7.563  23.673
 3245TIP3   OH233929   2.158   7.556  23.124
 3245TIP3    H133930   2.070   7.542  23.001
 3245TIP3    H233931   2.207   7.479  23.010
 3246TIP3   OH233932   2.654   7.532  23.181
 3246TIP3    H133933   2.703   7.609  23.088
 3246TIP3    H233934   2.565   7.569  23.193
 3247TIP3   OH233935   3.216   7.579  23.391
 3247TIP3    H133936   3.161   7.592  23.157
 3247TIP3    H233937   3.168   7.503  23.517
 3248TIP3   OH233938   3.300   7.590  22.101
 3248TIP3    H133939   3.239   7.552  21.903
 3248TIP3    H233940   3.283   7.527  22.320
 3249TIP3   OH233941   2.355   7.528  26.169
 3249TIP3    H133942   2.439   7.478  26.139
 3249TIP3    H233943   2.318   7.487  26.412
 3250TIP3   OH233944   3.213   7.462  26.502
 3250TIP3    H133945   3.228   7.440  26.784
 3250TIP3    H233946   3.306   7.470  26.409
 3251TIP3   OH233947   4.590   7.552  24.096
 3251TIP3    H133948   4.580   7.483  23.892
 3251TIP3    H233949   4.497   7.560  24.183
 3252TIP3   OH233950   5.453   7.536  21.822
 3252TIP3    H133951   5.360   7.561  21.873
 3252TIP3    H233952   5.493   7.625  21.861
 3253TIP3   OH233953   4.342   7.639  24.198
 3253TIP3    H133954   4.246   7.635  24.126
 3253TIP3    H233955   4.357   7.736  24.204
 3254TIP3   OH233956   4.840   7.615  25.203
 3254TIP3    H133957   4.913   7.578  25.371
 3254TIP3    H233958   4.769   7.552  25.278
 3255TIP3   OH233959   4.082   7.592  23.976
 3255TIP3    H133960   4.082   7.576  23.685
 3255TIP3    H233961   4.064   7.501  24.072
 3256TIP3   OH233962   4.574   7.528  25.116
 3256TIP3    H133963   4.568   7.623  25.044
 3256TIP3    H233964   4.486   7.496  25.032
 3257TIP3   OH233965   4.511   7.496  25.872
 3257TIP3    H133966   4.575   7.438  26.004
 3257TIP3    H233967   4.547   7.499  25.599
 3258TIP3   OH233968   5.565   7.544  26.379
 3258TIP3    H133969   5.649   7.517  26.244
 3258TIP3    H233970   5.602   7.610  26.562
 3259TIP3   OH233971   3.791   7.599  24.843
 3259TIP3    H133972   3.729   7.605  25.068
 3259TIP3    H233973   3.811   7.694  24.786
 3260TIP3   OH233974   5.441   7.581  25.401
 3260TIP3    H133975   5.376   7.567  25.185
 3260TIP3    H233976   5.489   7.495  25.389
 3261TIP3   OH233977   5.373   7.525  23.643
 3261TIP3    H133978   5.390   7.621  23.655
 3261TIP3    H233979   5.276   7.531  23.607
 3262TIP3   OH233980   4.056   7.539  23.160
 3262TIP3    H133981   3.969   7.537  23.019
 3262TIP3    H233982   4.094   7.453  23.070
 3263TIP3   OH233983   3.931   7.563  21.846
 3263TIP3    H133984   3.973   7.642  21.741
 3263TIP3    H233985   3.869   7.590  22.050
 3264TIP3   OH233986   4.514   7.518  23.193
 3264TIP3    H133987   4.556   7.586  23.019
 3264TIP3    H233988   4.446   7.574  23.307
 3265TIP3   OH233989   5.098   7.570  23.379
 3265TIP3    H133990   5.052   7.591  23.130
 3265TIP3    H233991   5.038   7.501  23.493
 3266TIP3   OH233992   5.189   7.592  22.092
 3266TIP3    H133993   5.140   7.545  21.876
 3266TIP3    H233994   5.170   7.536  22.320
 3267TIP3   OH233995   4.236   7.530  26.160
 3267TIP3    H133996   4.315   7.476  26.103
 3267TIP3    H233997   4.196   7.482  26.385
 3268TIP3   OH233998   5.090   7.482  26.487
 3268TIP3    H133999   5.107   7.452  26.763
 3268TIP3    H234000   5.182   7.479  26.382
 3269TIP3   OH234001   6.471   7.539  24.090
 3269TIP3    H134002   6.462   7.461  23.916
 3269TIP3    H234003   6.377   7.559  24.159
 3270TIP3   OH234004   7.327   7.509  21.780
 3270TIP3    H134005   7.231   7.499  21.798
 3270TIP3    H234006   7.337   7.607  21.801
 3271TIP3   OH234007   6.221   7.635  24.228
 3271TIP3    H134008   6.136   7.619  24.087
 3271TIP3    H234009   6.228   7.733  24.201
 3272TIP3   OH234010   6.732   7.604  25.185
 3272TIP3    H134011   6.800   7.571  25.377
 3272TIP3    H234012   6.663   7.538  25.230
 3273TIP3   OH234013   5.978   7.585  23.871
 3273TIP3    H134014   5.955   7.577  23.586
 3273TIP3    H234015   5.950   7.498  23.976
 3274TIP3   OH234016   6.474   7.532  25.113
 3274TIP3    H134017   6.465   7.629  25.059
 3274TIP3    H234018   6.384   7.501  25.050
 3275TIP3   OH234019   6.417   7.502  25.887
 3275TIP3    H134020   6.483   7.455  26.043
 3275TIP3    H234021   6.454   7.496  25.614
 3276TIP3   OH234022   7.516   7.522  26.457
 3276TIP3    H134023   7.599   7.509  26.310
 3276TIP3    H234024   7.539   7.595  26.637
 3277TIP3   OH234025   5.675   7.587  24.849
 3277TIP3    H134026   5.613   7.591  25.074
 3277TIP3    H234027   5.690   7.683  24.795
 3278TIP3   OH234028   7.323   7.568  25.419
 3278TIP3    H134029   7.264   7.570  25.185
 3278TIP3    H234030   7.363   7.478  25.389
 3279TIP3   OH234031   7.227   7.531  23.652
 3279TIP3    H134032   7.278   7.615  23.649
 3279TIP3    H234033   7.139   7.563  23.565
 3280TIP3   OH234034   5.929   7.559  23.058
 3280TIP3    H134035   5.839   7.538  22.956
 3280TIP3    H234036   5.976   7.477  22.980
 3281TIP3   OH234037   6.385   7.536  23.085
 3281TIP3    H134038   6.419   7.620  22.977
 3281TIP3    H234039   6.329   7.569  23.295
 3282TIP3   OH234040   6.981   7.578  23.289
 3282TIP3    H134041   6.995   7.543  23.019
 3282TIP3    H234042   6.918   7.513  23.403
 3283TIP3   OH234043   7.077   7.600  22.191
 3283TIP3    H134044   7.081   7.581  21.906
 3283TIP3    H234045   7.042   7.515  22.287
 3284TIP3   OH234046   6.122   7.536  26.151
 3284TIP3    H134047   6.195   7.475  26.088
 3284TIP3    H234048   6.083   7.491  26.385
 3285TIP3   OH234049   6.988   7.465  26.460
 3285TIP3    H134050   6.998   7.449  26.751
 3285TIP3    H234051   7.082   7.463  26.385
 3286TIP3   OH234052   7.452   7.599  24.657
 3286TIP3    H134053   7.455   7.608  24.945
 3286TIP3    H234054   7.478   7.688  24.576
 3287TIP3   OH234055   1.237   1.014  28.653
 3287TIP3    H134056   1.223   1.110  28.668
 3287TIP3    H234057   1.146   0.979  28.656
 3288TIP3   OH234058   1.042   0.981  29.889
 3288TIP3    H134059   1.067   0.903  30.054
 3288TIP3    H234060   1.053   0.943  29.622
 3289TIP3   OH234061   1.405   1.204  29.169
 3289TIP3    H134062   1.371   1.130  29.334
 3289TIP3    H234063   1.441   1.267  29.367
 3290TIP3   OH234064   0.396   1.333  29.577
 3290TIP3    H134065   0.385   1.239  29.499
 3290TIP3    H234066   0.491   1.332  29.643
 3291TIP3   OH234067   0.131   0.666  28.155
 3291TIP3    H134068   0.115   0.748  28.302
 3291TIP3    H234069   0.049   0.621  28.233
 3292TIP3   OH234070   0.113   0.916  29.049
 3292TIP3    H134071   0.169   0.840  29.133
 3292TIP3    H234072   0.176   0.962  28.872
 3293TIP3   OH234073   1.172   1.769  29.382
 3293TIP3    H134074   1.237   1.723  29.208
 3293TIP3    H234075   1.132   1.691  29.502
 3294TIP3   OH234076   0.947   1.244  29.949
 3294TIP3    H134077   0.960   1.158  29.811
 3294TIP3    H234078   1.015   1.233  30.156
 3295TIP3   OH234079   1.188   0.568  29.886
 3295TIP3    H134080   1.278   0.606  29.916
 3295TIP3    H234081   1.154   0.620  29.661
 3296TIP3   OH234082   0.593   0.416  29.088
 3296TIP3    H134083   0.616   0.493  28.917
 3296TIP3    H234084   0.540   0.362  28.896
 3297TIP3   OH234085   1.356   0.403  28.515
 3297TIP3    H134086   1.418   0.373  28.722
 3297TIP3    H234087   1.353   0.498  28.587
 3298TIP3   OH234088   0.245   0.683  29.199
 3298TIP3    H134089   0.293   0.620  29.364
 3298TIP3    H234090   0.244   0.633  28.947
 3299TIP3   OH234091   0.684   0.809  29.187
 3299TIP3    H134092   0.768   0.765  29.253
 3299TIP3    H234093   0.655   0.752  28.962
 3300TIP3   OH234094   1.155   1.269  28.326
 3300TIP3    H134095   1.134   1.242  28.053
 3300TIP3    H234096   1.130   1.364  28.323
 3301TIP3   OH234097   1.513   0.344  29.145
 3301TIP3    H134098   1.518   0.339  29.439
 3301TIP3    H234099   1.565   0.426  29.127
 3302TIP3   OH234100   0.410   0.500  29.670
 3302TIP3    H134101   0.446   0.589  29.703
 3302TIP3    H234102   0.463   0.464  29.448
 3303TIP3   OH234103   0.125   1.226  27.828
 3303TIP3    H134104   0.118   1.283  27.588
 3303TIP3    H234105   0.151   1.292  28.032
 3304TIP3   OH234106   1.521   1.370  29.685
 3304TIP3    H134107   1.458   1.323  29.859
 3304TIP3    H234108   1.564   1.428  29.880
 3305TIP3   OH234109   0.840   0.096  29.421
 3305TIP3    H134110   0.859   0.002  29.478
 3305TIP3    H234111   0.762   0.110  29.595
 3306TIP3   OH234112   1.314   1.607  28.902
 3306TIP3    H134113   1.348   1.521  28.809
 3306TIP3    H234114   1.397   1.660  28.878
 3307TIP3   OH234115   1.461   1.400  28.545
 3307TIP3    H134116   1.428   1.342  28.332
 3307TIP3    H234117   1.463   1.338  28.770
 3308TIP3   OH234118   1.062   0.924  27.969
 3308TIP3    H134119   1.011   1.007  27.930
 3308TIP3    H234120   1.150   0.950  27.873
 3309TIP3   OH234121   1.077   0.842  26.985
 3309TIP3    H134122   1.136   0.882  27.189
 3309TIP3    H234123   1.093   0.748  27.033
 3310TIP3   OH234124   1.449   0.909  28.194
 3310TIP3    H134125   1.381   0.946  28.377
 3310TIP3    H234126   1.509   0.865  28.383
 3311TIP3   OH234127   0.577   1.015  28.752
 3311TIP3    H134128   0.530   0.970  28.533
 3311TIP3    H234129   0.623   0.944  28.896
 3312TIP3   OH234130   0.738   1.390  29.568
 3312TIP3    H134131   0.728   1.352  29.304
 3312TIP3    H234132   0.810   1.337  29.688
 3313TIP3   OH234133   0.551   0.888  29.838
 3313TIP3    H134134   0.590   0.858  29.586
 3313TIP3    H234135   0.629   0.892  30.009
 3314TIP3   OH234136   1.294   0.897  27.504
 3314TIP3    H134137   1.349   0.899  27.750
 3314TIP3    H234138   1.356   0.933  27.300
 3315TIP3   OH234139   1.085   1.528  28.413
 3315TIP3    H134140   1.141   1.562  28.629
 3315TIP3    H234141   1.034   1.606  28.332
 3316TIP3   OH234142   1.687   0.094  27.519
 3316TIP3    H134143   1.599   0.127  27.597
 3316TIP3    H234144   1.725   0.177  27.414
 3317TIP3   OH234145   0.429   0.905  28.080
 3317TIP3    H134146   0.420   0.990  27.930
 3317TIP3    H234147   0.421   0.841  27.867
 3318TIP3   OH234148   1.788   1.460  27.039
 3318TIP3    H134149   1.817   1.552  27.078
 3318TIP3    H234150   1.874   1.414  27.075
 3319TIP3   OH234151   0.141   1.469  29.682
 3319TIP3    H134152   0.214   1.404  29.694
 3319TIP3    H234153   0.163   1.524  29.910
 3320TIP3   OH234154   1.045   1.801  28.065
 3320TIP3    H134155   1.042   1.810  27.771
 3320TIP3    H234156   1.020   1.893  28.146
 3321TIP3   OH234157   0.409   1.695  28.602
 3321TIP3    H134158   0.431   1.661  28.872
 3321TIP3    H234159   0.315   1.672  28.587
 3322TIP3   OH234160   1.336   1.744  27.153
 3322TIP3    H134161   1.386   1.667  27.045
 3322TIP3    H234162   1.339   1.727  27.444
 3323TIP3   OH234163   1.305   1.740  27.963
 3323TIP3    H134164   1.210   1.758  28.020
 3323TIP3    H234165   1.321   1.667  28.143
 3324TIP3   OH234166   0.617   0.183  29.838
 3324TIP3    H134167   0.532   0.224  29.766
 3324TIP3    H234168   0.670   0.264  29.886
 3325TIP3   OH234169   1.464   1.010  26.958
 3325TIP3    H134170   1.446   1.024  26.673
 3325TIP3    H234171   1.561   1.020  26.961
 3326TIP3   OH234172   1.009   0.361  27.054
 3326TIP3    H134173   0.961   0.318  27.276
 3326TIP3    H234174   0.977   0.309  26.832
 3327TIP3   OH234175   0.590   0.637  28.665
 3327TIP3    H134176   0.496   0.613  28.620
 3327TIP3    H234177   0.633   0.611  28.410
 3328TIP3   OH234178   1.170   0.685  28.155
 3328TIP3    H134179   1.133   0.770  28.068
 3328TIP3    H234180   1.233   0.662  27.942
 3329TIP3   OH234181   1.345   0.608  29.016
 3329TIP3    H134182   1.273   0.674  28.968
 3329TIP3    H234183   1.293   0.535  29.130
 3330TIP3   OH234184   0.670   0.386  26.679
 3330TIP3    H134185   0.640   0.354  26.943
 3330TIP3    H234186   0.589   0.428  26.583
 3331TIP3   OH234187   0.079   0.447  28.956
 3331TIP3    H134188   0.121   0.418  29.208
 3331TIP3    H234189   0.119   0.384  28.770
 3332TIP3   OH234190   0.141   0.440  27.516
 3332TIP3    H134191   0.184   0.489  27.291
 3332TIP3    H234192   0.094   0.513  27.645
 3333TIP3   OH234193   0.882   0.406  28.929
 3333TIP3    H134194   0.801   0.394  29.085
 3333TIP3    H234195   0.946   0.379  29.139
 3334TIP3   OH234196   0.334   0.534  28.575
 3334TIP3    H134197   0.271   0.561  28.368
 3334TIP3    H234198   0.356   0.444  28.482
 3335TIP3   OH234199   0.702   0.569  27.963
 3335TIP3    H134200   0.799   0.576  27.990
 3335TIP3    H234201   0.678   0.631  27.756
 3336TIP3   OH234202   1.268   0.277  29.871
 3336TIP3    H134203   1.258   0.368  29.976
 3336TIP3    H234204   1.178   0.266  29.766
 3337TIP3   OH234205   0.571   0.731  27.105
 3337TIP3    H134206   0.530   0.657  26.964
 3337TIP3    H234207   0.657   0.742  26.973
 3338TIP3   OH234208   0.907   0.620  29.676
 3338TIP3    H134209   0.963   0.664  29.472
 3338TIP3    H234210   0.972   0.559  29.793
 3339TIP3   OH234211   0.464   0.315  28.362
 3339TIP3    H134212   0.420   0.234  28.461
 3339TIP3    H234213   0.542   0.282  28.224
 3340TIP3   OH234214   0.909   1.142  27.855
 3340TIP3    H134215   0.834   1.097  27.720
 3340TIP3    H234216   0.862   1.177  28.092
 3341TIP3   OH234217   1.252   0.415  27.336
 3341TIP3    H134218   1.159   0.426  27.237
 3341TIP3    H234219   1.282   0.506  27.402
 3342TIP3   OH234220   1.362   0.628  27.627
 3342TIP3    H134221   1.426   0.611  27.840
 3342TIP3    H234222   1.399   0.708  27.504
 3343TIP3   OH234223   0.407   1.076  29.361
 3343TIP3    H134224   0.461   1.073  29.115
 3343TIP3    H234225   0.469   1.039  29.559
 3344TIP3   OH234226   1.090   1.275  27.465
 3344TIP3    H134227   1.045   1.363  27.498
 3344TIP3    H234228   1.023   1.215  27.585
 3345TIP3   OH234229   1.809   0.648  27.609
 3345TIP3    H134230   1.766   0.612  27.366
 3345TIP3    H234231   1.831   0.740  27.531
 3346TIP3   OH234232   1.626   1.501  27.690
 3346TIP3    H134233   1.604   1.439  27.903
 3346TIP3    H234234   1.683   1.450  27.507
 3347TIP3   OH234235   1.356   0.987  29.706
 3347TIP3    H134236   1.268   0.962  29.607
 3347TIP3    H234237   1.415   0.932  29.535
 3348TIP3   OH234238   0.625   1.430  28.695
 3348TIP3    H134239   0.652   1.510  28.545
 3348TIP3    H234240   0.536   1.419  28.593
 3349TIP3   OH234241   0.253   0.924  27.225
 3349TIP3    H134242   0.307   0.997  27.336
 3349TIP3    H234243   0.165   0.944  27.321
 3350TIP3   OH234244   0.764   1.213  28.470
 3350TIP3    H134245   0.707   1.286  28.569
 3350TIP3    H234246   0.735   1.138  28.632
 3351TIP3   OH234247   0.664   1.668  28.335
 3351TIP3    H134248   0.569   1.686  28.398
 3351TIP3    H234249   0.701   1.753  28.431
 3352TIP3   OH234250   1.429   1.309  27.102
 3352TIP3    H134251   1.445   1.267  27.366
 3352TIP3    H234252   1.335   1.289  27.072
 3353TIP3   OH234253   1.854   1.737  27.228
 3353TIP3    H134254   1.919   1.802  27.135
 3353TIP3    H234255   1.782   1.799  27.318
 3354TIP3   OH234256   1.507   1.165  27.786
 3354TIP3    H134257   1.486   1.074  27.876
 3354TIP3    H234258   1.604   1.158  27.759
 3355TIP3   OH234259   0.821   1.444  26.661
 3355TIP3    H134260   0.815   1.391  26.421
 3355TIP3    H234261   0.767   1.390  26.847
 3356TIP3   OH234262   0.694   1.357  27.390
 3356TIP3    H134263   0.761   1.326  27.579
 3356TIP3    H234264   0.698   1.453  27.459
 3357TIP3   OH234265   0.376   1.123  27.591
 3357TIP3    H134266   0.288   1.151  27.693
 3357TIP3    H234267   0.397   1.192  27.396
 3358TIP3   OH234268   1.197   0.281  28.014
 3358TIP3    H134269   1.196   0.349  27.804
 3358TIP3    H234270   1.257   0.323  28.212
 3359TIP3   OH234271   0.988   1.530  27.513
 3359TIP3    H134272   0.901   1.572  27.561
 3359TIP3    H234273   1.047   1.607  27.528
 3360TIP3   OH234274   0.968   0.514  28.194
 3360TIP3    H134275   1.049   0.569  28.245
 3360TIP3    H234276   0.942   0.493  28.470
 3361TIP3   OH234277   1.012   0.211  28.515
 3361TIP3    H134278   0.998   0.299  28.629
 3361TIP3    H234279   1.090   0.226  28.338
 3362TIP3   OH234280   0.730   1.610  27.570
 3362TIP3    H134281   0.747   1.686  27.387
 3362TIP3    H234282   0.697   1.660  27.801
 3363TIP3   OH234283   0.573   0.355  27.411
 3363TIP3    H134284   0.554   0.434  27.573
 3363TIP3    H234285   0.656   0.328  27.540
 3364TIP3   OH234286   1.493   0.808  29.298
 3364TIP3    H134287   1.419   0.747  29.244
 3364TIP3    H234288   1.532   0.759  29.520
 3365TIP3   OH234289   0.430   1.356  27.117
 3365TIP3    H134290   0.519   1.368  27.243
 3365TIP3    H234291   0.453   1.297  26.895
 3366TIP3   OH234292   0.232   0.647  26.994
 3366TIP3    H134293   0.275   0.733  27.045
 3366TIP3    H234294   0.175   0.667  26.766
 3367TIP3   OH234295   1.594   1.727  29.895
 3367TIP3    H134296   1.607   1.804  29.721
 3367TIP3    H234297   1.680   1.717  30.024
 3368TIP3   OH234298   0.354   0.167  29.556
 3368TIP3    H134299   0.324   0.172  29.277
 3368TIP3    H234300   0.347   0.070  29.586
 3369TIP3   OH234301   0.201   1.457  28.248
 3369TIP3    H134302   0.124   1.509  28.329
 3369TIP3    H234303   0.250   1.527  28.107
 3370TIP3   OH234304   1.030   1.640  26.625
 3370TIP3    H134305   0.980   1.560  26.703
 3370TIP3    H234306   1.108   1.599  26.496
 3371TIP3   OH234307   1.484   1.563  26.685
 3371TIP3    H134308   1.497   1.494  26.892
 3371TIP3    H234309   1.568   1.562  26.538
 3372TIP3   OH234310   0.571   1.145  26.652
 3372TIP3    H134311   0.606   1.129  26.919
 3372TIP3    H234312   0.655   1.143  26.493
 3373TIP3   OH234313   1.133   1.302  26.628
 3373TIP3    H134314   1.099   1.289  26.898
 3373TIP3    H234315   1.128   1.209  26.535
 3374TIP3   OH234316   0.701   0.988  27.459
 3374TIP3    H134317   0.633   0.926  27.552
 3374TIP3    H234318   0.750   0.932  27.273
 3375TIP3   OH234319   0.821   0.809  26.769
 3375TIP3    H134320   0.820   0.864  26.526
 3375TIP3    H234321   0.917   0.816  26.841
 3376TIP3   OH234322   1.730   1.015  26.628
 3376TIP3    H134323   1.711   0.989  26.352
 3376TIP3    H234324   1.722   1.114  26.616
 3377TIP3   OH234325   0.786   1.838  27.231
 3377TIP3    H134326   0.883   1.846  27.246
 3377TIP3    H234327   0.769   1.901  27.015
 3378TIP3   OH234328   0.161   1.356  27.132
 3378TIP3    H134329   0.258   1.369  27.138
 3378TIP3    H234330   0.151   1.308  26.877
 3379TIP3   OH234331   0.093   1.849  28.497
 3379TIP3    H134332  -0.003   1.865  28.512
 3379TIP3    H234333   0.107   1.786  28.716
 3380TIP3   OH234334   0.136   1.663  29.118
 3380TIP3    H134335   0.146   1.580  29.277
 3380TIP3    H234336   0.185   1.723  29.301
 3381TIP3   OH234337   1.782   1.124  27.789
 3381TIP3    H134338   1.865   1.172  27.846
 3381TIP3    H234339   1.776   1.065  28.029
 3382TIP3   OH234340   1.791   0.966  28.434
 3382TIP3    H134341   1.734   0.894  28.536
 3382TIP3    H234342   1.869   0.955  28.611
 3383TIP3   OH234343   1.891   1.221  29.841
 3383TIP3    H134344   1.920   1.158  29.637
 3383TIP3    H234345   1.824   1.273  29.703
 3384TIP3   OH234346   1.866   0.908  27.318
 3384TIP3    H134347   1.807   0.913  27.087
 3384TIP3    H234348   1.829   0.979  27.486
 3385TIP3   OH234349   1.656   0.655  26.844
 3385TIP3    H134350   1.687   0.701  26.610
 3385TIP3    H234351   1.639   0.562  26.754
 3386TIP3   OH234352   1.629   0.746  28.608
 3386TIP3    H134353   1.595   0.676  28.428
 3386TIP3    H234354   1.582   0.729  28.863
 3387TIP3   OH234355   0.167   1.100  29.790
 3387TIP3    H134356   0.181   1.081  29.508
 3387TIP3    H234357   0.226   1.031  29.901
 3388TIP3   OH234358   1.628   0.397  26.721
 3388TIP3    H134359   1.690   0.331  26.829
 3388TIP3    H234360   1.540   0.354  26.730
 3389TIP3   OH234361   1.583   0.559  28.101
 3389TIP3    H134362   1.595   0.462  28.125
 3389TIP3    H234363   1.672   0.583  28.002
 3390TIP3   OH234364   1.654   0.573  29.553
 3390TIP3    H134365   1.745   0.601  29.628
 3390TIP3    H234366   1.602   0.579  29.802
 3391TIP3   OH234367   1.659   0.288  28.185
 3391TIP3    H134368   1.651   0.254  28.458
 3391TIP3    H234369   1.575   0.258  28.059
 3392TIP3   OH234370   0.164   0.360  29.691
 3392TIP3    H134371   0.227   0.287  29.742
 3392TIP3    H234372   0.222   0.436  29.754
 3393TIP3   OH234373   0.114   0.634  29.952
 3393TIP3    H134374   0.128   0.629  29.667
 3393TIP3    H234375   0.067   0.720  29.967
 3394TIP3   OH234376   1.841   0.271  27.156
 3394TIP3    H134377   1.876   0.204  26.964
 3394TIP3    H234378   1.919   0.321  27.252
 3395TIP3   OH234379   0.142   0.287  28.197
 3395TIP3    H134380   0.044   0.284  28.170
 3395TIP3    H234381   0.162   0.353  27.993
 3396TIP3   OH234382   1.514   1.772  28.725
 3396TIP3    H134383   1.588   1.749  28.545
 3396TIP3    H234384   1.556   1.831  28.920
 3397TIP3   OH234385   0.272   1.764  29.778
 3397TIP3    H134386   0.293   1.788  30.051
 3397TIP3    H234387   0.352   1.713  29.706
 3398TIP3   OH234388   0.444   1.612  29.355
 3398TIP3    H134389   0.419   1.518  29.391
 3398TIP3    H234390   0.537   1.614  29.451
 3399TIP3   OH234391   0.707   1.662  29.661
 3399TIP3    H134392   0.729   1.569  29.589
 3399TIP3    H234393   0.744   1.671  29.928
 3400TIP3   OH234394   1.040   0.289  29.451
 3400TIP3    H134395   0.987   0.207  29.460
 3400TIP3    H234396   1.104   0.264  29.241
 3401TIP3   OH234397   1.567   0.107  29.508
 3401TIP3    H134398   1.642   0.154  29.376
 3401TIP3    H234399   1.494   0.157  29.394
 3402TIP3   OH234400   1.755   0.176  28.893
 3402TIP3    H134401   1.813   0.115  28.752
 3402TIP3    H234402   1.801   0.262  28.845
 3403TIP3   OH234403   0.296   0.152  28.761
 3403TIP3    H134404   0.233   0.182  28.557
 3403TIP3    H234405   0.289   0.054  28.731
 3404TIP3   OH234406   0.101   0.133  27.450
 3404TIP3    H134407   0.160   0.161  27.234
 3404TIP3    H234408   0.135   0.187  27.675
 3405TIP3   OH234409   0.765   0.120  28.521
 3405TIP3    H134410   0.860   0.147  28.521
 3405TIP3    H234411   0.731   0.166  28.755
 3406TIP3   OH234412   1.247   0.168  29.037
 3406TIP3    H134413   1.319   0.176  28.848
 3406TIP3    H234414   1.282   0.105  29.226
 3407TIP3   OH234415   1.444   0.188  27.756
 3407TIP3    H134416   1.350   0.216  27.735
 3407TIP3    H234417   1.434   0.094  27.816
 3408TIP3   OH234418   0.196   1.696  27.765
 3408TIP3    H134419   0.100   1.703  27.717
 3408TIP3    H234420   0.222   1.787  27.678
 3409TIP3   OH234421   0.320   0.203  26.985
 3409TIP3    H134422   0.393   0.177  26.799
 3409TIP3    H234423   0.371   0.248  27.195
 3410TIP3   OH234424   0.855   0.309  27.738
 3410TIP3    H134425   0.882   0.237  27.918
 3410TIP3    H234426   0.896   0.387  27.876
 3411TIP3   OH234427   1.070   1.794  27.255
 3411TIP3    H134428   1.165   1.797  27.189
 3411TIP3    H234429   1.041   1.741  27.021
 3412TIP3   OH234430   1.704   1.707  28.143
 3412TIP3    H134431   1.683   1.630  27.966
 3412TIP3    H234432   1.705   1.780  27.948
 3413TIP3   OH234433   0.316   1.739  26.832
 3413TIP3    H134434   0.304   1.763  27.108
 3413TIP3    H234435   0.387   1.674  26.859
 3414TIP3   OH234436   3.085   1.005  28.710
 3414TIP3    H134437   3.088   1.102  28.734
 3414TIP3    H234438   3.013   0.994  28.521
 3415TIP3   OH234439   2.979   0.909  29.667
 3415TIP3    H134440   2.971   0.866  29.928
 3415TIP3    H234441   2.922   0.856  29.493
 3416TIP3   OH234442   3.286   1.200  29.160
 3416TIP3    H134443   3.260   1.128  29.343
 3416TIP3    H234444   3.320   1.265  29.352
 3417TIP3   OH234445   2.324   1.352  29.718
 3417TIP3    H134446   2.301   1.261  29.634
 3417TIP3    H234447   2.421   1.354  29.676
 3418TIP3   OH234448   2.004   0.662  28.308
 3418TIP3    H134449   1.972   0.753  28.317
 3418TIP3    H234450   1.921   0.613  28.308
 3419TIP3   OH234451   2.013   0.909  28.866
 3419TIP3    H134452   2.052   0.834  29.016
 3419TIP3    H234453   2.089   0.947  28.728
 3420TIP3   OH234454   3.050   1.763  29.262
 3420TIP3    H134455   3.108   1.710  29.085
 3420TIP3    H234456   3.027   1.692  29.445
 3421TIP3   OH234457   2.853   1.180  29.997
 3421TIP3    H134458   2.892   1.139  29.763
 3421TIP3    H234459   2.919   1.157  30.195
 3422TIP3   OH234460   3.156   0.591  29.997
 3422TIP3    H134461   3.175   0.497  30.006
 3422TIP3    H234462   3.151   0.606  29.709
 3423TIP3   OH234463   2.468   0.401  29.067
 3423TIP3    H134464   2.480   0.488  28.935
 3423TIP3    H234465   2.416   0.352  28.863
 3424TIP3   OH234466   3.203   0.440  28.629
 3424TIP3    H134467   3.261   0.391  28.818
 3424TIP3    H234468   3.266   0.503  28.518
 3425TIP3   OH234469   2.131   0.702  29.253
 3425TIP3    H134470   2.188   0.647  29.421
 3425TIP3    H234471   2.132   0.645  29.013
 3426TIP3   OH234472   2.596   0.817  29.154
 3426TIP3    H134473   2.661   0.756  29.274
 3426TIP3    H234474   2.548   0.754  28.983
 3427TIP3   OH234475   3.022   1.245  28.332
 3427TIP3    H134476   3.005   1.244  28.044
 3427TIP3    H234477   3.002   1.339  28.398
 3428TIP3   OH234478   3.367   0.375  29.208
 3428TIP3    H134479   3.330   0.351  29.466
 3428TIP3    H234480   3.462   0.377  29.271
 3429TIP3   OH234481   2.313   0.507  29.661
 3429TIP3    H134482   2.334   0.599  29.607
 3429TIP3    H234483   2.348   0.463  29.418
 3430TIP3   OH234484   2.038   1.227  27.825
 3430TIP3    H134485   2.031   1.282  27.582
 3430TIP3    H234486   2.046   1.295  28.032
 3431TIP3   OH234487   3.400   1.362  29.685
 3431TIP3    H134488   3.349   1.311  29.886
 3431TIP3    H234489   3.443   1.426  29.856
 3432TIP3   OH234490   2.732   0.091  29.460
 3432TIP3    H134491   2.742  -0.006  29.496
 3432TIP3    H234492   2.659   0.106  29.649
 3433TIP3   OH234493   3.201   1.593  28.842
 3433TIP3    H134494   3.247   1.509  28.779
 3433TIP3    H234495   3.276   1.655  28.797
 3434TIP3   OH234496   3.360   1.382  28.515
 3434TIP3    H134497   3.347   1.315  28.305
 3434TIP3    H234498   3.352   1.324  28.749
 3435TIP3   OH234499   2.947   0.921  27.906
 3435TIP3    H134500   2.903   1.007  27.867
 3435TIP3    H234501   3.024   0.927  27.729
 3436TIP3   OH234502   2.963   0.822  27.009
 3436TIP3    H134503   3.040   0.864  27.135
 3436TIP3    H234504   2.994   0.731  26.973
 3437TIP3   OH234505   3.326   0.916  28.221
 3437TIP3    H134506   3.258   0.954  28.401
 3437TIP3    H234507   3.396   0.891  28.407
 3438TIP3   OH234508   2.460   1.003  28.752
 3438TIP3    H134509   2.426   0.952  28.521
 3438TIP3    H234510   2.513   0.935  28.893
 3439TIP3   OH234511   2.604   1.375  29.583
 3439TIP3    H134512   2.586   1.352  29.304
 3439TIP3    H234513   2.666   1.307  29.664
 3440TIP3   OH234514   2.447   0.865  29.811
 3440TIP3    H134515   2.505   0.856  29.574
 3440TIP3    H234516   2.489   0.935  29.973
 3441TIP3   OH234517   3.188   0.884  27.513
 3441TIP3    H134518   3.240   0.903  27.756
 3441TIP3    H234519   3.241   0.931  27.303
 3442TIP3   OH234520   2.958   1.502  28.422
 3442TIP3    H134521   3.031   1.536  28.590
 3442TIP3    H234522   2.919   1.584  28.326
 3443TIP3   OH234523   3.564   0.104  27.597
 3443TIP3    H134524   3.477   0.147  27.624
 3443TIP3    H234525   3.611   0.175  27.450
 3444TIP3   OH234526   2.329   0.904  28.074
 3444TIP3    H134527   2.314   0.992  27.951
 3444TIP3    H234528   2.295   0.845  27.867
 3445TIP3   OH234529   3.677   1.472  27.012
 3445TIP3    H134530   3.704   1.565  27.066
 3445TIP3    H234531   3.763   1.428  27.066
 3446TIP3   OH234532   1.969   1.476  29.553
 3446TIP3    H134533   2.038   1.413  29.637
 3446TIP3    H234534   1.945   1.521  29.796
 3447TIP3   OH234535   2.931   1.799  28.059
 3447TIP3    H134536   2.926   1.817  27.771
 3447TIP3    H234537   2.921   1.891  28.161
 3448TIP3   OH234538   2.281   1.698  28.572
 3448TIP3    H134539   2.301   1.681  28.857
 3448TIP3    H234540   2.194   1.655  28.542
 3449TIP3   OH234541   3.233   1.750  27.135
 3449TIP3    H134542   3.279   1.669  27.033
 3449TIP3    H234543   3.236   1.738  27.423
 3450TIP3   OH234544   3.193   1.730  27.960
 3450TIP3    H134545   3.099   1.755  27.993
 3450TIP3    H234546   3.201   1.655  28.143
 3451TIP3   OH234547   2.477   0.170  29.856
 3451TIP3    H134548   2.398   0.195  29.697
 3451TIP3    H234549   2.516   0.258  29.895
 3452TIP3   OH234550   3.341   1.008  26.973
 3452TIP3    H134551   3.324   1.022  26.688
 3452TIP3    H234552   3.438   1.021  26.970
 3453TIP3   OH234553   2.878   0.359  27.135
 3453TIP3    H134554   2.845   0.294  27.327
 3453TIP3    H234555   2.827   0.336  26.898
 3454TIP3   OH234556   2.472   0.636  28.734
 3454TIP3    H134557   2.378   0.612  28.677
 3454TIP3    H234558   2.513   0.629  28.464
 3455TIP3   OH234559   3.044   0.700  28.239
 3455TIP3    H134560   3.003   0.782  28.125
 3455TIP3    H234561   3.100   0.672  28.014
 3456TIP3   OH234562   3.128   0.631  29.154
 3456TIP3    H134563   3.111   0.696  28.941
 3456TIP3    H234564   3.142   0.551  28.986
 3457TIP3   OH234565   2.534   0.384  26.685
 3457TIP3    H134566   2.500   0.361  26.949
 3457TIP3    H234567   2.463   0.441  26.583
 3458TIP3   OH234568   1.920   0.410  28.884
 3458TIP3    H134569   1.981   0.389  29.100
 3458TIP3    H234570   1.963   0.367  28.656
 3459TIP3   OH234571   2.004   0.442  27.528
 3459TIP3    H134572   2.067   0.483  27.339
 3459TIP3    H234573   1.950   0.520  27.597
 3460TIP3   OH234574   2.759   0.393  28.893
 3460TIP3    H134575   2.669   0.363  28.971
 3460TIP3    H234576   2.811   0.363  29.124
 3461TIP3   OH234577   2.197   0.524  28.668
 3461TIP3    H134578   2.130   0.572  28.506
 3461TIP3    H234579   2.219   0.447  28.497
 3462TIP3   OH234580   2.561   0.604  27.978
 3462TIP3    H134581   2.649   0.584  27.864
 3462TIP3    H234582   2.513   0.637  27.744
 3463TIP3   OH234583   3.154   0.283  29.883
 3463TIP3    H134584   3.139   0.275  30.168
 3463TIP3    H234585   3.061   0.282  29.781
 3464TIP3   OH234586   2.453   0.705  27.105
 3464TIP3    H134587   2.428   0.659  26.856
 3464TIP3    H234588   2.541   0.737  27.015
 3465TIP3   OH234589   2.848   0.649  29.589
 3465TIP3    H134590   2.919   0.634  29.391
 3465TIP3    H234591   2.864   0.572  29.760
 3466TIP3   OH234592   2.342   0.313  28.350
 3466TIP3    H134593   2.304   0.231  28.473
 3466TIP3    H234594   2.408   0.274  28.170
 3467TIP3   OH234595   2.786   1.153  27.789
 3467TIP3    H134596   2.714   1.101  27.663
 3467TIP3    H234597   2.741   1.174  28.047
 3468TIP3   OH234598   3.140   0.412  27.147
 3468TIP3    H134599   3.041   0.412  27.159
 3468TIP3    H234600   3.163   0.495  27.288
 3469TIP3   OH234601   3.216   0.611  27.618
 3469TIP3    H134602   3.296   0.601  27.783
 3469TIP3    H234603   3.229   0.700  27.501
 3470TIP3   OH234604   2.270   1.105  29.439
 3470TIP3    H134605   2.318   1.104  29.187
 3470TIP3    H234606   2.328   1.051  29.613
 3471TIP3   OH234607   2.981   1.284  27.447
 3471TIP3    H134608   2.942   1.373  27.492
 3471TIP3    H234609   2.910   1.227  27.555
 3472TIP3   OH234610   3.704   0.639  27.639
 3472TIP3    H134611   3.660   0.607  27.396
 3472TIP3    H234612   3.719   0.733  27.576
 3473TIP3   OH234613   3.497   1.513  27.645
 3473TIP3    H134614   3.482   1.449  27.861
 3473TIP3    H234615   3.559   1.469  27.465
 3474TIP3   OH234616   3.243   0.990  29.697
 3474TIP3    H134617   3.151   0.957  29.655
 3474TIP3    H234618   3.294   0.926  29.535
 3475TIP3   OH234619   2.502   1.425  28.800
 3475TIP3    H134620   2.552   1.508  28.773
 3475TIP3    H234621   2.432   1.441  28.608
 3476TIP3   OH234622   2.142   0.940  27.102
 3476TIP3    H134623   2.181   0.994  27.318
 3476TIP3    H234624   2.046   0.943  27.147
 3477TIP3   OH234625   2.639   1.192  28.467
 3477TIP3    H134626   2.599   1.272  28.581
 3477TIP3    H234627   2.592   1.121  28.614
 3478TIP3   OH234628   2.543   1.670  28.338
 3478TIP3    H134629   2.446   1.681  28.374
 3478TIP3    H234630   2.574   1.754  28.464
 3479TIP3   OH234631   3.313   1.311  27.090
 3479TIP3    H134632   3.327   1.284  27.366
 3479TIP3    H234633   3.221   1.281  27.054
 3480TIP3   OH234634   3.735   1.736  27.207
 3480TIP3    H134635   3.797   1.798  27.084
 3480TIP3    H234636   3.666   1.798  27.303
 3481TIP3   OH234637   3.390   1.155  27.810
 3481TIP3    H134638   3.372   1.060  27.849
 3481TIP3    H234639   3.486   1.155  27.759
 3482TIP3   OH234640   2.706   1.466  26.643
 3482TIP3    H134641   2.696   1.406  26.418
 3482TIP3    H234642   2.644   1.429  26.838
 3483TIP3   OH234643   2.583   1.360  27.387
 3483TIP3    H134644   2.661   1.320  27.510
 3483TIP3    H234645   2.594   1.454  27.477
 3484TIP3   OH234646   2.274   1.113  27.573
 3484TIP3    H134647   2.186   1.152  27.636
 3484TIP3    H234648   2.317   1.185  27.423
 3485TIP3   OH234649   3.082   0.313  28.044
 3485TIP3    H134650   3.077   0.383  27.846
 3485TIP3    H234651   3.138   0.353  28.254
 3486TIP3   OH234652   2.885   1.539  27.537
 3486TIP3    H134653   2.797   1.577  27.600
 3486TIP3    H234654   2.938   1.620  27.492
 3487TIP3   OH234655   2.823   0.504  28.143
 3487TIP3    H134656   2.900   0.560  28.209
 3487TIP3    H234657   2.793   0.473  28.407
 3488TIP3   OH234658   2.887   0.200  28.464
 3488TIP3    H134659   2.865   0.280  28.617
 3488TIP3    H234660   2.971   0.229  28.338
 3489TIP3   OH234661   2.622   1.612  27.555
 3489TIP3    H134662   2.634   1.693  27.387
 3489TIP3    H234663   2.583   1.653  27.795
 3490TIP3   OH234664   2.440   0.334  27.462
 3490TIP3    H134665   2.425   0.411  27.630
 3490TIP3    H234666   2.531   0.312  27.552
 3491TIP3   OH234667   3.348   0.783  29.280
 3491TIP3    H134668   3.273   0.720  29.301
 3491TIP3    H234669   3.413   0.741  29.460
 3492TIP3   OH234670   2.302   1.352  27.114
 3492TIP3    H134671   2.373   1.387  27.285
 3492TIP3    H234672   2.355   1.305  26.913
 3493TIP3   OH234673   2.119   0.645  27.012
 3493TIP3    H134674   2.164   0.729  27.066
 3493TIP3    H234675   2.050   0.673  26.829
 3494TIP3   OH234676   3.482   1.715  29.892
 3494TIP3    H134677   3.492   1.791  29.709
 3494TIP3    H234678   3.565   1.715  30.039
 3495TIP3   OH234679   2.231   0.163  29.403
 3495TIP3    H134680   2.240   0.161  29.109
 3495TIP3    H234681   2.204   0.069  29.445
 3496TIP3   OH234682   2.090   1.485  28.353
 3496TIP3    H134683   2.013   1.542  28.395
 3496TIP3    H234684   2.124   1.524  28.107
 3497TIP3   OH234685   2.928   1.643  26.643
 3497TIP3    H134686   2.875   1.562  26.685
 3497TIP3    H234687   3.008   1.605  26.517
 3498TIP3   OH234688   3.364   1.559  26.694
 3498TIP3    H134689   3.380   1.495  26.907
 3498TIP3    H234690   3.450   1.563  26.556
 3499TIP3   OH234691   2.458   1.169  26.649
 3499TIP3    H134692   2.490   1.141  26.913
 3499TIP3    H234693   2.539   1.156  26.487
 3500TIP3   OH234694   3.020   1.302  26.592
 3500TIP3    H134695   2.988   1.288  26.865
 3500TIP3    H234696   3.015   1.209  26.496
 3501TIP3   OH234697   2.586   0.996  27.432
 3501TIP3    H134698   2.517   0.943  27.558
 3501TIP3    H234699   2.626   0.931  27.249
 3502TIP3   OH234700   2.699   0.799  26.844
 3502TIP3    H134701   2.707   0.818  26.559
 3502TIP3    H234702   2.792   0.811  26.934
 3503TIP3   OH234703   3.602   1.011  26.646
 3503TIP3    H134704   3.587   0.988  26.364
 3503TIP3    H234705   3.599   1.110  26.637
 3504TIP3   OH234706   2.677   1.855  27.264
 3504TIP3    H134707   2.775   1.853  27.264
 3504TIP3    H234708   2.661   1.905  27.018
 3505TIP3   OH234709   2.019   1.327  27.066
 3505TIP3    H134710   2.117   1.330  27.039
 3505TIP3    H234711   1.991   1.269  26.841
 3506TIP3   OH234712   1.921   1.830  28.425
 3506TIP3    H134713   1.837   1.784  28.353
 3506TIP3    H234714   1.941   1.783  28.677
 3507TIP3   OH234715   1.990   1.675  29.031
 3507TIP3    H134716   1.966   1.589  29.154
 3507TIP3    H234717   2.041   1.717  29.250
 3508TIP3   OH234718   3.668   1.131  27.783
 3508TIP3    H134719   3.752   1.180  27.825
 3508TIP3    H234720   3.666   1.072  28.020
 3509TIP3   OH234721   3.679   0.975  28.458
 3509TIP3    H134722   3.616   0.914  28.590
 3509TIP3    H234723   3.757   0.971  28.635
 3510TIP3   OH234724   3.772   1.219  29.889
 3510TIP3    H134725   3.820   1.162  29.706
 3510TIP3    H234726   3.712   1.270  29.718
 3511TIP3   OH234727   3.748   0.906  27.324
 3511TIP3    H134728   3.678   0.906  27.120
 3511TIP3    H234729   3.723   0.987  27.471
 3512TIP3   OH234730   3.573   0.658  26.904
 3512TIP3    H134731   3.597   0.705  26.658
 3512TIP3    H234732   3.548   0.569  26.802
 3513TIP3   OH234733   3.510   0.763  28.653
 3513TIP3    H134734   3.465   0.689  28.521
 3513TIP3    H234735   3.460   0.767  28.905
 3514TIP3   OH234736   1.953   0.950  29.667
 3514TIP3    H134737   2.000   0.931  29.418
 3514TIP3    H234738   2.026   0.970  29.853
 3515TIP3   OH234739   3.528   0.414  26.667
 3515TIP3    H134740   3.582   0.340  26.760
 3515TIP3    H234741   3.437   0.373  26.673
 3516TIP3   OH234742   3.436   0.558  28.164
 3516TIP3    H134743   3.469   0.465  28.173
 3516TIP3    H234744   3.519   0.602  28.077
 3517TIP3   OH234745   3.525   0.625  29.673
 3517TIP3    H134746   3.622   0.617  29.673
 3517TIP3    H234747   3.498   0.540  29.802
 3518TIP3   OH234748   3.523   0.295  28.248
 3518TIP3    H134749   3.546   0.246  28.491
 3518TIP3    H234750   3.459   0.236  28.116
 3519TIP3   OH234751   2.048   0.359  29.706
 3519TIP3    H134752   2.107   0.280  29.715
 3519TIP3    H234753   2.113   0.428  29.748
 3520TIP3   OH234754   1.913   0.679  29.712
 3520TIP3    H134755   1.983   0.666  29.517
 3520TIP3    H234756   1.920   0.775  29.760
 3521TIP3   OH234757   3.721   0.265  27.147
 3521TIP3    H134758   3.757   0.199  26.955
 3521TIP3    H234759   3.777   0.342  27.102
 3522TIP3   OH234760   1.947   0.254  28.191
 3522TIP3    H134761   1.851   0.247  28.131
 3522TIP3    H234762   1.979   0.302  27.957
 3523TIP3   OH234763   3.405   1.770  28.707
 3523TIP3    H134764   3.475   1.751  28.512
 3523TIP3    H234765   3.451   1.827  28.902
 3524TIP3   OH234766   2.152   1.770  29.658
 3524TIP3    H134767   2.174   1.777  29.946
 3524TIP3    H234768   2.230   1.721  29.553
 3525TIP3   OH234769   2.347   1.620  29.331
 3525TIP3    H134770   2.337   1.524  29.364
 3525TIP3    H234771   2.433   1.635  29.463
 3526TIP3   OH234772   2.593   1.664  29.628
 3526TIP3    H134773   2.617   1.570  29.589
 3526TIP3    H234774   2.589   1.667  29.916
 3527TIP3   OH234775   2.922   0.285  29.439
 3527TIP3    H134776   2.874   0.199  29.457
 3527TIP3    H234777   2.994   0.258  29.256
 3528TIP3   OH234778   3.448   0.108  29.463
 3528TIP3    H134779   3.508   0.128  29.241
 3528TIP3    H234780   3.363   0.146  29.373
 3529TIP3   OH234781   3.637   0.172  28.872
 3529TIP3    H134782   3.686   0.102  28.731
 3529TIP3    H234783   3.696   0.251  28.842
 3530TIP3   OH234784   2.207   0.120  28.635
 3530TIP3    H134785   2.133   0.135  28.449
 3530TIP3    H234786   2.198   0.024  28.683
 3531TIP3   OH234787   2.080   0.114  27.540
 3531TIP3    H134788   2.094   0.148  27.267
 3531TIP3    H234789   1.990   0.144  27.597
 3532TIP3   OH234790   2.653   0.117  28.701
 3532TIP3    H134791   2.732   0.146  28.548
 3532TIP3    H234792   2.688   0.122  28.977
 3533TIP3   OH234793   3.149   0.168  29.046
 3533TIP3    H134794   3.203   0.142  28.818
 3533TIP3    H234795   3.154   0.087  29.208
 3534TIP3   OH234796   3.315   0.193  27.771
 3534TIP3    H134797   3.221   0.214  27.738
 3534TIP3    H234798   3.309   0.100  27.852
 3535TIP3   OH234799   2.071   1.662  27.747
 3535TIP3    H134800   1.981   1.660  27.639
 3535TIP3    H234801   2.096   1.753  27.678
 3536TIP3   OH234802   2.202   0.247  26.943
 3536TIP3    H134803   2.266   0.195  26.781
 3536TIP3    H234804   2.259   0.272  27.165
 3537TIP3   OH234805   2.709   0.295  27.768
 3537TIP3    H134806   2.766   0.236  27.927
 3537TIP3    H234807   2.753   0.381  27.831
 3538TIP3   OH234808   2.968   1.799  27.261
 3538TIP3    H134809   3.063   1.798  27.192
 3538TIP3    H234810   2.938   1.748  27.024
 3539TIP3   OH234811   3.588   1.713  28.113
 3539TIP3    H134812   3.562   1.640  27.927
 3539TIP3    H234813   3.586   1.790  27.930
 3540TIP3   OH234814   2.172   1.740  26.808
 3540TIP3    H134815   2.150   1.788  27.054
 3540TIP3    H234816   2.254   1.694  26.886
 3541TIP3   OH234817   4.964   1.009  28.692
 3541TIP3    H134818   4.965   1.106  28.716
 3541TIP3    H234819   4.892   0.998  28.500
 3542TIP3   OH234820   4.864   0.905  29.673
 3542TIP3    H134821   4.859   0.864  29.940
 3542TIP3    H234822   4.798   0.857  29.517
 3543TIP3   OH234823   5.169   1.202  29.145
 3543TIP3    H134824   5.142   1.125  29.307
 3543TIP3    H234825   5.212   1.259  29.349
 3544TIP3   OH234826   4.211   1.348  29.697
 3544TIP3    H134827   4.191   1.257  29.604
 3544TIP3    H234828   4.308   1.351  29.664
 3545TIP3   OH234829   3.876   0.664  28.416
 3545TIP3    H134830   3.836   0.751  28.446
 3545TIP3    H234831   3.798   0.612  28.338
 3546TIP3   OH234832   3.910   0.911  28.881
 3546TIP3    H134833   3.951   0.837  29.025
 3546TIP3    H234834   3.982   0.949  28.725
 3547TIP3   OH234835   4.945   1.759  29.292
 3547TIP3    H134836   5.004   1.700  29.139
 3547TIP3    H234837   4.902   1.692  29.457
 3548TIP3   OH234838   4.747   1.191  30.027
 3548TIP3    H134839   4.780   1.152  29.781
 3548TIP3    H234840   4.808   1.152  30.219
 3549TIP3   OH234841   5.030   0.590  29.967
 3549TIP3    H134842   5.054   0.497  29.994
 3549TIP3    H234843   5.019   0.598  29.676
 3550TIP3   OH234844   4.346   0.411  29.061
 3550TIP3    H134845   4.356   0.491  28.890
 3550TIP3    H234846   4.299   0.353  28.872
 3551TIP3   OH234847   5.090   0.446  28.599
 3551TIP3    H134848   5.147   0.398  28.794
 3551TIP3    H234849   5.153   0.512  28.503
 3552TIP3   OH234850   3.970   0.675  29.316
 3552TIP3    H134851   4.038   0.627  29.463
 3552TIP3    H234852   3.985   0.639  29.046
 3553TIP3   OH234853   4.491   0.816  29.154
 3553TIP3    H134854   4.559   0.757  29.265
 3553TIP3    H234855   4.450   0.755  28.959
 3554TIP3   OH234856   4.906   1.252  28.302
 3554TIP3    H134857   4.884   1.252  28.017
 3554TIP3    H234858   4.887   1.346  28.365
 3555TIP3   OH234859   5.245   0.373  29.196
 3555TIP3    H134860   5.215   0.356  29.469
 3555TIP3    H234861   5.341   0.378  29.235
 3556TIP3   OH234862   4.196   0.507  29.679
 3556TIP3    H134863   4.217   0.598  29.595
 3556TIP3    H234864   4.231   0.457  29.445
 3557TIP3   OH234865   3.929   1.228  27.828
 3557TIP3    H134866   3.921   1.285  27.594
 3557TIP3    H234867   3.940   1.294  28.041
 3558TIP3   OH234868   5.295   1.355  29.679
 3558TIP3    H134869   5.255   1.317  29.925
 3558TIP3    H234870   5.324   1.441  29.772
 3559TIP3   OH234871   4.614   0.093  29.478
 3559TIP3    H134872   4.621  -0.005  29.505
 3559TIP3    H234873   4.538   0.111  29.655
 3560TIP3   OH234874   5.084   1.593  28.860
 3560TIP3    H134875   5.133   1.513  28.770
 3560TIP3    H234876   5.152   1.662  28.803
 3561TIP3   OH234877   5.242   1.390  28.542
 3561TIP3    H134878   5.228   1.323  28.335
 3561TIP3    H234879   5.233   1.333  28.779
 3562TIP3   OH234880   4.829   0.925  27.918
 3562TIP3    H134881   4.785   1.009  27.840
 3562TIP3    H234882   4.917   0.933  27.795
 3563TIP3   OH234883   4.856   0.821  27.024
 3563TIP3    H134884   4.916   0.861  27.219
 3563TIP3    H234885   4.877   0.727  27.042
 3564TIP3   OH234886   5.218   0.934  28.230
 3564TIP3    H134887   5.141   0.958  28.398
 3564TIP3    H234888   5.280   0.901  28.428
 3565TIP3   OH234889   4.353   1.005  28.743
 3565TIP3    H134890   4.316   0.957  28.512
 3565TIP3    H234891   4.405   0.937  28.881
 3566TIP3   OH234892   4.492   1.376  29.574
 3566TIP3    H134893   4.473   1.354  29.292
 3566TIP3    H234894   4.550   1.305  29.655
 3567TIP3   OH234895   4.322   0.846  29.802
 3567TIP3    H134896   4.385   0.853  29.577
 3567TIP3    H234897   4.367   0.896  30.012
 3568TIP3   OH234898   5.074   0.887  27.528
 3568TIP3    H134899   5.135   0.911  27.747
 3568TIP3    H234900   5.124   0.927  27.297
 3569TIP3   OH234901   4.853   1.505  28.401
 3569TIP3    H134902   4.920   1.538  28.587
 3569TIP3    H234903   4.803   1.585  28.335
 3570TIP3   OH234904   5.453   0.103  27.600
 3570TIP3    H134905   5.363   0.140  27.612
 3570TIP3    H234906   5.499   0.176  27.459
 3571TIP3   OH234907   4.214   0.909  28.089
 3571TIP3    H134908   4.204   0.996  27.957
 3571TIP3    H234909   4.187   0.849  27.876
 3572TIP3   OH234910   5.566   1.455  27.069
 3572TIP3    H134911   5.590   1.550  27.093
 3572TIP3    H234912   5.656   1.416  27.084
 3573TIP3   OH234913   3.840   1.471  29.562
 3573TIP3    H134914   3.916   1.430  29.691
 3573TIP3    H234915   3.791   1.509  29.787
 3574TIP3   OH234916   4.816   1.802  28.110
 3574TIP3    H134917   4.815   1.821  27.822
 3574TIP3    H234918   4.802   1.893  28.215
 3575TIP3   OH234919   4.160   1.699  28.581
 3575TIP3    H134920   4.180   1.675  28.860
 3575TIP3    H234921   4.071   1.660  28.545
 3576TIP3   OH234922   5.121   1.747  27.135
 3576TIP3    H134923   5.165   1.668  27.018
 3576TIP3    H234924   5.124   1.726  27.420
 3577TIP3   OH234925   5.075   1.735  27.978
 3577TIP3    H134926   4.980   1.759  28.020
 3577TIP3    H234927   5.085   1.662  28.170
 3578TIP3   OH234928   4.368   0.174  29.838
 3578TIP3    H134929   4.287   0.187  29.679
 3578TIP3    H234930   4.397   0.267  29.874
 3579TIP3   OH234931   5.223   1.010  26.955
 3579TIP3    H134932   5.201   1.027  26.676
 3579TIP3    H234933   5.319   1.022  26.946
 3580TIP3   OH234934   4.759   0.358  27.105
 3580TIP3    H134935   4.740   0.303  27.336
 3580TIP3    H234936   4.717   0.307  26.892
 3581TIP3   OH234937   4.360   0.641  28.689
 3581TIP3    H134938   4.264   0.624  28.653
 3581TIP3    H234939   4.394   0.624  28.416
 3582TIP3   OH234940   4.931   0.701  28.227
 3582TIP3    H134941   4.883   0.775  28.101
 3582TIP3    H234942   4.989   0.672  28.008
 3583TIP3   OH234943   5.013   0.634  29.148
 3583TIP3    H134944   5.000   0.703  28.947
 3583TIP3    H234945   5.024   0.557  28.968
 3584TIP3   OH234946   4.431   0.390  26.679
 3584TIP3    H134947   4.398   0.357  26.940
 3584TIP3    H234948   4.358   0.451  26.610
 3585TIP3   OH234949   3.797   0.408  28.884
 3585TIP3    H134950   3.852   0.392  29.118
 3585TIP3    H234951   3.854   0.374  28.671
 3586TIP3   OH234952   3.910   0.443  27.555
 3586TIP3    H134953   3.969   0.476  27.345
 3586TIP3    H234954   3.854   0.521  27.606
 3587TIP3   OH234955   4.643   0.397  28.929
 3587TIP3    H134956   4.551   0.377  29.013
 3587TIP3    H234957   4.689   0.368  29.175
 3588TIP3   OH234958   4.103   0.548  28.674
 3588TIP3    H134959   4.027   0.594  28.548
 3588TIP3    H234960   4.123   0.477  28.479
 3589TIP3   OH234961   4.450   0.599  27.951
 3589TIP3    H134962   4.540   0.586  27.849
 3589TIP3    H234963   4.404   0.642  27.729
 3590TIP3   OH234964   5.045   0.287  29.901
 3590TIP3    H134965   5.033   0.280  30.192
 3590TIP3    H234966   4.952   0.284  29.811
 3591TIP3   OH234967   4.330   0.701  27.156
 3591TIP3    H134968   4.283   0.634  27.000
 3591TIP3    H234969   4.410   0.714  26.997
 3592TIP3   OH234970   4.731   0.650  29.577
 3592TIP3    H134971   4.798   0.641  29.367
 3592TIP3    H234972   4.755   0.574  29.745
 3593TIP3   OH234973   4.219   0.317  28.347
 3593TIP3    H134974   4.174   0.239  28.467
 3593TIP3    H234975   4.295   0.272  28.233
 3594TIP3   OH234976   4.669   1.150  27.783
 3594TIP3    H134977   4.598   1.093  27.672
 3594TIP3    H234978   4.628   1.176  28.041
 3595TIP3   OH234979   5.012   0.411  27.198
 3595TIP3    H134980   4.913   0.413  27.186
 3595TIP3    H234981   5.035   0.500  27.297
 3596TIP3   OH234982   5.104   0.616  27.609
 3596TIP3    H134983   5.184   0.601  27.771
 3596TIP3    H234984   5.121   0.705  27.504
 3597TIP3   OH234985   4.143   1.094  29.409
 3597TIP3    H134986   4.158   1.066  29.136
 3597TIP3    H234987   4.218   1.055  29.553
 3598TIP3   OH234988   4.863   1.287  27.447
 3598TIP3    H134989   4.826   1.376  27.510
 3598TIP3    H234990   4.793   1.227  27.549
 3599TIP3   OH234991   5.584   0.647  27.621
 3599TIP3    H134992   5.540   0.612  27.381
 3599TIP3    H234993   5.599   0.741  27.537
 3600TIP3   OH234994   5.386   1.513  27.690
 3600TIP3    H134995   5.364   1.448  27.894
 3600TIP3    H234996   5.440   1.462  27.501
 3601TIP3   OH234997   5.126   0.984  29.703
 3601TIP3    H134998   5.033   0.955  29.655
 3601TIP3    H234999   5.179   0.921  29.541
 3602TIP3   OH235000   4.396   1.431  28.776
 3602TIP3    H135001   4.441   1.518  28.761
 3602TIP3    H235002   4.319   1.447  28.608
 3603TIP3   OH235003   4.018   0.937  27.129
 3603TIP3    H135004   4.060   0.997  27.324
 3603TIP3    H235005   3.922   0.938  27.195
 3604TIP3   OH235006   4.533   1.199  28.458
 3604TIP3    H135007   4.489   1.277  28.572
 3604TIP3    H235008   4.484   1.126  28.584
 3605TIP3   OH235009   4.421   1.679  28.338
 3605TIP3    H135010   4.326   1.686  28.401
 3605TIP3    H235011   4.455   1.759  28.476
 3606TIP3   OH235012   5.201   1.309  27.099
 3606TIP3    H135013   5.203   1.267  27.366
 3606TIP3    H235014   5.112   1.280  27.012
 3607TIP3   OH235015   5.623   1.732  27.219
 3607TIP3    H135016   5.680   1.792  27.072
 3607TIP3    H235017   5.554   1.794  27.321
 3608TIP3   OH235018   5.271   1.172  27.783
 3608TIP3    H135019   5.250   1.088  27.921
 3608TIP3    H235020   5.367   1.165  27.738
 3609TIP3   OH235021   4.598   1.444  26.658
 3609TIP3    H135022   4.583   1.388  26.427
 3609TIP3    H235023   4.541   1.399  26.856
 3610TIP3   OH235024   4.472   1.368  27.372
 3610TIP3    H135025   4.547   1.326  27.507
 3610TIP3    H235026   4.485   1.461  27.462
 3611TIP3   OH235027   4.160   1.109  27.570
 3611TIP3    H135028   4.076   1.149  27.660
 3611TIP3    H235029   4.199   1.183  27.414
 3612TIP3   OH235030   4.970   0.308  28.044
 3612TIP3    H135031   4.957   0.381  27.861
 3612TIP3    H235032   5.021   0.351  28.263
 3613TIP3   OH235033   4.764   1.536  27.549
 3613TIP3    H135034   4.679   1.580  27.612
 3613TIP3    H235035   4.820   1.613  27.504
 3614TIP3   OH235036   4.709   0.499  28.191
 3614TIP3    H135037   4.790   0.549  28.257
 3614TIP3    H235038   4.669   0.481  28.455
 3615TIP3   OH235039   4.763   0.205  28.428
 3615TIP3    H135040   4.754   0.287  28.584
 3615TIP3    H235041   4.848   0.226  28.290
 3616TIP3   OH235042   4.500   1.617  27.561
 3616TIP3    H135043   4.505   1.696  27.381
 3616TIP3    H235044   4.452   1.658  27.786
 3617TIP3   OH235045   4.348   0.350  27.441
 3617TIP3    H135046   4.322   0.417  27.639
 3617TIP3    H235047   4.440   0.334  27.537
 3618TIP3   OH235048   5.240   0.783  29.265
 3618TIP3    H135049   5.168   0.719  29.325
 3618TIP3    H235050   5.310   0.750  29.451
 3619TIP3   OH235051   4.180   1.359  27.105
 3619TIP3    H135052   4.252   1.400  27.258
 3619TIP3    H235053   4.232   1.313  26.895
 3620TIP3   OH235054   4.014   0.645  26.934
 3620TIP3    H135055   4.052   0.732  27.003
 3620TIP3    H235056   3.945   0.674  26.751
 3621TIP3   OH235057   5.361   1.723  29.898
 3621TIP3    H135058   5.373   1.799  29.715
 3621TIP3    H235059   5.447   1.719  30.024
 3622TIP3   OH235060   4.136   0.160  29.394
 3622TIP3    H135061   4.133   0.160  29.100
 3622TIP3    H235062   4.101   0.068  29.433
 3623TIP3   OH235063   3.976   1.476  28.326
 3623TIP3    H135064   3.901   1.534  28.392
 3623TIP3    H235065   4.011   1.526  28.095
 3624TIP3   OH235066   4.810   1.650  26.655
 3624TIP3    H135067   4.760   1.567  26.700
 3624TIP3    H235068   4.887   1.613  26.508
 3625TIP3   OH235069   5.256   1.553  26.685
 3625TIP3    H135070   5.273   1.491  26.904
 3625TIP3    H235071   5.344   1.566  26.574
 3626TIP3   OH235072   4.347   1.161  26.616
 3626TIP3    H135073   4.392   1.144  26.868
 3626TIP3    H235074   4.421   1.140  26.430
 3627TIP3   OH235075   4.907   1.299  26.589
 3627TIP3    H135076   4.872   1.291  26.859
 3627TIP3    H235077   4.896   1.205  26.502
 3628TIP3   OH235078   4.477   0.988  27.423
 3628TIP3    H135079   4.407   0.933  27.540
 3628TIP3    H235080   4.516   0.925  27.228
 3629TIP3   OH235081   4.596   0.810  26.826
 3629TIP3    H135082   4.591   0.839  26.547
 3629TIP3    H235083   4.693   0.818  26.874
 3630TIP3   OH235084   5.503   1.007  26.667
 3630TIP3    H135085   5.481   0.987  26.388
 3630TIP3    H235086   5.504   1.106  26.664
 3631TIP3   OH235087   4.550   1.854  27.267
 3631TIP3    H135088   4.643   1.852  27.357
 3631TIP3    H235089   4.559   1.910  27.027
 3632TIP3   OH235090   3.903   1.327  27.063
 3632TIP3    H135091   4.001   1.338  27.048
 3632TIP3    H235092   3.886   1.272  26.820
 3633TIP3   OH235093   3.806   1.826  28.416
 3633TIP3    H135094   3.719   1.785  28.353
 3633TIP3    H235095   3.826   1.776  28.662
 3634TIP3   OH235096   3.869   1.669  29.031
 3634TIP3    H135097   3.844   1.586  29.172
 3634TIP3    H235098   3.923   1.711  29.241
 3635TIP3   OH235099   5.552   1.134  27.768
 3635TIP3    H135100   5.636   1.181  27.813
 3635TIP3    H235101   5.550   1.073  28.002
 3636TIP3   OH235102   5.556   0.978  28.443
 3636TIP3    H135103   5.495   0.913  28.563
 3636TIP3    H235104   5.634   0.968  28.620
 3637TIP3   OH235105   5.645   1.216  29.859
 3637TIP3    H135106   5.706   1.175  29.670
 3637TIP3    H235107   5.590   1.274  29.694
 3638TIP3   OH235108   5.636   0.900  27.318
 3638TIP3    H135109   5.573   0.905  27.093
 3638TIP3    H235110   5.608   0.979  27.468
 3639TIP3   OH235111   5.451   0.648  26.844
 3639TIP3    H135112   5.459   0.694  26.592
 3639TIP3    H235113   5.415   0.558  26.781
 3640TIP3   OH235114   5.402   0.766  28.650
 3640TIP3    H135115   5.363   0.688  28.527
 3640TIP3    H235116   5.351   0.768  28.902
 3641TIP3   OH235117   3.837   0.952  29.655
 3641TIP3    H135118   3.881   0.948  29.391
 3641TIP3    H235119   3.914   0.950  29.835
 3642TIP3   OH235120   5.400   0.394  26.745
 3642TIP3    H135121   5.463   0.328  26.847
 3642TIP3    H235122   5.314   0.347  26.727
 3643TIP3   OH235123   5.317   0.567  28.140
 3643TIP3    H135124   5.344   0.472  28.140
 3643TIP3    H235125   5.401   0.607  28.053
 3644TIP3   OH235126   5.411   0.622  29.658
 3644TIP3    H135127   5.507   0.610  29.649
 3644TIP3    H235128   5.382   0.539  29.793
 3645TIP3   OH235129   5.407   0.304  28.221
 3645TIP3    H135130   5.432   0.250  28.455
 3645TIP3    H235131   5.343   0.248  28.077
 3646TIP3   OH235132   3.944   0.362  29.604
 3646TIP3    H135133   4.004   0.285  29.619
 3646TIP3    H235134   4.004   0.432  29.691
 3647TIP3   OH235135   3.799   0.621  29.958
 3647TIP3    H135136   3.829   0.596  29.688
 3647TIP3    H235137   3.821   0.715  29.946
 3648TIP3   OH235138   5.619   0.260  27.162
 3648TIP3    H135139   5.656   0.200  26.955
 3648TIP3    H235140   5.686   0.330  27.189
 3649TIP3   OH235141   3.841   0.250  28.173
 3649TIP3    H135142   3.745   0.250  28.155
 3649TIP3    H235143   3.865   0.302  27.933
 3650TIP3   OH235144   5.275   1.769  28.677
 3650TIP3    H135145   5.358   1.747  28.530
 3650TIP3    H235146   5.305   1.831  28.881
 3651TIP3   OH235147   4.034   1.766  29.646
 3651TIP3    H135148   4.044   1.769  29.943
 3651TIP3    H235149   4.113   1.713  29.574
 3652TIP3   OH235150   4.231   1.617  29.340
 3652TIP3    H135151   4.226   1.521  29.385
 3652TIP3    H235152   4.318   1.637  29.454
 3653TIP3   OH235153   4.482   1.664  29.643
 3653TIP3    H135154   4.506   1.572  29.580
 3653TIP3    H235155   4.479   1.661  29.934
 3654TIP3   OH235156   4.805   0.292  29.472
 3654TIP3    H135157   4.756   0.207  29.484
 3654TIP3    H235158   4.873   0.269  29.274
 3655TIP3   OH235159   5.329   0.116  29.451
 3655TIP3    H135160   5.392   0.138  29.232
 3655TIP3    H235161   5.248   0.159  29.358
 3656TIP3   OH235162   5.521   0.182  28.851
 3656TIP3    H135163   5.567   0.108  28.719
 3656TIP3    H235164   5.586   0.255  28.827
 3657TIP3   OH235165   4.084   0.122  28.629
 3657TIP3    H135166   4.011   0.140  28.443
 3657TIP3    H235167   4.079   0.024  28.641
 3658TIP3   OH235168   3.971   0.120  27.513
 3658TIP3    H135169   3.978   0.162  27.246
 3658TIP3    H235170   3.884   0.150  27.603
 3659TIP3   OH235171   4.534   0.125  28.719
 3659TIP3    H135172   4.610   0.153  28.557
 3659TIP3    H235173   4.575   0.123  28.989
 3660TIP3   OH235174   5.035   0.172  29.043
 3660TIP3    H135175   5.089   0.148  28.818
 3660TIP3    H235176   5.044   0.092  29.211
 3661TIP3   OH235177   5.205   0.196  27.750
 3661TIP3    H135178   5.112   0.223  27.714
 3661TIP3    H235179   5.193   0.104  27.834
 3662TIP3   OH235180   3.949   1.667  27.759
 3662TIP3    H135181   3.852   1.677  27.753
 3662TIP3    H235182   3.973   1.758  27.675
 3663TIP3   OH235183   4.097   0.250  26.940
 3663TIP3    H135184   4.152   0.192  26.766
 3663TIP3    H235185   4.158   0.257  27.168
 3664TIP3   OH235186   4.597   0.300  27.774
 3664TIP3    H135187   4.644   0.238  27.948
 3664TIP3    H235188   4.639   0.385  27.858
 3665TIP3   OH235189   4.857   1.794  27.312
 3665TIP3    H135190   4.950   1.793  27.225
 3665TIP3    H235191   4.819   1.760  27.060
 3666TIP3   OH235192   5.477   1.708  28.143
 3666TIP3    H135193   5.451   1.633  27.969
 3666TIP3    H235194   5.479   1.780  27.945
 3667TIP3   OH235195   4.076   1.743  26.814
 3667TIP3    H135196   4.053   1.781  27.072
 3667TIP3    H235197   4.149   1.685  26.892
 3668TIP3   OH235198   6.875   0.993  28.695
 3668TIP3    H135199   6.879   1.088  28.749
 3668TIP3    H235200   6.798   0.988  28.521
 3669TIP3   OH235201   6.748   0.899  29.640
 3669TIP3    H135202   6.748   0.863  29.916
 3669TIP3    H235203   6.689   0.837  29.505
 3670TIP3   OH235204   7.041   1.204  29.109
 3670TIP3    H135205   7.005   1.132  29.280
 3670TIP3    H235206   7.082   1.258  29.322
 3671TIP3   OH235207   6.093   1.342  29.706
 3671TIP3    H135208   6.078   1.253  29.583
 3671TIP3    H235209   6.189   1.350  29.679
 3672TIP3   OH235210   5.762   0.667  28.392
 3672TIP3    H135211   5.726   0.754  28.452
 3672TIP3    H235212   5.683   0.618  28.314
 3673TIP3   OH235213   5.792   0.907  28.869
 3673TIP3    H135214   5.834   0.833  29.013
 3673TIP3    H235215   5.865   0.946  28.722
 3674TIP3   OH235216   6.882   1.760  29.466
 3674TIP3    H135217   6.923   1.710  29.238
 3674TIP3    H235218   6.810   1.698  29.529
 3675TIP3   OH235219   6.618   1.187  30.027
 3675TIP3    H135220   6.648   1.146  29.778
 3675TIP3    H235221   6.691   1.167  30.207
 3676TIP3   OH235222   6.916   0.575  29.988
 3676TIP3    H135223   6.947   0.483  30.009
 3676TIP3    H235224   6.946   0.598  29.718
 3677TIP3   OH235225   6.237   0.410  29.088
 3677TIP3    H135226   6.251   0.491  28.920
 3677TIP3    H235227   6.188   0.354  28.896
 3678TIP3   OH235228   6.997   0.436  28.536
 3678TIP3    H135229   7.037   0.412  28.797
 3678TIP3    H235230   7.048   0.515  28.464
 3679TIP3   OH235231   5.850   0.673  29.304
 3679TIP3    H135232   5.922   0.631  29.457
 3679TIP3    H235233   5.868   0.635  29.040
 3680TIP3   OH235234   6.376   0.820  29.160
 3680TIP3    H135235   6.447   0.767  29.274
 3680TIP3    H235236   6.337   0.753  28.977
 3681TIP3   OH235237   6.800   1.241  28.353
 3681TIP3    H135238   6.777   1.250  28.071
 3681TIP3    H235239   6.768   1.326  28.461
 3682TIP3   OH235240   7.104   0.379  29.244
 3682TIP3    H135241   7.062   0.365  29.505
 3682TIP3    H235242   7.199   0.361  29.295
 3683TIP3   OH235243   6.074   0.504  29.673
 3683TIP3    H135244   6.103   0.595  29.616
 3683TIP3    H235245   6.118   0.456  29.451
 3684TIP3   OH235246   5.812   1.229  27.822
 3684TIP3    H135247   5.804   1.288  27.588
 3684TIP3    H235248   5.821   1.294  28.038
 3685TIP3   OH235249   7.188   1.335  29.694
 3685TIP3    H135250   7.151   1.283  29.916
 3685TIP3    H235251   7.221   1.412  29.838
 3686TIP3   OH235252   6.497   0.091  29.463
 3686TIP3    H135253   6.509  -0.005  29.514
 3686TIP3    H235254   6.422   0.108  29.646
 3687TIP3   OH235255   6.973   1.597  28.860
 3687TIP3    H135256   6.997   1.507  28.764
 3687TIP3    H235257   7.055   1.647  28.797
 3688TIP3   OH235258   7.117   1.379  28.488
 3688TIP3    H135259   7.105   1.307  28.296
 3688TIP3    H235260   7.135   1.327  28.731
 3689TIP3   OH235261   6.725   0.927  27.942
 3689TIP3    H135262   6.682   1.012  27.876
 3689TIP3    H235263   6.814   0.936  27.822
 3690TIP3   OH235264   6.747   0.829  26.979
 3690TIP3    H135265   6.808   0.871  27.174
 3690TIP3    H235266   6.758   0.736  27.051
 3691TIP3   OH235267   7.098   0.953  28.185
 3691TIP3    H135268   7.030   0.977  28.386
 3691TIP3    H235269   7.153   0.893  28.350
 3692TIP3   OH235270   6.238   1.004  28.755
 3692TIP3    H135271   6.207   0.957  28.515
 3692TIP3    H235272   6.297   0.939  28.884
 3693TIP3   OH235273   6.374   1.377  29.553
 3693TIP3    H135274   6.355   1.353  29.274
 3693TIP3    H235275   6.430   1.302  29.640
 3694TIP3   OH235276   6.209   0.837  29.814
 3694TIP3    H135277   6.262   0.851  29.571
 3694TIP3    H235278   6.242   0.908  29.988
 3695TIP3   OH235279   6.952   0.886  27.513
 3695TIP3    H135280   7.010   0.913  27.735
 3695TIP3    H235281   7.000   0.927  27.285
 3696TIP3   OH235282   6.731   1.502  28.431
 3696TIP3    H135283   6.779   1.536  28.662
 3696TIP3    H235284   6.687   1.583  28.335
 3697TIP3   OH235285   7.315   0.106  27.321
 3697TIP3    H135286   7.236   0.149  27.423
 3697TIP3    H235287   7.382   0.175  27.378
 3698TIP3   OH235288   6.100   0.911  28.071
 3698TIP3    H135289   6.085   0.997  27.936
 3698TIP3    H235290   6.078   0.848  27.858
 3699TIP3   OH235291   7.448   1.492  27.018
 3699TIP3    H135292   7.479   1.585  27.069
 3699TIP3    H235293   7.536   1.450  27.039
 3700TIP3   OH235294   5.731   1.474  29.589
 3700TIP3    H135295   5.803   1.422  29.706
 3700TIP3    H235296   5.687   1.512  29.820
 3701TIP3   OH235297   6.696   1.799  28.047
 3701TIP3    H135298   6.687   1.809  27.753
 3701TIP3    H235299   6.679   1.892  28.128
 3702TIP3   OH235300   6.053   1.690  28.575
 3702TIP3    H135301   6.073   1.677  28.860
 3702TIP3    H235302   5.962   1.655  28.551
 3703TIP3   OH235303   6.976   1.741  27.138
 3703TIP3    H135304   7.029   1.667  27.021
 3703TIP3    H235305   6.988   1.724  27.426
 3704TIP3   OH235306   6.956   1.724  27.954
 3704TIP3    H135307   6.861   1.739  28.002
 3704TIP3    H235308   6.976   1.658  28.158
 3705TIP3   OH235309   6.252   0.177  29.847
 3705TIP3    H135310   6.179   0.192  29.652
 3705TIP3    H235311   6.287   0.268  29.880
 3706TIP3   OH235312   7.096   1.007  26.958
 3706TIP3    H135313   7.071   1.016  26.673
 3706TIP3    H235314   7.191   1.025  26.943
 3707TIP3   OH235315   6.648   0.373  27.096
 3707TIP3    H135316   6.622   0.315  27.318
 3707TIP3    H235317   6.615   0.323  26.871
 3708TIP3   OH235318   6.252   0.642  28.710
 3708TIP3    H135319   6.156   0.622  28.689
 3708TIP3    H235320   6.283   0.624  28.434
 3709TIP3   OH235321   6.828   0.703  28.248
 3709TIP3    H135322   6.780   0.778  28.122
 3709TIP3    H235323   6.882   0.673  28.023
 3710TIP3   OH235324   6.910   0.630  29.115
 3710TIP3    H135325   6.883   0.695  28.911
 3710TIP3    H235326   6.913   0.550  28.944
 3711TIP3   OH235327   6.319   0.401  26.736
 3711TIP3    H135328   6.275   0.362  26.976
 3711TIP3    H235329   6.245   0.457  26.637
 3712TIP3   OH235330   5.684   0.414  28.926
 3712TIP3    H135331   5.729   0.401  29.187
 3712TIP3    H235332   5.748   0.376  28.743
 3713TIP3   OH235333   5.772   0.444  27.510
 3713TIP3    H135334   5.837   0.480  27.324
 3713TIP3    H235335   5.724   0.525  27.591
 3714TIP3   OH235336   6.522   0.403  28.893
 3714TIP3    H135337   6.439   0.364  28.992
 3714TIP3    H235338   6.582   0.382  29.118
 3715TIP3   OH235339   5.992   0.556  28.668
 3715TIP3    H135340   5.914   0.601  28.545
 3715TIP3    H235341   6.014   0.489  28.464
 3716TIP3   OH235342   6.330   0.601  27.960
 3716TIP3    H135343   6.422   0.581  27.876
 3716TIP3    H235344   6.290   0.645  27.729
 3717TIP3   OH235345   6.922   0.292  29.880
 3717TIP3    H135346   6.892   0.274  30.153
 3717TIP3    H235347   6.835   0.279  29.751
 3718TIP3   OH235348   6.228   0.716  27.162
 3718TIP3    H135349   6.200   0.640  27.003
 3718TIP3    H235350   6.309   0.742  27.012
 3719TIP3   OH235351   6.620   0.650  29.565
 3719TIP3    H135352   6.690   0.631  29.373
 3719TIP3    H235353   6.645   0.587  29.772
 3720TIP3   OH235354   6.109   0.318  28.377
 3720TIP3    H135355   6.060   0.242  28.494
 3720TIP3    H235356   6.179   0.268  28.248
 3721TIP3   OH235357   6.559   1.155  27.780
 3721TIP3    H135358   6.484   1.105  27.657
 3721TIP3    H235359   6.515   1.178  28.035
 3722TIP3   OH235360   6.902   0.404  27.264
 3722TIP3    H135361   6.809   0.418  27.186
 3722TIP3    H235362   6.932   0.494  27.345
 3723TIP3   OH235363   6.995   0.612  27.624
 3723TIP3    H135364   7.084   0.606  27.747
 3723TIP3    H235365   7.000   0.693  27.465
 3724TIP3   OH235366   6.040   1.093  29.424
 3724TIP3    H135367   6.069   1.067  29.157
 3724TIP3    H235368   6.101   1.047  29.601
 3725TIP3   OH235369   6.756   1.290  27.471
 3725TIP3    H135370   6.718   1.379  27.537
 3725TIP3    H235371   6.684   1.230  27.564
 3726TIP3   OH235372   7.469   0.635  27.597
 3726TIP3    H135373   7.423   0.595  27.366
 3726TIP3    H235374   7.493   0.723  27.480
 3727TIP3   OH235375   7.310   1.504  27.723
 3727TIP3    H135376   7.252   1.429  27.789
 3727TIP3    H235377   7.361   1.475  27.489
 3728TIP3   OH235378   6.989   1.018  29.679
 3728TIP3    H135379   6.904   0.971  29.616
 3728TIP3    H235380   7.053   0.964  29.520
 3729TIP3   OH235381   6.281   1.430  28.785
 3729TIP3    H135382   6.325   1.516  28.737
 3729TIP3    H235383   6.204   1.439  28.614
 3730TIP3   OH235384   5.911   0.925  27.114
 3730TIP3    H135385   5.952   0.986  27.309
 3730TIP3    H235386   5.815   0.931  27.171
 3731TIP3   OH235387   6.408   1.191  28.434
 3731TIP3    H135388   6.376   1.271  28.572
 3731TIP3    H235389   6.360   1.120  28.575
 3732TIP3   OH235390   6.312   1.669  28.347
 3732TIP3    H135391   6.215   1.678  28.383
 3732TIP3    H235392   6.341   1.754  28.455
 3733TIP3   OH235393   7.084   1.333  27.099
 3733TIP3    H135394   7.100   1.286  27.351
 3733TIP3    H235395   6.994   1.301  27.054
 3734TIP3   OH235396   7.532   1.742  27.156
 3734TIP3    H135397   7.556   1.828  27.033
 3734TIP3    H235398   7.446   1.769  27.261
 3735TIP3   OH235399   7.181   1.177  27.732
 3735TIP3    H135400   7.151   1.088  27.798
 3735TIP3    H235401   7.279   1.165  27.708
 3736TIP3   OH235402   6.479   1.448  26.649
 3736TIP3    H135403   6.459   1.399  26.403
 3736TIP3    H235404   6.426   1.396  26.841
 3737TIP3   OH235405   6.359   1.357  27.363
 3737TIP3    H135406   6.438   1.320  27.486
 3737TIP3    H235407   6.367   1.450  27.456
 3738TIP3   OH235408   6.037   1.112  27.540
 3738TIP3    H135409   5.952   1.151  27.633
 3738TIP3    H235410   6.078   1.189  27.411
 3739TIP3   OH235411   6.842   0.306  28.050
 3739TIP3    H135412   6.838   0.377  27.849
 3739TIP3    H235413   6.907   0.344  28.239
 3740TIP3   OH235414   6.648   1.549  27.558
 3740TIP3    H135415   6.557   1.582  27.609
 3740TIP3    H235416   6.694   1.632  27.498
 3741TIP3   OH235417   6.584   0.501  28.167
 3741TIP3    H135418   6.660   0.556  28.242
 3741TIP3    H235419   6.548   0.476  28.431
 3742TIP3   OH235420   6.652   0.200  28.461
 3742TIP3    H135421   6.639   0.291  28.548
 3742TIP3    H235422   6.739   0.211  28.326
 3743TIP3   OH235423   6.384   1.610  27.555
 3743TIP3    H135424   6.394   1.688  27.372
 3743TIP3    H235425   6.339   1.655  27.777
 3744TIP3   OH235426   6.210   0.343  27.459
 3744TIP3    H135427   6.192   0.411  27.657
 3744TIP3    H235428   6.303   0.325  27.531
 3745TIP3   OH235429   7.109   0.829  29.265
 3745TIP3    H135430   7.035   0.767  29.232
 3745TIP3    H235431   7.164   0.777  29.451
 3746TIP3   OH235432   6.073   1.353  27.111
 3746TIP3    H135433   6.144   1.392  27.273
 3746TIP3    H235434   6.126   1.304  26.916
 3747TIP3   OH235435   5.901   0.643  26.922
 3747TIP3    H135436   5.943   0.727  27.003
 3747TIP3    H235437   5.828   0.678  26.763
 3748TIP3   OH235438   7.277   1.713  29.883
 3748TIP3    H135439   7.281   1.776  29.661
 3748TIP3    H235440   7.369   1.715  29.985
 3749TIP3   OH235441   6.018   0.162  29.388
 3749TIP3    H135442   6.014   0.160  29.094
 3749TIP3    H235443   5.984   0.071  29.436
 3750TIP3   OH235444   5.865   1.476  28.338
 3750TIP3    H135445   5.788   1.533  28.389
 3750TIP3    H235446   5.900   1.524  28.104
 3751TIP3   OH235447   6.688   1.642  26.640
 3751TIP3    H135448   6.640   1.559  26.703
 3751TIP3    H235449   6.772   1.607  26.532
 3752TIP3   OH235450   7.145   1.577  26.718
 3752TIP3    H135451   7.165   1.502  26.898
 3752TIP3    H235452   7.223   1.576  26.541
 3753TIP3   OH235453   6.224   1.163  26.619
 3753TIP3    H135454   6.252   1.129  26.877
 3753TIP3    H235455   6.302   1.138  26.448
 3754TIP3   OH235456   6.792   1.293  26.583
 3754TIP3    H135457   6.757   1.289  26.856
 3754TIP3    H235458   6.775   1.199  26.505
 3755TIP3   OH235459   6.358   0.992  27.435
 3755TIP3    H135460   6.294   0.931  27.555
 3755TIP3    H235461   6.404   0.931  27.255
 3756TIP3   OH235462   6.489   0.808  26.796
 3756TIP3    H135463   6.480   0.838  26.520
 3756TIP3    H235464   6.586   0.820  26.829
 3757TIP3   OH235465   7.376   1.015  26.664
 3757TIP3    H135466   7.341   1.006  26.391
 3757TIP3    H235467   7.387   1.113  26.688
 3758TIP3   OH235468   6.437   1.844  27.243
 3758TIP3    H135469   6.532   1.848  27.312
 3758TIP3    H235470   6.435   1.908  27.024
 3759TIP3   OH235471   5.797   1.328  27.054
 3759TIP3    H135472   5.896   1.329  27.045
 3759TIP3    H235473   5.775   1.275  26.814
 3760TIP3   OH235474   5.685   1.841  28.428
 3760TIP3    H135475   5.603   1.791  28.362
 3760TIP3    H235476   5.711   1.793  28.674
 3761TIP3   OH235477   5.756   1.672  29.025
 3761TIP3    H135478   5.723   1.589  29.148
 3761TIP3    H235479   5.799   1.716  29.259
 3762TIP3   OH235480   7.451   1.130  27.789
 3762TIP3    H135481   7.540   1.159  27.855
 3762TIP3    H235482   7.437   1.064  28.002
 3763TIP3   OH235483   7.469   0.948  28.413
 3763TIP3    H135484   7.380   0.908  28.452
 3763TIP3    H235485   7.511   0.926  28.668
 3764TIP3   OH235486   7.548   1.180  29.904
 3764TIP3    H135487   7.640   1.194  29.820
 3764TIP3    H235488   7.507   1.266  29.829
 3765TIP3   OH235489   7.494   0.902  27.336
 3765TIP3    H135490   7.439   0.913  27.096
 3765TIP3    H235491   7.491   0.993  27.441
 3766TIP3   OH235492   7.313   0.637  26.910
 3766TIP3    H135493   7.325   0.691  26.676
 3766TIP3    H235494   7.291   0.549  26.793
 3767TIP3   OH235495   7.261   0.794  28.638
 3767TIP3    H135496   7.317   0.717  28.686
 3767TIP3    H235497   7.202   0.793  28.875
 3768TIP3   OH235498   5.725   0.944  29.643
 3768TIP3    H135499   5.761   0.941  29.370
 3768TIP3    H235500   5.807   0.953  29.799
 3769TIP3   OH235501   7.266   0.388  26.610
 3769TIP3    H135502   7.304   0.330  26.817
 3769TIP3    H235503   7.172   0.362  26.607
 3770TIP3   OH235504   7.239   0.552  28.083
 3770TIP3    H135505   7.250   0.455  28.116
 3770TIP3    H235506   7.332   0.578  28.050
 3771TIP3   OH235507   7.234   0.629  29.628
 3771TIP3    H135508   7.331   0.622  29.574
 3771TIP3    H235509   7.222   0.544  29.769
 3772TIP3   OH235510   7.283   0.288  28.158
 3772TIP3    H135511   7.289   0.221  28.371
 3772TIP3    H235512   7.200   0.261  28.020
 3773TIP3   OH235513   5.825   0.350  29.613
 3773TIP3    H135514   5.887   0.274  29.622
 3773TIP3    H235515   5.884   0.422  29.697
 3774TIP3   OH235516   5.688   0.632  29.943
 3774TIP3    H135517   5.728   0.628  29.673
 3774TIP3    H235518   5.698   0.727  29.997
 3775TIP3   OH235519   7.485   0.297  27.150
 3775TIP3    H135520   7.527   0.219  27.012
 3775TIP3    H235521   7.513   0.371  26.985
 3776TIP3   OH235522   5.734   0.249  28.179
 3776TIP3    H135523   5.638   0.240  28.170
 3776TIP3    H235524   5.749   0.301  27.939
 3777TIP3   OH235525   7.179   1.772  28.695
 3777TIP3    H135526   7.230   1.752  28.449
 3777TIP3    H235527   7.249   1.810  28.863
 3778TIP3   OH235528   5.920   1.769  29.664
 3778TIP3    H135529   5.939   1.774  29.952
 3778TIP3    H235530   5.996   1.715  29.568
 3779TIP3   OH235531   6.124   1.622  29.337
 3779TIP3    H135532   6.122   1.525  29.352
 3779TIP3    H235533   6.215   1.640  29.433
 3780TIP3   OH235534   6.369   1.653  29.637
 3780TIP3    H135535   6.378   1.555  29.640
 3780TIP3    H235536   6.355   1.671  29.916
 3781TIP3   OH235537   6.688   0.291  29.433
 3781TIP3    H135538   6.631   0.211  29.481
 3781TIP3    H235539   6.753   0.253  29.241
 3782TIP3   OH235540   7.237   0.109  29.493
 3782TIP3    H135541   7.288   0.112  29.241
 3782TIP3    H235542   7.149   0.137  29.415
 3783TIP3   OH235543   7.371   0.131  28.791
 3783TIP3    H135544   7.440   0.068  28.710
 3783TIP3    H235545   7.421   0.216  28.800
 3784TIP3   OH235546   5.965   0.123  28.629
 3784TIP3    H135547   5.892   0.139  28.443
 3784TIP3    H235548   5.963   0.025  28.647
 3785TIP3   OH235549   5.863   0.118  27.510
 3785TIP3    H135550   5.868   0.153  27.237
 3785TIP3    H235551   5.771   0.136  27.576
 3786TIP3   OH235552   6.420   0.122  28.701
 3786TIP3    H135553   6.498   0.153  28.548
 3786TIP3    H235554   6.459   0.120  28.974
 3787TIP3   OH235555   6.900   0.164  29.055
 3787TIP3    H135556   6.984   0.182  28.926
 3787TIP3    H235557   6.917   0.079  29.187
 3788TIP3   OH235558   7.077   0.185  27.774
 3788TIP3    H135559   6.983   0.214  27.759
 3788TIP3    H235560   7.067   0.092  27.852
 3789TIP3   OH235561   5.839   1.672  27.765
 3789TIP3    H135562   5.743   1.685  27.744
 3789TIP3    H235563   5.869   1.758  27.660
 3790TIP3   OH235564   5.977   0.259  26.919
 3790TIP3    H135565   6.037   0.201  26.763
 3790TIP3    H235566   6.028   0.270  27.165
 3791TIP3   OH235567   6.484   0.300  27.747
 3791TIP3    H135568   6.531   0.236  27.912
 3791TIP3    H235569   6.527   0.383  27.843
 3792TIP3   OH235570   6.712   1.805  27.249
 3792TIP3    H135571   6.806   1.805  27.159
 3792TIP3    H235572   6.678   1.749  27.027
 3793TIP3   OH235573   7.339   1.743  28.065
 3793TIP3    H135574   7.334   1.656  27.930
 3793TIP3    H235575   7.340   1.805  27.837
 3794TIP3   OH235576   5.956   1.744  26.811
 3794TIP3    H135577   5.931   1.783  27.069
 3794TIP3    H235578   6.034   1.690  26.880
 3795TIP3   OH235579   7.552   0.690  28.422
 3795TIP3    H135580   7.539   0.782  28.341
 3795TIP3    H235581   7.528   0.646  28.176
 3796TIP3   OH235582   7.556   1.446  29.694
 3796TIP3    H135583   7.654   1.452  29.688
 3796TIP3    H235584   7.532   1.493  29.937
 3797TIP3   OH235585   7.501   0.385  28.902
 3797TIP3    H135586   7.581   0.435  28.989
 3797TIP3    H235587   7.522   0.375  28.620
 3798TIP3   OH235588   7.511   1.853  28.572
 3798TIP3    H135589   7.454   1.803  28.383
 3798TIP3    H235590   7.523   1.786  28.788
 3799TIP3   OH235591   7.550   1.702  29.235
 3799TIP3    H135592   7.514   1.612  29.265
 3799TIP3    H235593   7.647   1.687  29.229
 3800TIP3   OH235594   7.645   0.891  29.748
 3800TIP3    H135595   7.671   0.931  29.493
 3800TIP3    H235596   7.661   0.965  29.928
 3801TIP3   OH235597   7.503   0.628  29.661
 3801TIP3    H135598   7.582   0.572  29.679
 3801TIP3    H235599   7.540   0.714  29.739
 3802TIP3   OH235600   7.558   0.308  28.089
 3802TIP3    H135601   7.461   0.305  28.104
 3802TIP3    H235602   7.571   0.309  27.798
 3803TIP3   OH235603   1.207   2.897  28.653
 3803TIP3    H135604   1.212   2.994  28.686
 3803TIP3    H235605   1.131   2.890  28.479
 3804TIP3   OH235606   1.103   2.796  29.676
 3804TIP3    H135607   1.094   2.755  29.937
 3804TIP3    H235608   1.035   2.751  29.520
 3805TIP3   OH235609   1.399   3.088  29.160
 3805TIP3    H135610   1.377   3.010  29.325
 3805TIP3    H235611   1.439   3.149  29.358
 3806TIP3   OH235612   0.388   3.225  29.607
 3806TIP3    H135613   0.380   3.131  29.523
 3806TIP3    H235614   0.482   3.228  29.688
 3807TIP3   OH235615   0.127   2.531  28.164
 3807TIP3    H135616   0.149   2.611  28.314
 3807TIP3    H235617   0.037   2.514  28.269
 3808TIP3   OH235618   0.108   2.799  29.085
 3808TIP3    H135619   0.153   2.717  29.178
 3808TIP3    H235620   0.176   2.841  28.923
 3809TIP3   OH235621   1.164   3.654  29.289
 3809TIP3    H135622   1.221   3.599  29.112
 3809TIP3    H235623   1.123   3.581  29.433
 3810TIP3   OH235624   0.972   3.068  29.994
 3810TIP3    H135625   1.017   3.021  29.781
 3810TIP3    H235626   1.039   3.060  30.201
 3811TIP3   OH235627   1.251   2.505  29.970
 3811TIP3    H135628   1.275   2.410  29.979
 3811TIP3    H235629   1.245   2.518  29.682
 3812TIP3   OH235630   0.595   2.279  29.178
 3812TIP3    H135631   0.603   2.363  29.025
 3812TIP3    H235632   0.551   2.224  28.974
 3813TIP3   OH235633   1.292   2.328  28.605
 3813TIP3    H135634   1.347   2.290  28.827
 3813TIP3    H235635   1.358   2.390  28.503
 3814TIP3   OH235636   0.243   2.563  29.223
 3814TIP3    H135637   0.293   2.494  29.367
 3814TIP3    H235638   0.255   2.529  28.953
 3815TIP3   OH235639   0.685   2.691  29.139
 3815TIP3    H135640   0.762   2.646  29.253
 3815TIP3    H235641   0.650   2.618  28.971
 3816TIP3   OH235642   1.146   3.139  28.293
 3816TIP3    H135643   1.124   3.138  28.008
 3816TIP3    H235644   1.124   3.233  28.356
 3817TIP3   OH235645   1.470   2.264  29.145
 3817TIP3    H135646   1.409   2.241  29.367
 3817TIP3    H235647   1.556   2.238  29.253
 3818TIP3   OH235648   0.391   2.393  29.652
 3818TIP3    H135649   0.434   2.461  29.811
 3818TIP3    H235650   0.465   2.353  29.502
 3819TIP3   OH235651   0.120   3.109  27.816
 3819TIP3    H135652   0.116   3.164  27.573
 3819TIP3    H235653   0.149   3.175  28.017
 3820TIP3   OH235654   1.514   3.253  29.673
 3820TIP3    H135655   1.489   3.191  29.886
 3820TIP3    H235656   1.556   3.321  29.832
 3821TIP3   OH235657   0.855   1.964  29.529
 3821TIP3    H135658   0.878   1.870  29.541
 3821TIP3    H235659   0.758   1.965  29.592
 3822TIP3   OH235660   1.307   3.487  28.854
 3822TIP3    H135661   1.353   3.406  28.773
 3822TIP3    H235662   1.379   3.551  28.791
 3823TIP3   OH235663   1.468   3.274  28.530
 3823TIP3    H135664   1.435   3.211  28.332
 3823TIP3    H235665   1.464   3.218  28.770
 3824TIP3   OH235666   1.065   2.816  27.885
 3824TIP3    H135667   1.023   2.903  27.831
 3824TIP3    H235668   1.155   2.826  27.774
 3825TIP3   OH235669   1.096   2.706  26.955
 3825TIP3    H135670   1.144   2.740  27.192
 3825TIP3    H235671   1.122   2.613  26.958
 3826TIP3   OH235672   1.451   2.820  28.209
 3826TIP3    H135673   1.386   2.838  28.422
 3826TIP3    H235674   1.520   2.768  28.350
 3827TIP3   OH235675   0.575   2.893  28.758
 3827TIP3    H135676   0.530   2.850  28.530
 3827TIP3    H235677   0.624   2.819  28.884
 3828TIP3   OH235678   0.733   3.265  29.559
 3828TIP3    H135679   0.718   3.232  29.289
 3828TIP3    H235680   0.798   3.201  29.667
 3829TIP3   OH235681   0.570   2.777  29.823
 3829TIP3    H135682   0.604   2.742  29.568
 3829TIP3    H235683   0.652   2.801  29.961
 3830TIP3   OH235684   1.303   2.797  27.510
 3830TIP3    H135685   1.366   2.812  27.735
 3830TIP3    H235686   1.356   2.829  27.279
 3831TIP3   OH235687   1.077   3.392  28.410
 3831TIP3    H135688   1.130   3.423  28.635
 3831TIP3    H235689   1.026   3.471  28.338
 3832TIP3   OH235690   1.690   1.907  27.582
 3832TIP3    H135691   1.596   1.918  27.654
 3832TIP3    H235692   1.719   1.996  27.507
 3833TIP3   OH235693   0.448   2.782  28.062
 3833TIP3    H135694   0.437   2.867  27.915
 3833TIP3    H235695   0.417   2.719  27.867
 3834TIP3   OH235696   1.799   3.350  27.006
 3834TIP3    H135697   1.819   3.443  27.072
 3834TIP3    H235698   1.879   3.307  27.114
 3835TIP3   OH235699   0.141   3.355  29.706
 3835TIP3    H135700   0.213   3.289  29.685
 3835TIP3    H235701   0.171   3.402  29.943
 3836TIP3   OH235702   1.054   3.702  28.074
 3836TIP3    H135703   1.052   3.711  27.780
 3836TIP3    H235704   1.025   3.792  28.152
 3837TIP3   OH235705   0.409   3.574  28.599
 3837TIP3    H135706   0.425   3.543  28.875
 3837TIP3    H235707   0.313   3.564  28.575
 3838TIP3   OH235708   1.354   3.633  27.135
 3838TIP3    H135709   1.406   3.557  27.033
 3838TIP3    H235710   1.350   3.614  27.426
 3839TIP3   OH235711   1.310   3.621  27.942
 3839TIP3    H135712   1.217   3.642  28.002
 3839TIP3    H235713   1.328   3.552  28.140
 3840TIP3   OH235714   0.590   2.018  29.595
 3840TIP3    H135715   0.501   2.046  29.508
 3840TIP3    H235716   0.618   2.095  29.760
 3841TIP3   OH235717   1.463   2.896  26.949
 3841TIP3    H135718   1.444   2.911  26.664
 3841TIP3    H235719   1.559   2.913  26.955
 3842TIP3   OH235720   1.026   2.250  26.970
 3842TIP3    H135721   0.984   2.247  27.231
 3842TIP3    H235722   0.983   2.171  26.853
 3843TIP3   OH235723   0.600   2.493  28.695
 3843TIP3    H135724   0.504   2.485  28.632
 3843TIP3    H235725   0.639   2.490  28.419
 3844TIP3   OH235726   1.162   2.597  28.221
 3844TIP3    H135727   1.118   2.673  28.092
 3844TIP3    H235728   1.219   2.566  28.002
 3845TIP3   OH235729   1.227   2.552  29.136
 3845TIP3    H135730   1.205   2.627  28.959
 3845TIP3    H235731   1.231   2.478  28.941
 3846TIP3   OH235732   0.659   2.281  26.805
 3846TIP3    H135733   0.605   2.222  26.982
 3846TIP3    H235734   0.592   2.327  26.652
 3847TIP3   OH235735   0.085   2.248  28.932
 3847TIP3    H135736   0.125   2.251  29.202
 3847TIP3    H235737   0.123   2.165  28.833
 3848TIP3   OH235738   0.112   2.342  27.474
 3848TIP3    H135739   0.175   2.373  27.270
 3848TIP3    H235740   0.105   2.422  27.639
 3849TIP3   OH235741   0.878   2.284  28.872
 3849TIP3    H135742   0.793   2.271  29.004
 3849TIP3    H235743   0.939   2.241  29.067
 3850TIP3   OH235744   0.339   2.439  28.557
 3850TIP3    H135745   0.270   2.447  28.347
 3850TIP3    H235746   0.347   2.340  28.551
 3851TIP3   OH235747   0.694   2.464  27.933
 3851TIP3    H135748   0.789   2.455  27.870
 3851TIP3    H235749   0.657   2.518  27.714
 3852TIP3   OH235750   1.292   2.243  29.745
 3852TIP3    H135751   1.295   2.219  30.030
 3852TIP3    H235752   1.198   2.226  29.682
 3853TIP3   OH235753   0.571   2.589  27.138
 3853TIP3    H135754   0.526   2.535  26.937
 3853TIP3    H235755   0.655   2.612  27.000
 3854TIP3   OH235756   0.953   2.556  29.538
 3854TIP3    H135757   0.990   2.537  29.277
 3854TIP3    H235758   1.014   2.506  29.709
 3855TIP3   OH235759   0.408   2.188  28.512
 3855TIP3    H135760   0.341   2.118  28.575
 3855TIP3    H235761   0.447   2.146  28.281
 3856TIP3   OH235762   0.906   3.033  27.813
 3856TIP3    H135763   0.833   2.984  27.681
 3856TIP3    H235764   0.860   3.058  28.065
 3857TIP3   OH235765   1.264   2.296  27.294
 3857TIP3    H135766   1.181   2.303  27.141
 3857TIP3    H235767   1.289   2.391  27.324
 3858TIP3   OH235768   1.330   2.528  27.582
 3858TIP3    H135769   1.400   2.497  27.762
 3858TIP3    H235770   1.359   2.617  27.501
 3859TIP3   OH235771   0.415   2.976  29.346
 3859TIP3    H135772   0.465   2.956  29.100
 3859TIP3    H235773   0.470   2.930  29.544
 3860TIP3   OH235774   1.089   3.174  27.429
 3860TIP3    H135775   1.056   3.263  27.504
 3860TIP3    H235776   1.021   3.116  27.552
 3861TIP3   OH235777   1.822   2.494  27.585
 3861TIP3    H135778   1.764   2.487  27.348
 3861TIP3    H235779   1.847   2.588  27.579
 3862TIP3   OH235780   1.646   3.376  27.693
 3862TIP3    H135781   1.627   3.310  27.894
 3862TIP3    H235782   1.692   3.327  27.480
 3863TIP3   OH235783   1.373   2.868  29.700
 3863TIP3    H135784   1.279   2.840  29.670
 3863TIP3    H235785   1.421   2.798  29.541
 3864TIP3   OH235786   0.631   3.314  28.689
 3864TIP3    H135787   0.657   3.399  28.560
 3864TIP3    H235788   0.541   3.307  28.593
 3865TIP3   OH235789   0.241   2.805  27.111
 3865TIP3    H135790   0.295   2.879  27.219
 3865TIP3    H235791   0.157   2.816  27.252
 3866TIP3   OH235792   0.756   3.074  28.506
 3866TIP3    H135793   0.710   3.156  28.587
 3866TIP3    H235794   0.709   3.005  28.659
 3867TIP3   OH235795   0.664   3.552  28.344
 3867TIP3    H135796   0.570   3.570  28.401
 3867TIP3    H235797   0.705   3.632  28.455
 3868TIP3   OH235798   1.426   3.206  27.057
 3868TIP3    H135799   1.439   3.165  27.321
 3868TIP3    H235800   1.335   3.176  27.015
 3869TIP3   OH235801   1.850   3.630  27.192
 3869TIP3    H135802   1.896   3.697  27.033
 3869TIP3    H235803   1.782   3.686  27.321
 3870TIP3   OH235804   1.508   3.058  27.753
 3870TIP3    H135805   1.486   2.972  27.870
 3870TIP3    H235806   1.605   3.049  27.717
 3871TIP3   OH235807   0.828   3.335  26.658
 3871TIP3    H135808   0.825   3.278  26.421
 3871TIP3    H235809   0.768   3.286  26.835
 3872TIP3   OH235810   0.685   3.242  27.360
 3872TIP3    H135811   0.762   3.205  27.495
 3872TIP3    H235812   0.695   3.337  27.444
 3873TIP3   OH235813   0.367   2.994  27.573
 3873TIP3    H135814   0.287   3.030  27.702
 3873TIP3    H235815   0.396   3.066  27.396
 3874TIP3   OH235816   1.218   2.168  27.975
 3874TIP3    H135817   1.231   2.226  27.741
 3874TIP3    H235818   1.256   2.222  28.191
 3875TIP3   OH235819   1.001   3.427  27.552
 3875TIP3    H135820   0.912   3.462  27.618
 3875TIP3    H235821   1.050   3.509  27.504
 3876TIP3   OH235822   0.952   2.381  28.146
 3876TIP3    H135823   1.009   2.458  28.200
 3876TIP3    H235824   0.918   2.356  28.413
 3877TIP3   OH235825   1.000   2.064  28.332
 3877TIP3    H135826   0.974   2.140  28.500
 3877TIP3    H235827   1.080   2.103  28.200
 3878TIP3   OH235828   0.732   3.491  27.555
 3878TIP3    H135829   0.749   3.575  27.405
 3878TIP3    H235830   0.693   3.532  27.798
 3879TIP3   OH235831   0.562   2.181  27.495
 3879TIP3    H135832   0.570   2.265  27.645
 3879TIP3    H235833   0.653   2.147  27.519
 3880TIP3   OH235834   1.481   2.671  29.271
 3880TIP3    H135835   1.400   2.617  29.304
 3880TIP3    H235836   1.543   2.618  29.442
 3881TIP3   OH235837   0.426   3.237  27.093
 3881TIP3    H135838   0.515   3.250  27.216
 3881TIP3    H235839   0.450   3.178  26.871
 3882TIP3   OH235840   0.239   2.517  26.964
 3882TIP3    H135841   0.263   2.608  27.039
 3882TIP3    H235842   0.168   2.529  26.772
 3883TIP3   OH235843   1.594   3.617  29.910
 3883TIP3    H135844   1.606   3.690  29.718
 3883TIP3    H235845   1.682   3.607  30.024
 3884TIP3   OH235846   0.320   2.008  29.424
 3884TIP3    H135847   0.318   1.985  29.136
 3884TIP3    H235848   0.309   1.919  29.538
 3885TIP3   OH235849   0.209   3.329  28.209
 3885TIP3    H135850   0.140   3.381  28.332
 3885TIP3    H235851   0.256   3.399  28.062
 3886TIP3   OH235852   1.041   3.529  26.646
 3886TIP3    H135853   0.986   3.450  26.697
 3886TIP3    H235854   1.120   3.488  26.520
 3887TIP3   OH235855   1.494   3.444  26.694
 3887TIP3    H135856   1.496   3.362  26.856
 3887TIP3    H235857   1.577   3.437  26.541
 3888TIP3   OH235858   0.573   3.040  26.646
 3888TIP3    H135859   0.614   3.017  26.904
 3888TIP3    H235860   0.651   3.028  26.466
 3889TIP3   OH235861   1.132   3.182  26.574
 3889TIP3    H135862   1.098   3.170  26.847
 3889TIP3    H235863   1.132   3.088  26.481
 3890TIP3   OH235864   0.702   2.868  27.408
 3890TIP3    H135865   0.646   2.805  27.552
 3890TIP3    H235866   0.742   2.807  27.213
 3891TIP3   OH235867   0.814   2.694  26.814
 3891TIP3    H135868   0.820   2.726  26.538
 3891TIP3    H235869   0.909   2.693  26.886
 3892TIP3   OH235870   1.740   2.898  26.655
 3892TIP3    H135871   1.718   2.868  26.382
 3892TIP3    H235872   1.723   2.996  26.634
 3893TIP3   OH235873   0.796   3.728  27.297
 3893TIP3    H135874   0.893   3.742  27.285
 3893TIP3    H235875   0.764   3.795  27.111
 3894TIP3   OH235876   0.163   3.241  27.129
 3894TIP3    H135877   0.261   3.250  27.138
 3894TIP3    H235878   0.153   3.190  26.883
 3895TIP3   OH235879   0.092   3.725  28.521
 3895TIP3    H135880  -0.004   3.741  28.536
 3895TIP3    H235881   0.105   3.665  28.746
 3896TIP3   OH235882   0.145   3.543  29.136
 3896TIP3    H135883   0.148   3.457  29.280
 3896TIP3    H235884   0.193   3.598  29.334
 3897TIP3   OH235885   1.777   3.005  27.780
 3897TIP3    H135886   1.864   3.047  27.834
 3897TIP3    H235887   1.774   2.941  28.005
 3898TIP3   OH235888   1.801   2.836  28.434
 3898TIP3    H135889   1.729   2.791  28.581
 3898TIP3    H235890   1.878   2.820  28.611
 3899TIP3   OH235891   1.883   3.118  29.871
 3899TIP3    H135892   1.920   3.043  29.721
 3899TIP3    H235893   1.826   3.163  29.679
 3900TIP3   OH235894   1.867   2.784  27.303
 3900TIP3    H135895   1.810   2.807  27.075
 3900TIP3    H235896   1.843   2.856  27.489
 3901TIP3   OH235897   1.662   2.504  26.856
 3901TIP3    H135898   1.685   2.564  26.637
 3901TIP3    H235899   1.643   2.421  26.712
 3902TIP3   OH235900   1.611   2.643  28.584
 3902TIP3    H135901   1.580   2.558  28.479
 3902TIP3    H235902   1.571   2.645  28.857
 3903TIP3   OH235903   0.195   2.957  29.859
 3903TIP3    H135904   0.195   2.923  29.586
 3903TIP3    H235905   0.264   2.899  29.967
 3904TIP3   OH235906   1.618   2.244  26.580
 3904TIP3    H135907   1.655   2.208  26.829
 3904TIP3    H235908   1.525   2.218  26.589
 3905TIP3   OH235909   1.538   2.441  28.089
 3905TIP3    H135910   1.556   2.347  28.155
 3905TIP3    H235911   1.623   2.462  27.969
 3906TIP3   OH235912   1.633   2.503  29.655
 3906TIP3    H135913   1.730   2.493  29.691
 3906TIP3    H235914   1.607   2.412  29.733
 3907TIP3   OH235915   1.623   2.178  28.140
 3907TIP3    H135916   1.663   2.131  28.368
 3907TIP3    H235917   1.564   2.108  28.041
 3908TIP3   OH235918   0.163   2.230  29.703
 3908TIP3    H135919   0.202   2.140  29.694
 3908TIP3    H235920   0.239   2.283  29.805
 3909TIP3   OH235921   0.104   2.533  30.000
 3909TIP3    H135922   0.134   2.519  29.727
 3909TIP3    H235923   0.074   2.625  29.982
 3910TIP3   OH235924   1.819   2.153  27.147
 3910TIP3    H135925   1.853   2.096  26.931
 3910TIP3    H235926   1.890   2.219  27.171
 3911TIP3   OH235927   0.111   2.143  27.999
 3911TIP3    H135928   0.022   2.139  28.119
 3911TIP3    H235929   0.098   2.210  27.789
 3912TIP3   OH235930   1.507   3.660  28.677
 3912TIP3    H135931   1.585   3.633  28.521
 3912TIP3    H235932   1.546   3.716  28.881
 3913TIP3   OH235933   0.283   3.656  29.766
 3913TIP3    H135934   0.313   3.681  30.036
 3913TIP3    H235935   0.360   3.600  29.685
 3914TIP3   OH235936   0.450   3.491  29.340
 3914TIP3    H135937   0.425   3.397  29.361
 3914TIP3    H235938   0.541   3.494  29.445
 3915TIP3   OH235939   0.714   3.551  29.682
 3915TIP3    H135940   0.748   3.465  29.580
 3915TIP3    H235941   0.743   3.547  29.958
 3916TIP3   OH235942   1.044   2.160  29.403
 3916TIP3    H135943   0.979   2.095  29.508
 3916TIP3    H235944   1.108   2.099  29.286
 3917TIP3   OH235945   1.601   1.955  29.361
 3917TIP3    H135946   1.653   1.995  29.139
 3917TIP3    H235947   1.510   1.986  29.304
 3918TIP3   OH235948   1.754   2.039  28.755
 3918TIP3    H135949   1.823   1.984  28.623
 3918TIP3    H235950   1.806   2.121  28.812
 3919TIP3   OH235951   0.327   1.948  28.656
 3919TIP3    H135952   0.243   1.926  28.509
 3919TIP3    H235953   0.375   1.862  28.626
 3920TIP3   OH235954   0.225   1.949  27.555
 3920TIP3    H135955   0.218   1.991  27.294
 3920TIP3    H235956   0.184   2.018  27.729
 3921TIP3   OH235957   0.728   1.908  28.677
 3921TIP3    H135958   0.809   1.955  28.608
 3921TIP3    H235959   0.730   1.904  28.965
 3922TIP3   OH235960   1.348   1.986  29.085
 3922TIP3    H135961   1.316   2.002  28.818
 3922TIP3    H235962   1.305   1.902  29.160
 3923TIP3   OH235963   1.457   1.971  27.942
 3923TIP3    H135964   1.384   2.008  27.786
 3923TIP3    H235965   1.420   1.884  28.029
 3924TIP3   OH235966   0.196   3.582  27.780
 3924TIP3    H135967   0.099   3.587  27.768
 3924TIP3    H235968   0.213   3.675  27.696
 3925TIP3   OH235969   0.310   2.127  26.970
 3925TIP3    H135970   0.384   2.082  26.838
 3925TIP3    H235971   0.347   2.142  27.237
 3926TIP3   OH235972   0.871   2.171  27.666
 3926TIP3    H135973   0.896   2.113  27.891
 3926TIP3    H235974   0.886   2.258  27.795
 3927TIP3   OH235975   1.073   3.687  27.273
 3927TIP3    H135976   1.165   3.692  27.177
 3927TIP3    H235977   1.039   3.635  27.039
 3928TIP3   OH235978   1.702   3.590  28.137
 3928TIP3    H135979   1.678   3.513  27.972
 3928TIP3    H235980   1.699   3.663  27.939
 3929TIP3   OH235981   0.305   3.640  26.853
 3929TIP3    H135982   0.290   3.648  27.138
 3929TIP3    H235983   0.374   3.572  26.850
 3930TIP3   OH235984   3.099   2.904  28.650
 3930TIP3    H135985   3.099   3.000  28.704
 3930TIP3    H235986   3.017   2.894  28.506
 3931TIP3   OH235987   2.993   2.801  29.652
 3931TIP3    H135988   2.984   2.755  29.910
 3931TIP3    H235989   2.918   2.768  29.502
 3932TIP3   OH235990   3.286   3.096  29.106
 3932TIP3    H135991   3.269   3.019  29.283
 3932TIP3    H235992   3.328   3.158  29.298
 3933TIP3   OH235993   2.313   3.236  29.670
 3933TIP3    H135994   2.295   3.144  29.583
 3933TIP3    H235995   2.409   3.241  29.640
 3934TIP3   OH235996   1.997   2.539  28.404
 3934TIP3    H135997   1.961   2.625  28.473
 3934TIP3    H235998   1.917   2.494  28.308
 3935TIP3   OH235999   2.063   2.801  29.004
 3935TIP3    H136000   2.098   2.723  29.148
 3935TIP3    H236001   2.113   2.874  29.130
 3936TIP3   OH236002   3.046   3.652  29.256
 3936TIP3    H136003   3.112   3.599  29.103
 3936TIP3    H236004   3.022   3.583  29.442
 3937TIP3   OH236005   2.873   3.082  29.994
 3937TIP3    H136006   2.914   3.017  29.814
 3937TIP3    H236007   2.925   3.067  30.234
 3938TIP3   OH236008   3.137   2.497  29.973
 3938TIP3    H136009   3.157   2.402  30.000
 3938TIP3    H236010   3.122   2.506  29.685
 3939TIP3   OH236011   2.476   2.285  29.154
 3939TIP3    H136012   2.502   2.365  29.007
 3939TIP3    H236013   2.428   2.233  28.950
 3940TIP3   OH236014   3.185   2.321  28.617
 3940TIP3    H136015   3.240   2.285  28.839
 3940TIP3    H236016   3.247   2.387  28.518
 3941TIP3   OH236017   2.108   2.523  29.319
 3941TIP3    H136018   2.158   2.455  29.466
 3941TIP3    H236019   2.105   2.486  29.049
 3942TIP3   OH236020   2.603   2.681  29.133
 3942TIP3    H136021   2.674   2.629  29.259
 3942TIP3    H236022   2.557   2.613  28.971
 3943TIP3   OH236023   3.022   3.144  28.302
 3943TIP3    H136024   2.996   3.135  28.020
 3943TIP3    H236025   3.008   3.240  28.350
 3944TIP3   OH236026   3.367   2.270  29.160
 3944TIP3    H136027   3.313   2.247  29.394
 3944TIP3    H236028   3.456   2.243  29.250
 3945TIP3   OH236029   2.311   2.385  29.727
 3945TIP3    H136030   2.330   2.479  29.688
 3945TIP3    H236031   2.356   2.344  29.496
 3946TIP3   OH236032   2.035   3.102  27.846
 3946TIP3    H136033   2.027   3.158  27.606
 3946TIP3    H236034   2.050   3.168  28.056
 3947TIP3   OH236035   3.397   3.256  29.670
 3947TIP3    H136036   3.363   3.200  29.886
 3947TIP3    H236037   3.444   3.323  29.823
 3948TIP3   OH236038   2.725   1.955  29.469
 3948TIP3    H136039   2.736   1.860  29.511
 3948TIP3    H236040   2.636   1.975  29.583
 3949TIP3   OH236041   3.214   3.486  28.905
 3949TIP3    H136042   3.234   3.406  28.752
 3949TIP3    H236043   3.295   3.540  28.854
 3950TIP3   OH236044   3.374   3.259  28.374
 3950TIP3    H136045   3.339   3.196  28.173
 3950TIP3    H236046   3.357   3.206  28.617
 3951TIP3   OH236047   2.943   2.811  27.876
 3951TIP3    H136048   2.902   2.900  27.852
 3951TIP3    H236049   3.031   2.825  27.753
 3952TIP3   OH236050   2.998   2.717  26.940
 3952TIP3    H136051   3.055   2.750  27.156
 3952TIP3    H236052   3.009   2.621  26.970
 3953TIP3   OH236053   3.344   2.830  28.203
 3953TIP3    H136054   3.268   2.855  28.377
 3953TIP3    H236055   3.402   2.782  28.395
 3954TIP3   OH236056   2.472   2.884  28.746
 3954TIP3    H136057   2.436   2.833  28.524
 3954TIP3    H236058   2.534   2.820  28.866
 3955TIP3   OH236059   2.601   3.254  29.574
 3955TIP3    H136060   2.589   3.227  29.295
 3955TIP3    H236061   2.667   3.191  29.667
 3956TIP3   OH236062   2.443   2.700  29.781
 3956TIP3    H136063   2.508   2.705  29.565
 3956TIP3    H236064   2.458   2.784  29.916
 3957TIP3   OH236065   3.187   2.797  27.525
 3957TIP3    H136066   3.249   2.816  27.747
 3957TIP3    H236067   3.238   2.833  27.294
 3958TIP3   OH236068   2.972   3.404  28.428
 3958TIP3    H136069   2.977   3.421  28.713
 3958TIP3    H236070   2.927   3.484  28.332
 3959TIP3   OH236071   3.582   1.912  27.579
 3959TIP3    H136072   3.487   1.926  27.639
 3959TIP3    H236073   3.616   2.001  27.507
 3960TIP3   OH236074   2.333   2.777  27.993
 3960TIP3    H136075   2.359   2.868  27.912
 3960TIP3    H236076   2.237   2.789  27.981
 3961TIP3   OH236077   3.717   3.363  26.925
 3961TIP3    H136078   3.715   3.450  27.060
 3961TIP3    H236079   3.795   3.327  27.069
 3962TIP3   OH236080   1.955   3.363  29.553
 3962TIP3    H136081   2.035   3.315  29.625
 3962TIP3    H236082   1.921   3.392  29.811
 3963TIP3   OH236083   2.930   3.689  28.080
 3963TIP3    H136084   2.935   3.703  27.789
 3963TIP3    H236085   2.912   3.782  28.173
 3964TIP3   OH236086   2.283   3.588  28.575
 3964TIP3    H136087   2.301   3.571  28.860
 3964TIP3    H236088   2.196   3.544  28.539
 3965TIP3   OH236089   3.240   3.636  27.135
 3965TIP3    H136090   3.281   3.555  27.021
 3965TIP3    H236091   3.238   3.616  27.420
 3966TIP3   OH236092   3.192   3.625  27.945
 3966TIP3    H136093   3.098   3.644  28.002
 3966TIP3    H236094   3.209   3.554  28.134
 3967TIP3   OH236095   2.462   2.047  29.715
 3967TIP3    H136096   2.386   2.052  29.529
 3967TIP3    H236097   2.457   2.134  29.835
 3968TIP3   OH236098   3.333   2.899  26.946
 3968TIP3    H136099   3.314   2.903  26.658
 3968TIP3    H236100   3.430   2.906  26.940
 3969TIP3   OH236101   2.911   2.248  27.003
 3969TIP3    H136102   2.860   2.242  27.249
 3969TIP3    H236103   2.854   2.192  26.838
 3970TIP3   OH236104   2.487   2.497  28.677
 3970TIP3    H136105   2.397   2.454  28.674
 3970TIP3    H236106   2.522   2.480  28.404
 3971TIP3   OH236107   3.042   2.603  28.230
 3971TIP3    H136108   3.000   2.676  28.074
 3971TIP3    H236109   3.101   2.568  28.020
 3972TIP3   OH236110   3.091   2.551  29.130
 3972TIP3    H136111   3.081   2.625  28.941
 3972TIP3    H236112   3.117   2.480  28.947
 3973TIP3   OH236113   2.551   2.291  26.778
 3973TIP3    H136114   2.500   2.228  26.946
 3973TIP3    H236115   2.482   2.330  26.610
 3974TIP3   OH236116   1.895   2.260  28.905
 3974TIP3    H136117   1.964   2.262  29.109
 3974TIP3    H236118   1.942   2.239  28.662
 3975TIP3   OH236119   2.021   2.323  27.453
 3975TIP3    H136120   2.077   2.364  27.249
 3975TIP3    H236121   1.951   2.392  27.480
 3976TIP3   OH236122   2.765   2.293  28.860
 3976TIP3    H136123   2.687   2.281  29.031
 3976TIP3    H236124   2.832   2.247  29.025
 3977TIP3   OH236125   2.233   2.416  28.545
 3977TIP3    H136126   2.145   2.448  28.455
 3977TIP3    H236127   2.227   2.318  28.512
 3978TIP3   OH236128   2.585   2.459  27.960
 3978TIP3    H136129   2.675   2.435  28.071
 3978TIP3    H236130   2.613   2.483  27.693
 3979TIP3   OH236131   3.185   2.234  29.754
 3979TIP3    H136132   3.177   2.206  30.033
 3979TIP3    H236133   3.092   2.231  29.670
 3980TIP3   OH236134   2.440   2.571  27.204
 3980TIP3    H136135   2.408   2.516  26.982
 3980TIP3    H236136   2.516   2.608  27.063
 3981TIP3   OH236137   2.846   2.540  29.544
 3981TIP3    H136138   2.908   2.549  29.322
 3981TIP3    H236139   2.898   2.487  29.730
 3982TIP3   OH236140   2.310   2.162  28.467
 3982TIP3    H136141   2.250   2.093  28.581
 3982TIP3    H236142   2.359   2.104  28.287
 3983TIP3   OH236143   2.792   3.028  27.777
 3983TIP3    H136144   2.714   2.990  27.636
 3983TIP3    H236145   2.748   3.059  28.026
 3984TIP3   OH236146   3.152   2.289  27.297
 3984TIP3    H136147   3.065   2.297  27.159
 3984TIP3    H236148   3.183   2.382  27.309
 3985TIP3   OH236149   3.221   2.526  27.585
 3985TIP3    H136150   3.288   2.494  27.774
 3985TIP3    H236151   3.253   2.616  27.534
 3986TIP3   OH236152   2.262   2.974  29.439
 3986TIP3    H136153   2.303   2.969  29.175
 3986TIP3    H236154   2.335   2.952  29.622
 3987TIP3   OH236155   2.975   3.179  27.441
 3987TIP3    H136156   2.927   3.264  27.483
 3987TIP3    H236157   2.908   3.112  27.516
 3988TIP3   OH236158   3.704   2.497  27.588
 3988TIP3    H136159   3.652   2.495  27.339
 3988TIP3    H236160   3.738   2.589  27.591
 3989TIP3   OH236161   3.545   3.351  27.672
 3989TIP3    H136162   3.488   3.342  27.909
 3989TIP3    H236163   3.568   3.259  27.633
 3990TIP3   OH236164   3.256   2.882  29.676
 3990TIP3    H136165   3.164   2.849  29.652
 3990TIP3    H236166   3.307   2.818  29.514
 3991TIP3   OH236167   2.500   3.323  28.773
 3991TIP3    H136168   2.550   3.407  28.755
 3991TIP3    H236169   2.436   3.338  28.560
 3992TIP3   OH236170   2.153   2.811  27.102
 3992TIP3    H136171   2.192   2.886  27.252
 3992TIP3    H236172   2.056   2.823  27.135
 3993TIP3   OH236173   2.656   3.104  28.440
 3993TIP3    H136174   2.600   3.174  28.551
 3993TIP3    H236175   2.637   3.030  28.617
 3994TIP3   OH236176   2.542   3.553  28.320
 3994TIP3    H136177   2.448   3.568  28.392
 3994TIP3    H236178   2.579   3.638  28.416
 3995TIP3   OH236179   3.315   3.203  27.108
 3995TIP3    H136180   3.314   3.155  27.366
 3995TIP3    H236181   3.221   3.189  27.036
 3996TIP3   OH236182   3.741   3.625  27.216
 3996TIP3    H136183   3.794   3.688  27.063
 3996TIP3    H236184   3.670   3.685  27.312
 3997TIP3   OH236185   3.393   3.063  27.774
 3997TIP3    H136186   3.371   2.979  27.909
 3997TIP3    H236187   3.490   3.057  27.762
 3998TIP3   OH236188   2.710   3.333  26.667
 3998TIP3    H136189   2.710   3.278  26.427
 3998TIP3    H236190   2.655   3.280  26.850
 3999TIP3   OH236191   2.584   3.257  27.375
 3999TIP3    H136192   2.659   3.229  27.540
 3999TIP3    H236193   2.590   3.354  27.435
 4000TIP3   OH236194   2.266   3.007  27.507
 4000TIP3    H136195   2.180   3.030  27.633
 4000TIP3    H236196   2.299   3.094  27.414
 4001TIP3   OH236197   3.145   2.146  27.978
 4001TIP3    H136198   3.128   2.207  27.753
 4001TIP3    H236199   3.164   2.206  28.200
 4002TIP3   OH236200   2.870   3.427  27.534
 4002TIP3    H136201   2.783   3.470  27.576
 4002TIP3    H236202   2.927   3.505  27.519
 4003TIP3   OH236203   2.834   2.390  28.149
 4003TIP3    H136204   2.896   2.466  28.179
 4003TIP3    H236205   2.817   2.360  28.425
 4004TIP3   OH236206   2.903   2.073  28.290
 4004TIP3    H136207   2.870   2.134  28.491
 4004TIP3    H236208   2.986   2.118  28.197
 4005TIP3   OH236209   2.608   3.509  27.522
 4005TIP3    H136210   2.625   3.593  27.372
 4005TIP3    H236211   2.570   3.548  27.765
 4006TIP3   OH236212   2.439   2.165  27.444
 4006TIP3    H136213   2.470   2.236  27.618
 4006TIP3    H236214   2.521   2.111  27.423
 4007TIP3   OH236215   3.358   2.671  29.280
 4007TIP3    H136216   3.284   2.612  29.340
 4007TIP3    H236217   3.427   2.632  29.457
 4008TIP3   OH236218   2.322   3.263  27.138
 4008TIP3    H136219   2.304   3.340  27.303
 4008TIP3    H236220   2.418   3.250  27.213
 4009TIP3   OH236221   2.132   2.519  26.943
 4009TIP3    H136222   2.169   2.608  26.985
 4009TIP3    H236223   2.055   2.536  26.775
 4010TIP3   OH236224   3.477   3.607  29.874
 4010TIP3    H136225   3.492   3.694  29.745
 4010TIP3    H236226   3.561   3.594  30.015
 4011TIP3   OH236227   2.222   2.022  29.364
 4011TIP3    H136228   2.206   1.983  29.097
 4011TIP3    H236229   2.221   1.942  29.532
 4012TIP3   OH236230   2.095   3.375  28.362
 4012TIP3    H136231   2.016   3.426  28.443
 4012TIP3    H236232   2.111   3.417  28.104
 4013TIP3   OH236233   2.918   3.526  26.640
 4013TIP3    H136234   2.867   3.444  26.706
 4013TIP3    H236235   2.995   3.489  26.493
 4014TIP3   OH236236   3.364   3.443  26.676
 4014TIP3    H136237   3.378   3.373  26.880
 4014TIP3    H236238   3.450   3.452  26.550
 4015TIP3   OH236239   2.460   3.061  26.616
 4015TIP3    H136240   2.485   3.032  26.883
 4015TIP3    H236241   2.543   3.038  26.469
 4016TIP3   OH236242   3.007   3.190  26.568
 4016TIP3    H136243   2.984   3.180  26.850
 4016TIP3    H236244   3.011   3.094  26.493
 4017TIP3   OH236245   2.580   2.878  27.420
 4017TIP3    H136246   2.520   2.814  27.549
 4017TIP3    H236247   2.626   2.818  27.231
 4018TIP3   OH236248   2.681   2.702  26.838
 4018TIP3    H136249   2.662   2.726  26.559
 4018TIP3    H236250   2.779   2.696  26.838
 4019TIP3   OH236251   3.609   2.907  26.643
 4019TIP3    H136252   3.595   2.876  26.367
 4019TIP3    H236253   3.592   3.004  26.625
 4020TIP3   OH236254   2.678   3.745  27.297
 4020TIP3    H136255   2.775   3.742  27.282
 4020TIP3    H236256   2.657   3.815  27.102
 4021TIP3   OH236257   2.012   3.195  27.102
 4021TIP3    H136258   2.098   3.179  26.979
 4021TIP3    H236259   1.953   3.149  26.907
 4022TIP3   OH236260   1.922   3.711  28.422
 4022TIP3    H136261   1.837   3.668  28.359
 4022TIP3    H236262   1.943   3.665  28.677
 4023TIP3   OH236263   2.002   3.556  29.031
 4023TIP3    H136264   1.970   3.474  29.166
 4023TIP3    H236265   2.047   3.602  29.253
 4024TIP3   OH236266   3.666   3.005  27.765
 4024TIP3    H136267   3.754   3.046  27.813
 4024TIP3    H236268   3.662   2.943  27.996
 4025TIP3   OH236269   3.690   2.832  28.410
 4025TIP3    H136270   3.622   2.780  28.551
 4025TIP3    H236271   3.761   2.839  28.608
 4026TIP3   OH236272   3.733   3.108  29.838
 4026TIP3    H136273   3.805   3.052  29.727
 4026TIP3    H236274   3.713   3.176  29.640
 4027TIP3   OH236275   3.753   2.798  27.282
 4027TIP3    H136276   3.681   2.811  27.087
 4027TIP3    H236277   3.726   2.864  27.486
 4028TIP3   OH236278   3.564   2.518  26.814
 4028TIP3    H136279   3.587   2.578  26.595
 4028TIP3    H236280   3.540   2.435  26.673
 4029TIP3   OH236281   3.501   2.653  28.614
 4029TIP3    H136282   3.471   2.568  28.494
 4029TIP3    H236283   3.455   2.651  28.875
 4030TIP3   OH236284   1.969   2.864  29.724
 4030TIP3    H136285   2.001   2.836  29.460
 4030TIP3    H236286   2.046   2.844  29.892
 4031TIP3   OH236287   3.508   2.251  26.583
 4031TIP3    H136288   3.546   2.214  26.829
 4031TIP3    H236289   3.417   2.217  26.574
 4032TIP3   OH236290   3.422   2.446  28.122
 4032TIP3    H136291   3.436   2.350  28.173
 4032TIP3    H236292   3.506   2.465  27.990
 4033TIP3   OH236293   3.518   2.505  29.685
 4033TIP3    H136294   3.616   2.495  29.661
 4033TIP3    H236295   3.495   2.413  29.757
 4034TIP3   OH236296   3.503   2.176  28.155
 4034TIP3    H136297   3.543   2.133  28.389
 4034TIP3    H236298   3.457   2.100  28.038
 4035TIP3   OH236299   2.066   2.237  29.613
 4035TIP3    H136300   2.110   2.153  29.532
 4035TIP3    H236301   2.132   2.270  29.805
 4036TIP3   OH236302   1.897   2.503  29.904
 4036TIP3    H136303   1.945   2.461  29.685
 4036TIP3    H236304   1.931   2.594  29.898
 4037TIP3   OH236305   3.704   2.139  27.162
 4037TIP3    H136306   3.736   2.088  26.931
 4037TIP3    H236307   3.786   2.182  27.255
 4038TIP3   OH236308   1.912   2.144  27.984
 4038TIP3    H136309   1.820   2.176  27.993
 4038TIP3    H236310   1.947   2.197  27.765
 4039TIP3   OH236311   3.402   3.663  28.698
 4039TIP3    H136312   3.480   3.637  28.542
 4039TIP3    H236313   3.438   3.718  28.914
 4040TIP3   OH236314   2.146   3.652  29.664
 4040TIP3    H136315   2.170   3.661  29.949
 4040TIP3    H236316   2.225   3.603  29.565
 4041TIP3   OH236317   2.340   3.516  29.319
 4041TIP3    H136318   2.330   3.420  29.346
 4041TIP3    H236319   2.425   3.531  29.460
 4042TIP3   OH236320   2.578   3.544  29.661
 4042TIP3    H136321   2.614   3.455  29.601
 4042TIP3    H236322   2.584   3.547  29.949
 4043TIP3   OH236323   2.942   2.150  29.358
 4043TIP3    H136324   2.880   2.080  29.448
 4043TIP3    H236325   3.024   2.097  29.364
 4044TIP3   OH236326   3.484   1.949  29.355
 4044TIP3    H136327   3.535   1.996  29.142
 4044TIP3    H236328   3.392   1.979  29.301
 4045TIP3   OH236329   3.644   2.040  28.752
 4045TIP3    H136330   3.713   1.988  28.611
 4045TIP3    H236331   3.695   2.123  28.812
 4046TIP3   OH236332   2.175   1.938  28.614
 4046TIP3    H136333   2.092   1.915  28.470
 4046TIP3    H236334   2.221   1.851  28.605
 4047TIP3   OH236335   2.066   1.947  27.450
 4047TIP3    H136336   2.092   2.013  27.252
 4047TIP3    H236337   2.009   2.001  27.627
 4048TIP3   OH236338   2.617   1.911  28.683
 4048TIP3    H136339   2.696   1.944  28.554
 4048TIP3    H236340   2.642   1.911  28.965
 4049TIP3   OH236341   3.229   1.981  29.103
 4049TIP3    H136342   3.196   2.003  28.839
 4049TIP3    H236343   3.189   1.893  29.154
 4050TIP3   OH236344   3.350   1.956  27.939
 4050TIP3    H136345   3.269   2.011  27.924
 4050TIP3    H236346   3.312   1.872  28.032
 4051TIP3   OH236347   2.064   3.540  27.726
 4051TIP3    H136348   1.967   3.550  27.702
 4051TIP3    H236349   2.088   3.627  27.615
 4052TIP3   OH236350   2.193   2.152  26.934
 4052TIP3    H136351   2.245   2.091  26.766
 4052TIP3    H236352   2.244   2.145  27.180
 4053TIP3   OH236353   2.741   2.194  27.624
 4053TIP3    H136354   2.776   2.119  27.774
 4053TIP3    H236355   2.773   2.268  27.786
 4054TIP3   OH236356   2.963   3.683  27.270
 4054TIP3    H136357   3.056   3.693  27.180
 4054TIP3    H236358   2.931   3.630  27.039
 4055TIP3   OH236359   3.579   3.581  28.113
 4055TIP3    H136360   3.572   3.509  27.912
 4055TIP3    H236361   3.578   3.660  27.939
 4056TIP3   OH236362   2.172   3.596  26.799
 4056TIP3    H136363   2.159   3.652  27.033
 4056TIP3    H236364   2.261   3.559  26.847
 4057TIP3   OH236365   5.004   2.908  28.596
 4057TIP3    H136366   4.978   3.002  28.536
 4057TIP3    H236367   4.918   2.873  28.686
 4058TIP3   OH236368   4.853   2.854  29.964
 4058TIP3    H136369   4.848   2.765  30.081
 4058TIP3    H236370   4.804   2.842  29.712
 4059TIP3   OH236371   5.183   3.093  29.148
 4059TIP3    H136372   5.144   3.022  29.307
 4059TIP3    H236373   5.221   3.152  29.355
 4060TIP3   OH236374   4.196   3.237  29.706
 4060TIP3    H136375   4.176   3.145  29.637
 4060TIP3    H236376   4.292   3.241  29.658
 4061TIP3   OH236377   3.872   2.542  28.386
 4061TIP3    H136378   3.847   2.630  28.482
 4061TIP3    H236379   3.785   2.507  28.308
 4062TIP3   OH236380   3.936   2.797  29.004
 4062TIP3    H136381   3.985   2.726  29.145
 4062TIP3    H236382   3.997   2.873  29.025
 4063TIP3   OH236383   4.922   3.648  29.382
 4063TIP3    H136384   4.980   3.600  29.196
 4063TIP3    H236385   4.898   3.569  29.538
 4064TIP3   OH236386   4.736   3.114  29.928
 4064TIP3    H136387   4.734   3.069  29.670
 4064TIP3    H236388   4.798   3.054  30.066
 4065TIP3   OH236389   5.057   2.504  29.922
 4065TIP3    H136390   5.051   2.407  29.931
 4065TIP3    H236391   5.034   2.521  29.640
 4066TIP3   OH236392   4.357   2.286  29.118
 4066TIP3    H136393   4.378   2.365  28.953
 4066TIP3    H236394   4.311   2.230  28.920
 4067TIP3   OH236395   5.069   2.332  28.617
 4067TIP3    H136396   5.112   2.280  28.836
 4067TIP3    H236397   5.142   2.392  28.560
 4068TIP3   OH236398   3.993   2.523  29.289
 4068TIP3    H136399   4.051   2.457  29.409
 4068TIP3    H236400   4.000   2.496  29.007
 4069TIP3   OH236401   4.418   2.707  29.142
 4069TIP3    H136402   4.513   2.730  29.169
 4069TIP3    H236403   4.422   2.626  28.974
 4070TIP3   OH236404   4.910   3.145  28.365
 4070TIP3    H136405   4.907   3.136  28.071
 4070TIP3    H236406   4.899   3.242  28.395
 4071TIP3   OH236407   5.241   2.266  29.169
 4071TIP3    H136408   5.181   2.255  29.403
 4071TIP3    H236409   5.327   2.247  29.286
 4072TIP3   OH236410   4.189   2.389  29.682
 4072TIP3    H136411   4.214   2.482  29.658
 4072TIP3    H236412   4.237   2.348  29.457
 4073TIP3   OH236413   3.922   3.103  27.792
 4073TIP3    H136414   3.918   3.158  27.549
 4073TIP3    H236415   3.925   3.171  28.002
 4074TIP3   OH236416   5.301   3.247  29.685
 4074TIP3    H136417   5.259   3.198  29.910
 4074TIP3    H236418   5.340   3.321  29.826
 4075TIP3   OH236419   4.600   1.941  29.496
 4075TIP3    H136420   4.606   1.844  29.508
 4075TIP3    H236421   4.508   1.959  29.589
 4076TIP3   OH236422   5.072   3.507  28.884
 4076TIP3    H136423   5.112   3.418  28.851
 4076TIP3    H236424   5.150   3.561  28.800
 4077TIP3   OH236425   5.235   3.288  28.557
 4077TIP3    H136426   5.217   3.228  28.332
 4077TIP3    H236427   5.223   3.225  28.779
 4078TIP3   OH236428   4.823   2.793  27.804
 4078TIP3    H136429   4.790   2.883  27.867
 4078TIP3    H236430   4.907   2.814  27.663
 4079TIP3   OH236431   4.907   2.646  26.913
 4079TIP3    H136432   4.946   2.695  27.135
 4079TIP3    H236433   4.938   2.556  26.964
 4080TIP3   OH236434   5.216   2.792  28.200
 4080TIP3    H136435   5.144   2.831  28.371
 4080TIP3    H236436   5.288   2.781  28.392
 4081TIP3   OH236437   4.328   2.911  28.767
 4081TIP3    H136438   4.316   2.862  28.518
 4081TIP3    H236439   4.366   2.840  28.938
 4082TIP3   OH236440   4.476   3.252  29.574
 4082TIP3    H136441   4.467   3.217  29.301
 4082TIP3    H236442   4.555   3.204  29.667
 4083TIP3   OH236443   4.302   2.744  29.862
 4083TIP3    H136444   4.337   2.739  29.586
 4083TIP3    H236445   4.380   2.774  30.006
 4084TIP3   OH236446   5.081   2.775  27.492
 4084TIP3    H136447   5.142   2.781  27.726
 4084TIP3    H236448   5.134   2.821  27.282
 4085TIP3   OH236449   4.858   3.410  28.407
 4085TIP3    H136450   4.910   3.447  28.629
 4085TIP3    H236451   4.800   3.484  28.335
 4086TIP3   OH236452   5.467   1.903  27.603
 4086TIP3    H136453   5.375   1.917  27.699
 4086TIP3    H236454   5.497   1.994  27.540
 4087TIP3   OH236455   4.229   2.772  28.059
 4087TIP3    H136456   4.207   2.857  27.924
 4087TIP3    H236457   4.169   2.711  27.930
 4088TIP3   OH236458   5.563   3.340  27.063
 4088TIP3    H136459   5.593   3.433  27.099
 4088TIP3    H236460   5.650   3.295  27.078
 4089TIP3   OH236461   3.856   3.360  29.589
 4089TIP3    H136462   3.929   3.312  29.718
 4089TIP3    H236463   3.807   3.396  29.817
 4090TIP3   OH236464   4.810   3.687  28.083
 4090TIP3    H136465   4.814   3.692  27.789
 4090TIP3    H236466   4.793   3.782  28.149
 4091TIP3   OH236467   4.156   3.577  28.578
 4091TIP3    H136468   4.175   3.559  28.860
 4091TIP3    H236469   4.068   3.534  28.551
 4092TIP3   OH236470   5.103   3.622  27.123
 4092TIP3    H136471   5.164   3.550  27.036
 4092TIP3    H236472   5.104   3.612  27.417
 4093TIP3   OH236473   5.069   3.622  27.930
 4093TIP3    H136474   4.975   3.643  27.990
 4093TIP3    H236475   5.086   3.554  28.131
 4094TIP3   OH236476   4.341   2.038  29.739
 4094TIP3    H136477   4.259   2.050  29.577
 4094TIP3    H236478   4.362   2.130  29.814
 4095TIP3   OH236479   5.241   2.900  26.982
 4095TIP3    H136480   5.226   2.908  26.691
 4095TIP3    H236481   5.338   2.905  26.988
 4096TIP3   OH236482   4.793   2.254  26.979
 4096TIP3    H136483   4.756   2.252  27.246
 4096TIP3    H236484   4.751   2.171  26.880
 4097TIP3   OH236485   4.356   2.499  28.668
 4097TIP3    H136486   4.262   2.480  28.617
 4097TIP3    H236487   4.395   2.498  28.398
 4098TIP3   OH236488   4.926   2.596  28.221
 4098TIP3    H136489   4.885   2.671  28.071
 4098TIP3    H236490   4.984   2.560  28.017
 4099TIP3   OH236491   5.003   2.557  29.115
 4099TIP3    H136492   4.965   2.625  28.938
 4099TIP3    H236493   5.014   2.484  28.926
 4100TIP3   OH236494   4.424   2.253  26.664
 4100TIP3    H136495   4.386   2.232  26.931
 4100TIP3    H236496   4.367   2.325  26.568
 4101TIP3   OH236497   3.782   2.264  28.911
 4101TIP3    H136498   3.846   2.267  29.133
 4101TIP3    H236499   3.836   2.294  28.689
 4102TIP3   OH236500   3.900   2.317  27.432
 4102TIP3    H136501   3.953   2.357  27.222
 4102TIP3    H236502   3.832   2.387  27.465
 4103TIP3   OH236503   4.665   2.249  28.773
 4103TIP3    H136504   4.586   2.262  28.938
 4103TIP3    H236505   4.734   2.228  28.971
 4104TIP3   OH236506   4.077   2.398  28.647
 4104TIP3    H136507   4.014   2.437  28.452
 4104TIP3    H236508   4.106   2.315  28.512
 4105TIP3   OH236509   4.463   2.454  27.948
 4105TIP3    H136510   4.560   2.467  27.969
 4105TIP3    H236511   4.435   2.520  27.753
 4106TIP3   OH236512   5.069   2.244  29.772
 4106TIP3    H136513   5.063   2.217  30.054
 4106TIP3    H236514   4.981   2.220  29.676
 4107TIP3   OH236515   4.287   2.577  27.072
 4107TIP3    H136516   4.283   2.539  26.802
 4107TIP3    H236517   4.385   2.573  27.099
 4108TIP3   OH236518   4.709   2.508  29.592
 4108TIP3    H136519   4.740   2.581  29.418
 4108TIP3    H236520   4.791   2.467  29.685
 4109TIP3   OH236521   4.187   2.180  28.413
 4109TIP3    H136522   4.136   2.107  28.542
 4109TIP3    H236523   4.241   2.131  28.227
 4110TIP3   OH236524   4.669   3.014  27.783
 4110TIP3    H136525   4.595   2.969  27.648
 4110TIP3    H236526   4.622   3.053  28.020
 4111TIP3   OH236527   5.042   2.280  27.261
 4111TIP3    H136528   4.960   2.293  27.108
 4111TIP3    H236529   5.065   2.374  27.321
 4112TIP3   OH236530   5.104   2.509  27.576
 4112TIP3    H136531   5.169   2.484  27.780
 4112TIP3    H236532   5.136   2.599  27.516
 4113TIP3   OH236533   4.161   2.974  29.400
 4113TIP3    H136534   4.216   2.973  29.154
 4113TIP3    H236535   4.228   2.949  29.601
 4114TIP3   OH236536   4.869   3.166  27.570
 4114TIP3    H136537   4.820   3.252  27.612
 4114TIP3    H236538   4.796   3.101  27.594
 4115TIP3   OH236539   5.577   2.495  27.609
 4115TIP3    H136540   5.535   2.487  27.342
 4115TIP3    H236541   5.610   2.587  27.597
 4116TIP3   OH236542   5.409   3.391  27.711
 4116TIP3    H136543   5.393   3.320  27.900
 4116TIP3    H236544   5.451   3.345  27.483
 4117TIP3   OH236545   5.147   2.861  29.694
 4117TIP3    H136546   5.051   2.844  29.718
 4117TIP3    H236547   5.171   2.807  29.460
 4118TIP3   OH236548   4.380   3.305  28.788
 4118TIP3    H136549   4.434   3.386  28.785
 4118TIP3    H236550   4.316   3.326  28.581
 4119TIP3   OH236551   4.039   2.838  27.075
 4119TIP3    H136552   4.080   2.863  27.330
 4119TIP3    H236553   3.946   2.824  27.147
 4120TIP3   OH236554   4.541   3.106  28.416
 4120TIP3    H136555   4.480   3.160  28.575
 4120TIP3    H236556   4.572   3.040  28.605
 4121TIP3   OH236557   4.422   3.558  28.344
 4121TIP3    H136558   4.325   3.561  28.392
 4121TIP3    H236559   4.450   3.643  28.464
 4122TIP3   OH236560   5.196   3.199  27.108
 4122TIP3    H136561   5.212   3.166  27.381
 4122TIP3    H236562   5.102   3.176  27.078
 4123TIP3   OH236563   5.618   3.613  27.192
 4123TIP3    H136564   5.656   3.676  27.009
 4123TIP3    H236565   5.543   3.663  27.312
 4124TIP3   OH236566   5.271   3.059  27.801
 4124TIP3    H136567   5.244   2.969  27.870
 4124TIP3    H236568   5.368   3.047  27.750
 4125TIP3   OH236569   4.586   3.355  26.655
 4125TIP3    H136570   4.594   3.283  26.457
 4125TIP3    H236571   4.529   3.311  26.850
 4126TIP3   OH236572   4.458   3.248  27.378
 4126TIP3    H136573   4.534   3.204  27.504
 4126TIP3    H236574   4.470   3.340  27.474
 4127TIP3   OH236575   4.170   2.995  27.600
 4127TIP3    H136576   4.086   3.025  27.717
 4127TIP3    H236577   4.196   3.075  27.447
 4128TIP3   OH236578   4.992   2.177  28.002
 4128TIP3    H136579   5.018   2.212  27.741
 4128TIP3    H236580   5.026   2.245  28.185
 4129TIP3   OH236581   4.748   3.405  27.597
 4129TIP3    H136582   4.672   3.456  27.702
 4129TIP3    H236583   4.810   3.473  27.513
 4130TIP3   OH236584   4.738   2.395  28.122
 4130TIP3    H136585   4.794   2.472  28.191
 4130TIP3    H236586   4.728   2.349  28.380
 4131TIP3   OH236587   4.776   2.061  28.335
 4131TIP3    H136588   4.736   2.125  28.524
 4131TIP3    H236589   4.853   2.114  28.233
 4132TIP3   OH236590   4.489   3.502  27.558
 4132TIP3    H136591   4.500   3.578  27.372
 4132TIP3    H236592   4.448   3.548  27.786
 4133TIP3   OH236593   4.351   2.193  27.432
 4133TIP3    H136594   4.354   2.265  27.627
 4133TIP3    H236595   4.435   2.147  27.486
 4134TIP3   OH236596   5.269   2.672  29.229
 4134TIP3    H136597   5.186   2.626  29.295
 4134TIP3    H236598   5.331   2.627  29.421
 4135TIP3   OH236599   4.185   3.222  27.105
 4135TIP3    H136600   4.257   3.270  27.243
 4135TIP3    H236601   4.241   3.161  26.940
 4136TIP3   OH236602   3.992   2.525  26.895
 4136TIP3    H136603   4.061   2.584  27.003
 4136TIP3    H236604   3.927   2.587  26.784
 4137TIP3   OH236605   5.375   3.604  29.880
 4137TIP3    H136606   5.384   3.679  29.694
 4137TIP3    H236607   5.457   3.605  30.027
 4138TIP3   OH236608   4.105   2.017  29.403
 4138TIP3    H136609   4.089   1.981  29.130
 4138TIP3    H236610   4.095   1.933  29.556
 4139TIP3   OH236611   3.967   3.365  28.362
 4139TIP3    H136612   3.891   3.421  28.419
 4139TIP3    H236613   4.002   3.411  28.128
 4140TIP3   OH236614   4.801   3.532  26.652
 4140TIP3    H136615   4.740   3.456  26.694
 4140TIP3    H236616   4.880   3.488  26.544
 4141TIP3   OH236617   5.245   3.443  26.676
 4141TIP3    H136618   5.253   3.358  26.823
 4141TIP3    H236619   5.327   3.444  26.517
 4142TIP3   OH236620   4.362   3.059  26.694
 4142TIP3    H136621   4.404   3.012  26.916
 4142TIP3    H236622   4.441   3.079  26.529
 4143TIP3   OH236623   4.886   3.212  26.580
 4143TIP3    H136624   4.853   3.187  26.844
 4143TIP3    H236625   4.896   3.122  26.472
 4144TIP3   OH236626   4.476   2.876  27.396
 4144TIP3    H136627   4.398   2.824  27.468
 4144TIP3    H236628   4.532   2.812  27.252
 4145TIP3   OH236629   4.544   2.579  26.946
 4145TIP3    H136630   4.530   2.643  26.724
 4145TIP3    H236631   4.641   2.577  26.949
 4146TIP3   OH236632   5.502   2.905  26.658
 4146TIP3    H136633   5.494   2.871  26.385
 4146TIP3    H236634   5.498   3.003  26.607
 4147TIP3   OH236635   4.548   3.736  27.219
 4147TIP3    H136636   4.642   3.735  27.285
 4147TIP3    H236637   4.549   3.805  27.009
 4148TIP3   OH236638   3.920   3.200  27.024
 4148TIP3    H136639   4.018   3.213  27.057
 4148TIP3    H236640   3.922   3.120  26.859
 4149TIP3   OH236641   3.794   3.704  28.407
 4149TIP3    H136642   3.709   3.657  28.362
 4149TIP3    H236643   3.821   3.664  28.665
 4150TIP3   OH236644   3.875   3.552  29.037
 4150TIP3    H136645   3.853   3.468  29.178
 4150TIP3    H236646   3.927   3.598  29.244
 4151TIP3   OH236647   5.546   3.010  27.762
 4151TIP3    H136648   5.629   3.059  27.810
 4151TIP3    H236649   5.547   2.946  27.987
 4152TIP3   OH236650   5.589   2.844  28.428
 4152TIP3    H136651   5.520   2.780  28.506
 4152TIP3    H236652   5.656   2.833  28.638
 4153TIP3   OH236653   5.613   3.111  29.880
 4153TIP3    H136654   5.676   3.044  29.775
 4153TIP3    H236655   5.595   3.171  29.658
 4154TIP3   OH236656   5.618   2.771  27.336
 4154TIP3    H136657   5.557   2.780  27.108
 4154TIP3    H236658   5.602   2.859  27.462
 4155TIP3   OH236659   5.471   2.510  26.805
 4155TIP3    H136660   5.491   2.571  26.589
 4155TIP3    H236661   5.437   2.431  26.673
 4156TIP3   OH236662   5.430   2.627  28.566
 4156TIP3    H136663   5.383   2.554  28.428
 4156TIP3    H236664   5.375   2.638  28.806
 4157TIP3   OH236665   3.889   2.893  29.739
 4157TIP3    H136666   3.908   2.852  29.478
 4157TIP3    H236667   3.962   2.861  29.904
 4158TIP3   OH236668   5.395   2.252  26.568
 4158TIP3    H136669   5.425   2.212  26.817
 4158TIP3    H236670   5.305   2.213  26.532
 4159TIP3   OH236671   5.334   2.435  28.077
 4159TIP3    H136672   5.350   2.341  28.149
 4159TIP3    H236673   5.416   2.452  27.927
 4160TIP3   OH236674   5.409   2.495  29.643
 4160TIP3    H136675   5.507   2.486  29.655
 4160TIP3    H236676   5.387   2.403  29.727
 4161TIP3   OH236677   5.402   2.166  28.158
 4161TIP3    H136678   5.437   2.122  28.398
 4161TIP3    H236679   5.347   2.092  28.056
 4162TIP3   OH236680   3.946   2.230  29.625
 4162TIP3    H136681   3.988   2.144  29.556
 4162TIP3    H236682   4.020   2.277  29.754
 4163TIP3   OH236683   3.791   2.512  29.895
 4163TIP3    H136684   3.843   2.476  29.670
 4163TIP3    H236685   3.829   2.601  29.910
 4164TIP3   OH236686   5.571   2.144  27.183
 4164TIP3    H136687   5.610   2.097  26.952
 4164TIP3    H236688   5.651   2.189  27.279
 4165TIP3   OH236689   3.805   2.147  27.993
 4165TIP3    H136690   3.714   2.177  28.014
 4165TIP3    H236691   3.840   2.207  27.786
 4166TIP3   OH236692   5.279   3.658  28.641
 4166TIP3    H136693   5.358   3.629  28.488
 4166TIP3    H236694   5.316   3.717  28.842
 4167TIP3   OH236695   4.032   3.656  29.670
 4167TIP3    H136696   4.056   3.670  29.952
 4167TIP3    H236697   4.111   3.606  29.574
 4168TIP3   OH236698   4.234   3.515  29.343
 4168TIP3    H136699   4.228   3.418  29.376
 4168TIP3    H236700   4.326   3.532  29.436
 4169TIP3   OH236701   4.478   3.546  29.628
 4169TIP3    H136702   4.495   3.450  29.619
 4169TIP3    H236703   4.479   3.564  29.910
 4170TIP3   OH236704   4.844   2.132  29.346
 4170TIP3    H136705   4.769   2.080  29.451
 4170TIP3    H236706   4.916   2.068  29.397
 4171TIP3   OH236707   5.355   1.944  29.349
 4171TIP3    H136708   5.412   1.990  29.148
 4171TIP3    H236709   5.268   1.986  29.310
 4172TIP3   OH236710   5.522   2.036  28.770
 4172TIP3    H136711   5.589   1.980  28.632
 4172TIP3    H236712   5.574   2.118  28.827
 4173TIP3   OH236713   4.067   1.946  28.638
 4173TIP3    H136714   3.983   1.933  28.488
 4173TIP3    H236715   4.105   1.855  28.623
 4174TIP3   OH236716   3.967   1.954  27.477
 4174TIP3    H136717   3.997   2.014  27.267
 4174TIP3    H236718   3.903   2.010  27.621
 4175TIP3   OH236719   4.508   1.906  28.728
 4175TIP3    H136720   4.576   1.947  28.566
 4175TIP3    H236721   4.540   1.923  29.001
 4176TIP3   OH236722   5.088   1.992  29.064
 4176TIP3    H136723   5.072   2.002  28.779
 4176TIP3    H236724   5.047   1.905  29.124
 4177TIP3   OH236725   5.239   1.958  27.966
 4177TIP3    H136726   5.172   1.993  27.786
 4177TIP3    H236727   5.196   1.874  28.053
 4178TIP3   OH236728   3.954   3.553  27.768
 4178TIP3    H136729   3.858   3.566  27.744
 4178TIP3    H236730   3.984   3.637  27.645
 4179TIP3   OH236731   4.088   2.168  26.970
 4179TIP3    H136732   4.150   2.105  26.841
 4179TIP3    H236733   4.144   2.207  27.177
 4180TIP3   OH236734   4.640   2.168  27.654
 4180TIP3    H136735   4.674   2.113  27.873
 4180TIP3    H236736   4.651   2.256  27.777
 4181TIP3   OH236737   4.847   3.682  27.282
 4181TIP3    H136738   4.941   3.685  27.204
 4181TIP3    H236739   4.812   3.636  27.042
 4182TIP3   OH236740   5.491   3.594  28.131
 4182TIP3    H136741   5.461   3.519  27.963
 4182TIP3    H236742   5.479   3.670  27.945
 4183TIP3   OH236743   4.052   3.624  26.811
 4183TIP3    H136744   4.040   3.670  27.066
 4183TIP3    H236745   4.138   3.581  26.862
 4184TIP3   OH236746   6.879   2.883  28.662
 4184TIP3    H136747   6.858   2.980  28.671
 4184TIP3    H236748   6.801   2.853  28.515
 4185TIP3   OH236749   6.744   2.815  29.667
 4185TIP3    H136750   6.747   2.773  29.934
 4185TIP3    H236751   6.673   2.763  29.538
 4186TIP3   OH236752   7.062   3.073  29.133
 4186TIP3    H136753   7.014   3.024  29.343
 4186TIP3    H236754   7.103   3.143  29.307
 4187TIP3   OH236755   6.081   3.251  29.700
 4187TIP3    H136756   6.013   3.184  29.751
 4187TIP3    H236757   6.160   3.213  29.826
 4188TIP3   OH236758   5.775   2.556  28.341
 4188TIP3    H136759   5.733   2.643  28.344
 4188TIP3    H236760   5.697   2.502  28.287
 4189TIP3   OH236761   5.809   2.789  28.995
 4189TIP3    H136762   5.816   2.692  29.037
 4189TIP3    H236763   5.852   2.803  28.737
 4190TIP3   OH236764   6.820   3.633  29.268
 4190TIP3    H136765   6.898   3.583  29.160
 4190TIP3    H236766   6.777   3.561  29.409
 4191TIP3   OH236767   6.643   3.085  30.018
 4191TIP3    H136768   6.676   3.017  29.838
 4191TIP3    H236769   6.706   3.076  30.237
 4192TIP3   OH236770   6.878   2.497  29.934
 4192TIP3    H136771   6.879   2.420  30.111
 4192TIP3    H236772   6.840   2.462  29.688
 4193TIP3   OH236773   6.245   2.287  29.121
 4193TIP3    H136774   6.264   2.368  28.965
 4193TIP3    H236775   6.200   2.232  28.923
 4194TIP3   OH236776   6.970   2.331  28.596
 4194TIP3    H136777   7.015   2.283  28.818
 4194TIP3    H236778   7.041   2.391  28.515
 4195TIP3   OH236779   5.853   2.508  29.277
 4195TIP3    H136780   5.924   2.478  29.454
 4195TIP3    H236781   5.888   2.477  29.016
 4196TIP3   OH236782   6.375   2.696  29.151
 4196TIP3    H136783   6.453   2.645  29.241
 4196TIP3    H236784   6.332   2.628  28.980
 4197TIP3   OH236785   6.808   3.123  28.320
 4197TIP3    H136786   6.772   3.129  28.047
 4197TIP3    H236787   6.788   3.215  28.416
 4198TIP3   OH236788   7.116   2.259  29.235
 4198TIP3    H136789   7.108   2.219  29.496
 4198TIP3    H236790   7.212   2.254  29.199
 4199TIP3   OH236791   6.074   2.392  29.679
 4199TIP3    H136792   6.105   2.483  29.658
 4199TIP3    H236793   6.122   2.349  29.457
 4200TIP3   OH236794   5.811   3.106  27.786
 4200TIP3    H136795   5.798   3.156  27.531
 4200TIP3    H236796   5.819   3.177  27.987
 4201TIP3   OH236797   7.181   3.226  29.697
 4201TIP3    H136798   7.143   3.193  29.949
 4201TIP3    H236799   7.194   3.319  29.769
 4202TIP3   OH236800   6.505   1.942  29.454
 4202TIP3    H136801   6.504   1.844  29.448
 4202TIP3    H236802   6.419   1.964  29.580
 4203TIP3   OH236803   6.981   3.472  28.872
 4203TIP3    H136804   7.006   3.388  28.740
 4203TIP3    H236805   7.061   3.526  28.812
 4204TIP3   OH236806   7.120   3.272  28.470
 4204TIP3    H136807   7.102   3.206  28.263
 4204TIP3    H236808   7.140   3.216  28.701
 4205TIP3   OH236809   6.725   2.818  27.861
 4205TIP3    H136810   6.673   2.899  27.819
 4205TIP3    H236811   6.810   2.843  27.729
 4206TIP3   OH236812   6.752   2.705  27.000
 4206TIP3    H136813   6.817   2.751  27.171
 4206TIP3    H236814   6.770   2.613  27.069
 4207TIP3   OH236815   7.109   2.850  28.212
 4207TIP3    H136816   7.015   2.840  28.302
 4207TIP3    H236817   7.150   2.764  28.269
 4208TIP3   OH236818   6.231   2.923  28.797
 4208TIP3    H136819   6.192   2.874  28.572
 4208TIP3    H236820   6.261   2.849  28.968
 4209TIP3   OH236821   6.381   3.239  29.541
 4209TIP3    H136822   6.444   3.238  29.319
 4209TIP3    H236823   6.442   3.219  29.760
 4210TIP3   OH236824   6.201   2.762  29.793
 4210TIP3    H136825   6.269   2.732  29.604
 4210TIP3    H236826   6.249   2.760  30.048
 4211TIP3   OH236827   6.965   2.787  27.525
 4211TIP3    H136828   7.027   2.824  27.720
 4211TIP3    H236829   7.008   2.818  27.270
 4212TIP3   OH236830   6.736   3.383  28.428
 4212TIP3    H136831   6.781   3.421  28.659
 4212TIP3    H236832   6.685   3.459  28.326
 4213TIP3   OH236833   7.329   1.920  27.435
 4213TIP3    H136834   7.234   1.930  27.504
 4213TIP3    H236835   7.364   2.010  27.456
 4214TIP3   OH236836   6.077   2.782  28.128
 4214TIP3    H136837   6.078   2.857  27.936
 4214TIP3    H236838   6.076   2.706  27.948
 4215TIP3   OH236839   7.453   3.375  26.997
 4215TIP3    H136840   7.487   3.466  27.042
 4215TIP3    H236841   7.539   3.329  27.003
 4216TIP3   OH236842   5.754   3.359  29.601
 4216TIP3    H136843   5.835   3.322  29.715
 4216TIP3    H236844   5.716   3.410  29.820
 4217TIP3   OH236845   6.683   3.690  28.059
 4217TIP3    H136846   6.678   3.707  27.771
 4217TIP3    H236847   6.680   3.783  28.161
 4218TIP3   OH236848   6.057   3.590  28.557
 4218TIP3    H136849   6.073   3.575  28.845
 4218TIP3    H236850   5.971   3.547  28.524
 4219TIP3   OH236851   6.977   3.633  27.159
 4219TIP3    H136852   7.028   3.559  27.036
 4219TIP3    H236853   6.992   3.620  27.447
 4220TIP3   OH236854   6.957   3.619  27.984
 4220TIP3    H136855   6.859   3.625  27.999
 4220TIP3    H236856   6.976   3.545  28.164
 4221TIP3   OH236857   6.237   2.044  29.679
 4221TIP3    H136858   6.163   2.032  29.487
 4221TIP3    H236859   6.203   2.124  29.802
 4222TIP3   OH236860   7.100   2.894  26.943
 4222TIP3    H136861   7.079   2.896  26.658
 4222TIP3    H236862   7.196   2.917  26.937
 4223TIP3   OH236863   6.688   2.247  26.979
 4223TIP3    H136864   6.673   2.217  27.252
 4223TIP3    H236865   6.617   2.195  26.856
 4224TIP3   OH236866   6.265   2.514  28.686
 4224TIP3    H136867   6.169   2.506  28.641
 4224TIP3    H236868   6.303   2.506  28.413
 4225TIP3   OH236869   6.835   2.611  28.209
 4225TIP3    H136870   6.787   2.678  28.041
 4225TIP3    H236871   6.888   2.566  27.999
 4226TIP3   OH236872   6.827   2.531  29.043
 4226TIP3    H136873   6.808   2.589  28.815
 4226TIP3    H236874   6.877   2.462  28.899
 4227TIP3   OH236875   6.321   2.293  26.814
 4227TIP3    H136876   6.265   2.242  27.000
 4227TIP3    H236877   6.255   2.343  26.658
 4228TIP3   OH236878   5.662   2.259  28.929
 4228TIP3    H136879   5.717   2.256  29.172
 4228TIP3    H236880   5.727   2.242  28.722
 4229TIP3   OH236881   5.770   2.315  27.477
 4229TIP3    H136882   5.829   2.357  27.279
 4229TIP3    H236883   5.707   2.389  27.513
 4230TIP3   OH236884   6.550   2.315  28.866
 4230TIP3    H136885   6.475   2.311  29.049
 4230TIP3    H236886   6.619   2.271  29.031
 4231TIP3   OH236887   5.982   2.418  28.632
 4231TIP3    H136888   5.914   2.452  28.443
 4231TIP3    H236889   6.000   2.328  28.524
 4232TIP3   OH236890   6.353   2.479  27.945
 4232TIP3    H136891   6.439   2.468  27.819
 4232TIP3    H236892   6.301   2.525  27.738
 4233TIP3   OH236893   6.908   2.133  29.880
 4233TIP3    H136894   6.909   2.190  30.117
 4233TIP3    H236895   6.859   2.190  29.697
 4234TIP3   OH236896   6.227   2.582  27.159
 4234TIP3    H136897   6.188   2.527  26.949
 4234TIP3    H236898   6.305   2.617  27.015
 4235TIP3   OH236899   6.617   2.582  29.505
 4235TIP3    H136900   6.676   2.568  29.274
 4235TIP3    H236901   6.654   2.514  29.679
 4236TIP3   OH236902   6.066   2.177  28.455
 4236TIP3    H136903   6.017   2.106  28.593
 4236TIP3    H236904   6.119   2.124  28.275
 4237TIP3   OH236905   6.561   3.037  27.735
 4237TIP3    H136906   6.483   2.990  27.627
 4237TIP3    H236907   6.523   3.066  27.993
 4238TIP3   OH236908   6.932   2.289  27.282
 4238TIP3    H136909   6.842   2.303  27.174
 4238TIP3    H236910   6.961   2.380  27.339
 4239TIP3   OH236911   7.005   2.513  27.639
 4239TIP3    H136912   7.093   2.498  27.756
 4239TIP3    H236913   7.022   2.580  27.432
 4240TIP3   OH236914   6.053   2.985  29.388
 4240TIP3    H136915   6.002   2.927  29.211
 4240TIP3    H236916   6.112   2.924  29.535
 4241TIP3   OH236917   6.764   3.176  27.432
 4241TIP3    H136918   6.727   3.263  27.516
 4241TIP3    H236919   6.692   3.115  27.516
 4242TIP3   OH236920   7.469   2.511  27.594
 4242TIP3    H136921   7.416   2.482  27.363
 4242TIP3    H236922   7.486   2.603  27.507
 4243TIP3   OH236923   7.315   3.388  27.717
 4243TIP3    H136924   7.255   3.314  27.774
 4243TIP3    H236925   7.362   3.362  27.468
 4244TIP3   OH236926   6.997   2.889  29.673
 4244TIP3    H136927   6.901   2.866  29.649
 4244TIP3    H236928   7.034   2.800  29.634
 4245TIP3   OH236929   6.272   3.315  28.761
 4245TIP3    H136930   6.336   3.383  28.839
 4245TIP3    H236931   6.232   3.363  28.536
 4246TIP3   OH236932   5.922   2.820  27.138
 4246TIP3    H136933   5.960   2.888  27.315
 4246TIP3    H236934   5.826   2.830  27.162
 4247TIP3   OH236935   6.425   3.090  28.386
 4247TIP3    H136936   6.378   3.163  28.521
 4247TIP3    H236937   6.407   3.011  28.545
 4248TIP3   OH236938   6.316   3.547  28.326
 4248TIP3    H136939   6.223   3.573  28.386
 4248TIP3    H236940   6.358   3.631  28.398
 4249TIP3   OH236941   7.088   3.225  27.105
 4249TIP3    H136942   7.105   3.173  27.351
 4249TIP3    H236943   7.002   3.186  27.039
 4250TIP3   OH236944   7.529   3.628  27.171
 4250TIP3    H136945   7.563   3.709  27.045
 4250TIP3    H236946   7.443   3.662  27.258
 4251TIP3   OH236947   7.190   3.068  27.732
 4251TIP3    H136948   7.171   2.983  27.867
 4251TIP3    H236949   7.288   3.059  27.696
 4252TIP3   OH236950   6.483   3.335  26.667
 4252TIP3    H136951   6.474   3.287  26.415
 4252TIP3    H236952   6.422   3.285  26.841
 4253TIP3   OH236953   6.348   3.249  27.363
 4253TIP3    H136954   6.423   3.210  27.507
 4253TIP3    H236955   6.362   3.344  27.435
 4254TIP3   OH236956   6.051   3.001  27.579
 4254TIP3    H136957   5.962   3.033  27.651
 4254TIP3    H236958   6.089   3.077  27.435
 4255TIP3   OH236959   6.873   2.181  27.990
 4255TIP3    H136960   6.904   2.229  27.753
 4255TIP3    H236961   6.903   2.242  28.206
 4256TIP3   OH236962   6.644   3.423  27.579
 4256TIP3    H136963   6.553   3.459  27.615
 4256TIP3    H236964   6.692   3.504  27.516
 4257TIP3   OH236965   6.625   2.372  28.098
 4257TIP3    H136966   6.658   2.461  28.164
 4257TIP3    H236967   6.585   2.344  28.353
 4258TIP3   OH236968   6.652   2.064  28.302
 4258TIP3    H136969   6.622   2.128  28.500
 4258TIP3    H236970   6.731   2.110  28.188
 4259TIP3   OH236971   6.387   3.496  27.558
 4259TIP3    H136972   6.393   3.572  27.369
 4259TIP3    H236973   6.343   3.539  27.786
 4260TIP3   OH236974   6.228   2.184  27.486
 4260TIP3    H136975   6.229   2.264  27.648
 4260TIP3    H236976   6.321   2.155  27.501
 4261TIP3   OH236977   7.053   2.665  29.331
 4261TIP3    H136978   6.987   2.597  29.397
 4261TIP3    H236979   7.136   2.619  29.415
 4262TIP3   OH236980   6.069   3.248  27.096
 4262TIP3    H136981   6.144   3.277  27.261
 4262TIP3    H236982   6.118   3.194  26.898
 4263TIP3   OH236983   5.890   2.517  27.012
 4263TIP3    H136984   5.934   2.599  27.093
 4263TIP3    H236985   5.832   2.548  26.799
 4264TIP3   OH236986   7.265   3.588  29.892
 4264TIP3    H136987   7.248   3.670  29.736
 4264TIP3    H236988   7.353   3.607  29.994
 4265TIP3   OH236989   5.999   2.018  29.364
 4265TIP3    H136990   5.984   1.978  29.100
 4265TIP3    H236991   5.985   1.939  29.532
 4266TIP3   OH236992   5.866   3.381  28.389
 4266TIP3    H136993   5.779   3.416  28.461
 4266TIP3    H236994   5.874   3.422  28.122
 4267TIP3   OH236995   6.691   3.522  26.679
 4267TIP3    H136996   6.637   3.441  26.718
 4267TIP3    H236997   6.771   3.486  26.547
 4268TIP3   OH236998   7.148   3.468  26.712
 4268TIP3    H136999   7.163   3.394  26.898
 4268TIP3    H237000   7.228   3.465  26.547
 4269TIP3   OH237001   6.226   3.062  26.634
 4269TIP3    H137002   6.264   3.025  26.877
 4269TIP3    H237003   6.301   3.050  26.448
 4270TIP3   OH237004   6.793   3.183  26.577
 4270TIP3    H137005   6.762   3.182  26.853
 4270TIP3    H237006   6.778   3.088  26.517
 4271TIP3   OH237007   6.362   2.863  27.426
 4271TIP3    H137008   6.293   2.805  27.537
 4271TIP3    H237009   6.402   2.804  27.225
 4272TIP3   OH237010   6.467   2.691  26.844
 4272TIP3    H137011   6.458   2.706  26.553
 4272TIP3    H237012   6.564   2.703  26.877
 4273TIP3   OH237013   7.364   2.903  26.703
 4273TIP3    H137014   7.340   2.889  26.421
 4273TIP3    H237015   7.383   2.999  26.709
 4274TIP3   OH237016   6.439   3.723  27.216
 4274TIP3    H137017   6.537   3.724  27.237
 4274TIP3    H237018   6.428   3.794  27.015
 4275TIP3   OH237019   5.793   3.208  27.060
 4275TIP3    H137020   5.891   3.223  27.054
 4275TIP3    H237021   5.783   3.145  26.832
 4276TIP3   OH237022   5.696   3.728  28.404
 4276TIP3    H137023   5.615   3.679  28.329
 4276TIP3    H237024   5.711   3.687  28.671
 4277TIP3   OH237025   5.738   3.594  29.091
 4277TIP3    H137026   5.700   3.510  29.181
 4277TIP3    H237027   5.803   3.610  29.307
 4278TIP3   OH237028   7.452   3.005  27.780
 4278TIP3    H137029   7.518   3.066  27.885
 4278TIP3    H237030   7.454   2.938  27.993
 4279TIP3   OH237031   7.473   2.854  28.467
 4279TIP3    H137032   7.394   2.812  28.575
 4279TIP3    H237033   7.536   2.836  28.680
 4280TIP3   OH237034   7.524   3.053  29.691
 4280TIP3    H137035   7.616   3.083  29.715
 4280TIP3    H237036   7.480   3.139  29.718
 4281TIP3   OH237037   7.486   2.782  27.372
 4281TIP3    H137038   7.443   2.805  27.117
 4281TIP3    H237039   7.492   2.872  27.483
 4282TIP3   OH237040   7.320   2.495  26.871
 4282TIP3    H137041   7.333   2.556  26.649
 4282TIP3    H237042   7.293   2.414  26.724
 4283TIP3   OH237043   7.237   2.643  28.599
 4283TIP3    H137044   7.234   2.584  28.362
 4283TIP3    H237045   7.284   2.582  28.776
 4284TIP3   OH237046   5.798   2.915  29.712
 4284TIP3    H137047   5.804   2.862  29.466
 4284TIP3    H237048   5.846   2.863  29.913
 4285TIP3   OH237049   7.261   2.247  26.583
 4285TIP3    H137050   7.255   2.214  26.853
 4285TIP3    H237051   7.173   2.219  26.481
 4286TIP3   OH237052   7.241   2.436  28.113
 4286TIP3    H137053   7.224   2.343  28.182
 4286TIP3    H237054   7.334   2.430  28.029
 4287TIP3   OH237055   7.260   2.518  29.523
 4287TIP3    H137056   7.360   2.522  29.532
 4287TIP3    H237057   7.241   2.458  29.742
 4288TIP3   OH237058   7.254   2.150  28.173
 4288TIP3    H137059   7.285   2.115  28.431
 4288TIP3    H237060   7.201   2.074  28.071
 4289TIP3   OH237061   5.835   2.225  29.598
 4289TIP3    H137062   5.880   2.138  29.562
 4289TIP3    H237063   5.908   2.278  29.712
 4290TIP3   OH237064   5.670   2.513  29.874
 4290TIP3    H137065   5.720   2.472  29.655
 4290TIP3    H237066   5.706   2.603  29.859
 4291TIP3   OH237067   7.483   2.145  27.198
 4291TIP3    H137068   7.498   2.088  26.964
 4291TIP3    H237069   7.521   2.230  27.108
 4292TIP3   OH237070   5.690   2.137  28.008
 4292TIP3    H137071   5.600   2.169  28.047
 4292TIP3    H237072   5.725   2.212  27.846
 4293TIP3   OH237073   7.181   3.647  28.725
 4293TIP3    H137074   7.239   3.625  28.497
 4293TIP3    H237075   7.240   3.700  28.893
 4294TIP3   OH237076   5.926   3.641  29.664
 4294TIP3    H137077   5.950   3.652  29.949
 4294TIP3    H237078   6.006   3.601  29.547
 4295TIP3   OH237079   6.126   3.508  29.313
 4295TIP3    H137080   6.130   3.418  29.418
 4295TIP3    H237081   6.206   3.546  29.442
 4296TIP3   OH237082   6.355   3.571  29.637
 4296TIP3    H137083   6.413   3.495  29.601
 4296TIP3    H237084   6.355   3.582  29.925
 4297TIP3   OH237085   6.693   2.163  29.364
 4297TIP3    H137086   6.637   2.088  29.451
 4297TIP3    H237087   6.774   2.112  29.310
 4298TIP3   OH237088   7.200   1.929  29.415
 4298TIP3    H137089   7.276   1.983  29.319
 4298TIP3    H237090   7.133   1.968  29.235
 4299TIP3   OH237091   7.364   2.055  28.908
 4299TIP3    H137092   7.430   1.999  28.767
 4299TIP3    H237093   7.409   2.143  28.908
 4300TIP3   OH237094   5.952   1.930  28.629
 4300TIP3    H137095   5.872   1.919  28.464
 4300TIP3    H237096   5.991   1.841  28.611
 4301TIP3   OH237097   5.856   1.942  27.507
 4301TIP3    H137098   5.875   2.003  27.288
 4301TIP3    H237099   5.788   1.989  27.657
 4302TIP3   OH237100   6.376   1.924  28.698
 4302TIP3    H137101   6.456   1.939  28.545
 4302TIP3    H237102   6.411   1.931  28.971
 4303TIP3   OH237103   6.945   1.997  28.962
 4303TIP3    H137104   6.931   1.998  28.674
 4303TIP3    H237105   6.920   1.906  29.040
 4304TIP3   OH237106   7.101   1.948  27.918
 4304TIP3    H137107   7.019   1.992  27.834
 4304TIP3    H237108   7.069   1.863  28.026
 4305TIP3   OH237109   5.828   3.539  27.753
 4305TIP3    H137110   5.735   3.567  27.759
 4305TIP3    H237111   5.866   3.618  27.624
 4306TIP3   OH237112   5.970   2.150  26.976
 4306TIP3    H137113   6.027   2.091  26.817
 4306TIP3    H237114   6.019   2.152  27.228
 4307TIP3   OH237115   6.538   2.157  27.600
 4307TIP3    H137116   6.568   2.102  27.822
 4307TIP3    H237117   6.547   2.246  27.723
 4308TIP3   OH237118   6.714   3.694  27.255
 4308TIP3    H137119   6.808   3.693  27.174
 4308TIP3    H237120   6.683   3.632  27.042
 4309TIP3   OH237121   7.348   3.618  28.095
 4309TIP3    H137122   7.346   3.535  27.933
 4309TIP3    H237123   7.347   3.685  27.879
 4310TIP3   OH237124   5.957   3.629  26.784
 4310TIP3    H137125   5.936   3.661  27.051
 4310TIP3    H237126   6.035   3.573  26.835
 4311TIP3   OH237127   7.556   2.590  28.383
 4311TIP3    H137128   7.532   2.680  28.299
 4311TIP3    H237129   7.535   2.538  28.146
 4312TIP3   OH237130   7.558   3.323  29.679
 4312TIP3    H137131   7.656   3.332  29.706
 4312TIP3    H237132   7.525   3.374  29.907
 4313TIP3   OH237133   7.508   2.278  28.785
 4313TIP3    H137134   7.603   2.295  28.848
 4313TIP3    H237135   7.517   2.228  28.530
 4314TIP3   OH237136   7.510   3.739  28.596
 4314TIP3    H137137   7.458   3.686  28.401
 4314TIP3    H237138   7.520   3.675  28.818
 4315TIP3   OH237139   7.559   3.588  29.247
 4315TIP3    H137140   7.514   3.505  29.301
 4315TIP3    H237141   7.654   3.561  29.220
 4316TIP3   OH237142   7.661   2.771  29.796
 4316TIP3    H137143   7.702   2.802  29.544
 4316TIP3    H237144   7.666   2.852  29.958
 4317TIP3   OH237145   7.507   2.559  29.745
 4317TIP3    H137146   7.580   2.502  29.658
 4317TIP3    H237147   7.560   2.639  29.817
 4318TIP3   OH237148   7.520   2.169  28.068
 4318TIP3    H137149   7.423   2.173  28.020
 4318TIP3    H237150   7.557   2.176  27.798
 4319TIP3   OH237151   1.223   4.785  28.623
 4319TIP3    H137152   1.221   4.880  28.689
 4319TIP3    H237153   1.136   4.774  28.503
 4320TIP3   OH237154   1.095   4.678  29.652
 4320TIP3    H137155   1.086   4.642  29.925
 4320TIP3    H237156   1.023   4.630  29.520
 4321TIP3   OH237157   1.399   4.971  29.160
 4321TIP3    H137158   1.371   4.895  29.328
 4321TIP3    H237159   1.433   5.034  29.367
 4322TIP3   OH237160   0.398   5.096  29.598
 4322TIP3    H137161   0.375   5.004  29.514
 4322TIP3    H237162   0.493   5.085  29.640
 4323TIP3   OH237163   0.128   4.418  28.158
 4323TIP3    H137164   0.133   4.498  28.317
 4323TIP3    H237165   0.039   4.391  28.242
 4324TIP3   OH237166   0.120   4.693  29.118
 4324TIP3    H137167   0.159   4.603  29.160
 4324TIP3    H237168   0.199   4.745  29.052
 4325TIP3   OH237169   1.163   5.534  29.304
 4325TIP3    H137170   1.225   5.481  29.139
 4325TIP3    H237171   1.123   5.461  29.451
 4326TIP3   OH237172   0.969   4.946  30.006
 4326TIP3    H137173   1.016   4.891  29.811
 4326TIP3    H237174   1.041   4.963  30.198
 4327TIP3   OH237175   1.238   4.390  29.964
 4327TIP3    H137176   1.268   4.297  29.979
 4327TIP3    H237177   1.235   4.403  29.673
 4328TIP3   OH237178   0.575   4.180  29.157
 4328TIP3    H137179   0.596   4.259  28.995
 4328TIP3    H237180   0.532   4.123  28.956
 4329TIP3   OH237181   1.299   4.219  28.629
 4329TIP3    H137182   1.354   4.178  28.842
 4329TIP3    H237183   1.368   4.275  28.506
 4330TIP3   OH237184   0.238   4.441  29.238
 4330TIP3    H137185   0.292   4.376  29.382
 4330TIP3    H237186   0.251   4.409  28.962
 4331TIP3   OH237187   0.699   4.577  29.166
 4331TIP3    H137188   0.776   4.529  29.271
 4331TIP3    H237189   0.661   4.506  28.995
 4332TIP3   OH237190   1.143   5.027  28.299
 4332TIP3    H137191   1.125   5.014  28.014
 4332TIP3    H237192   1.128   5.124  28.314
 4333TIP3   OH237193   1.481   4.149  29.145
 4333TIP3    H137194   1.421   4.125  29.370
 4333TIP3    H237195   1.567   4.127  29.256
 4334TIP3   OH237196   0.391   4.278  29.712
 4334TIP3    H137197   0.439   4.355  29.814
 4334TIP3    H237198   0.458   4.234  29.541
 4335TIP3   OH237199   0.128   4.996  27.828
 4335TIP3    H137200   0.103   5.050  27.594
 4335TIP3    H237201   0.152   5.065  28.026
 4336TIP3   OH237202   1.515   5.133  29.679
 4336TIP3    H137203   1.481   5.089  29.922
 4336TIP3    H237204   1.570   5.201  29.799
 4337TIP3   OH237205   0.859   3.850  29.490
 4337TIP3    H137206   0.880   3.756  29.490
 4337TIP3    H237207   0.765   3.853  29.580
 4338TIP3   OH237208   1.316   5.373  28.875
 4338TIP3    H137209   1.357   5.286  28.827
 4338TIP3    H237210   1.394   5.431  28.812
 4339TIP3   OH237211   1.455   5.159  28.539
 4339TIP3    H137212   1.432   5.087  28.356
 4339TIP3    H237213   1.459   5.107  28.788
 4340TIP3   OH237214   1.077   4.709  27.852
 4340TIP3    H137215   1.021   4.787  27.801
 4340TIP3    H237216   1.167   4.745  27.807
 4341TIP3   OH237217   1.092   4.582  26.952
 4341TIP3    H137218   1.135   4.614  27.198
 4341TIP3    H237219   1.124   4.490  26.943
 4342TIP3   OH237220   1.456   4.699  28.224
 4342TIP3    H137221   1.376   4.725  28.377
 4342TIP3    H237222   1.515   4.666  28.434
 4343TIP3   OH237223   0.585   4.767  28.719
 4343TIP3    H137224   0.541   4.713  28.512
 4343TIP3    H237225   0.640   4.701  28.860
 4344TIP3   OH237226   0.733   5.148  29.562
 4344TIP3    H137227   0.714   5.110  29.298
 4344TIP3    H237228   0.798   5.085  29.667
 4345TIP3   OH237229   0.559   4.661  29.793
 4345TIP3    H137230   0.608   4.647  29.541
 4345TIP3    H237231   0.629   4.691  29.970
 4346TIP3   OH237232   1.317   4.682  27.531
 4346TIP3    H137233   1.383   4.702  27.738
 4346TIP3    H237234   1.366   4.709  27.285
 4347TIP3   OH237235   1.088   5.283  28.374
 4347TIP3    H137236   1.155   5.305  28.572
 4347TIP3    H237237   1.035   5.363  28.356
 4348TIP3   OH237238   1.684   3.791  27.606
 4348TIP3    H137239   1.589   3.806  27.633
 4348TIP3    H237240   1.720   3.880  27.540
 4349TIP3   OH237241   0.479   4.650  27.996
 4349TIP3    H137242   0.430   4.728  27.897
 4349TIP3    H237243   0.424   4.575  27.918
 4350TIP3   OH237244   1.799   5.222  27.072
 4350TIP3    H137245   1.823   5.317  27.078
 4350TIP3    H237246   1.889   5.184  27.111
 4351TIP3   OH237247   0.137   5.235  29.697
 4351TIP3    H137248   0.206   5.167  29.685
 4351TIP3    H237249   0.175   5.291  29.907
 4352TIP3   OH237250   1.049   5.578  28.083
 4352TIP3    H137251   1.046   5.586  27.789
 4352TIP3    H237252   1.026   5.670  28.158
 4353TIP3   OH237253   0.419   5.461  28.599
 4353TIP3    H137254   0.431   5.429  28.875
 4353TIP3    H237255   0.323   5.464  28.563
 4354TIP3   OH237256   1.334   5.512  27.129
 4354TIP3    H137257   1.383   5.436  27.012
 4354TIP3    H237258   1.343   5.497  27.414
 4355TIP3   OH237259   1.308   5.514  27.954
 4355TIP3    H137260   1.213   5.526  28.023
 4355TIP3    H237261   1.332   5.440  28.128
 4356TIP3   OH237262   0.591   3.905  29.598
 4356TIP3    H137263   0.501   3.922  29.490
 4356TIP3    H237264   0.616   3.993  29.697
 4357TIP3   OH237265   1.468   4.776  26.961
 4357TIP3    H137266   1.446   4.792  26.679
 4357TIP3    H237267   1.565   4.787  26.955
 4358TIP3   OH237268   1.019   4.128  26.952
 4358TIP3    H137269   0.988   4.120  27.228
 4358TIP3    H237270   0.967   4.055  26.838
 4359TIP3   OH237271   0.598   4.393  28.689
 4359TIP3    H137272   0.504   4.369  28.635
 4359TIP3    H237273   0.632   4.387  28.407
 4360TIP3   OH237274   1.143   4.492  28.218
 4360TIP3    H137275   1.115   4.571  28.062
 4360TIP3    H237276   1.206   4.455  28.026
 4361TIP3   OH237277   1.223   4.437  29.148
 4361TIP3    H137278   1.205   4.511  28.965
 4361TIP3    H237279   1.237   4.365  28.956
 4362TIP3   OH237280   0.643   4.161  26.766
 4362TIP3    H137281   0.605   4.102  26.976
 4362TIP3    H237282   0.563   4.191  26.637
 4363TIP3   OH237283   0.077   4.140  28.917
 4363TIP3    H137284   0.115   4.154  29.184
 4363TIP3    H237285   0.122   4.059  28.833
 4364TIP3   OH237286   0.100   4.219  27.462
 4364TIP3    H137287   0.172   4.261  27.303
 4364TIP3    H237288   0.056   4.296  27.573
 4365TIP3   OH237289   0.871   4.189  28.917
 4365TIP3    H137290   0.788   4.174  29.061
 4365TIP3    H237291   0.934   4.133  29.070
 4366TIP3   OH237292   0.343   4.321  28.545
 4366TIP3    H137293   0.273   4.329  28.338
 4366TIP3    H237294   0.349   4.222  28.554
 4367TIP3   OH237295   0.667   4.350  27.930
 4367TIP3    H137296   0.762   4.348  27.867
 4367TIP3    H237297   0.630   4.404  27.714
 4368TIP3   OH237298   1.302   4.138  29.721
 4368TIP3    H137299   1.300   4.112  30.006
 4368TIP3    H237300   1.208   4.127  29.646
 4369TIP3   OH237301   0.573   4.479  27.153
 4369TIP3    H137302   0.527   4.417  26.979
 4369TIP3    H237303   0.656   4.496  27.000
 4370TIP3   OH237304   0.944   4.442  29.487
 4370TIP3    H137305   0.980   4.422  29.223
 4370TIP3    H237306   1.013   4.399  29.649
 4371TIP3   OH237307   0.410   4.069  28.536
 4371TIP3    H137308   0.353   3.993  28.614
 4371TIP3    H237309   0.455   4.025  28.311
 4372TIP3   OH237310   0.909   4.909  27.804
 4372TIP3    H137311   0.836   4.861  27.672
 4372TIP3    H237312   0.863   4.938  28.053
 4373TIP3   OH237313   1.263   4.177  27.264
 4373TIP3    H137314   1.180   4.184  27.108
 4373TIP3    H237315   1.283   4.272  27.318
 4374TIP3   OH237316   1.322   4.410  27.588
 4374TIP3    H137317   1.381   4.372  27.786
 4374TIP3    H237318   1.365   4.495  27.534
 4375TIP3   OH237319   0.412   4.849  29.352
 4375TIP3    H137320   0.465   4.835  29.109
 4375TIP3    H237321   0.463   4.801  29.556
 4376TIP3   OH237322   1.096   5.054  27.501
 4376TIP3    H137323   1.056   5.143  27.549
 4376TIP3    H237324   1.024   4.993  27.594
 4377TIP3   OH237325   1.816   4.382  27.600
 4377TIP3    H137326   1.763   4.378  27.351
 4377TIP3    H237327   1.841   4.476  27.603
 4378TIP3   OH237328   1.633   5.261  27.693
 4378TIP3    H137329   1.606   5.189  27.867
 4378TIP3    H237330   1.691   5.218  27.492
 4379TIP3   OH237331   1.363   4.747  29.700
 4379TIP3    H137332   1.270   4.717  29.664
 4379TIP3    H237333   1.414   4.680  29.547
 4380TIP3   OH237334   0.627   5.183  28.740
 4380TIP3    H137335   0.672   5.266  28.803
 4380TIP3    H237336   0.552   5.218  28.590
 4381TIP3   OH237337   0.237   4.705  27.135
 4381TIP3    H137338   0.277   4.784  27.255
 4381TIP3    H237339   0.145   4.707  27.228
 4382TIP3   OH237340   0.761   4.964  28.437
 4382TIP3    H137341   0.717   5.038  28.578
 4382TIP3    H237342   0.741   4.887  28.605
 4383TIP3   OH237343   0.667   5.435  28.344
 4383TIP3    H137344   0.573   5.452  28.410
 4383TIP3    H237345   0.705   5.518  28.455
 4384TIP3   OH237346   1.432   5.083  27.054
 4384TIP3    H137347   1.441   5.049  27.327
 4384TIP3    H237348   1.339   5.058  27.009
 4385TIP3   OH237349   1.850   5.510  27.195
 4385TIP3    H137350   1.914   5.578  27.114
 4385TIP3    H237351   1.783   5.565  27.330
 4386TIP3   OH237352   1.507   4.943  27.765
 4386TIP3    H137353   1.486   4.858  27.891
 4386TIP3    H237354   1.602   4.929  27.699
 4387TIP3   OH237355   0.839   5.217  26.646
 4387TIP3    H137356   0.836   5.156  26.418
 4387TIP3    H237357   0.785   5.168  26.841
 4388TIP3   OH237358   0.731   5.133  27.363
 4388TIP3    H137359   0.817   5.114  27.489
 4388TIP3    H237360   0.726   5.230  27.426
 4389TIP3   OH237361   0.367   4.897  27.600
 4389TIP3    H137362   0.281   4.916  27.738
 4389TIP3    H237363   0.355   4.950  27.357
 4390TIP3   OH237364   1.207   4.083  27.984
 4390TIP3    H137365   1.233   4.125  27.729
 4390TIP3    H237366   1.248   4.141  28.188
 4391TIP3   OH237367   0.978   5.294  27.531
 4391TIP3    H137368   0.903   5.346  27.645
 4391TIP3    H237369   1.044   5.364  27.507
 4392TIP3   OH237370   0.937   4.279  28.170
 4392TIP3    H137371   0.993   4.357  28.215
 4392TIP3    H237372   0.909   4.249  28.440
 4393TIP3   OH237373   0.996   3.961  28.311
 4393TIP3    H137374   0.972   4.015  28.542
 4393TIP3    H237375   1.073   4.012  28.203
 4394TIP3   OH237376   0.729   5.389  27.552
 4394TIP3    H137377   0.744   5.472  27.390
 4394TIP3    H237378   0.690   5.431  27.792
 4395TIP3   OH237379   0.572   4.068  27.504
 4395TIP3    H137380   0.564   4.149  27.660
 4395TIP3    H237381   0.668   4.052  27.513
 4396TIP3   OH237382   1.475   4.546  29.277
 4396TIP3    H137383   1.396   4.492  29.331
 4396TIP3    H237384   1.541   4.500  29.454
 4397TIP3   OH237385   0.410   5.140  27.099
 4397TIP3    H137386   0.445   5.229  27.036
 4397TIP3    H237387   0.429   5.092  26.847
 4398TIP3   OH237388   0.239   4.401  26.982
 4398TIP3    H137389   0.261   4.493  27.051
 4398TIP3    H237390   0.189   4.414  26.736
 4399TIP3   OH237391   1.588   5.497  29.886
 4399TIP3    H137392   1.604   5.570  29.697
 4399TIP3    H237393   1.672   5.491  30.024
 4400TIP3   OH237394   0.321   3.900  29.415
 4400TIP3    H137395   0.315   3.878  29.130
 4400TIP3    H237396   0.309   3.810  29.526
 4401TIP3   OH237397   0.220   5.215  28.221
 4401TIP3    H137398   0.146   5.246  28.377
 4401TIP3    H237399   0.249   5.298  28.098
 4402TIP3   OH237400   1.038   5.407  26.616
 4402TIP3    H137401   0.989   5.326  26.688
 4402TIP3    H237402   1.119   5.369  26.499
 4403TIP3   OH237403   1.479   5.334  26.667
 4403TIP3    H137404   1.492   5.255  26.835
 4403TIP3    H237405   1.559   5.333  26.502
 4404TIP3   OH237406   0.583   4.931  26.721
 4404TIP3    H137407   0.604   4.843  26.820
 4404TIP3    H237408   0.667   4.950  26.583
 4405TIP3   OH237409   1.143   5.059  26.655
 4405TIP3    H137410   1.102   5.054  26.919
 4405TIP3    H237411   1.135   4.965  26.571
 4406TIP3   OH237412   0.682   4.772  27.435
 4406TIP3    H137413   0.632   4.710  27.606
 4406TIP3    H237414   0.729   4.707  27.270
 4407TIP3   OH237415   0.809   4.582  26.811
 4407TIP3    H137416   0.807   4.617  26.538
 4407TIP3    H237417   0.905   4.579  26.871
 4408TIP3   OH237418   1.738   4.786  26.655
 4408TIP3    H137419   1.710   4.760  26.382
 4408TIP3    H237420   1.730   4.884  26.643
 4409TIP3   OH237421   0.781   5.627  27.258
 4409TIP3    H137422   0.878   5.628  27.279
 4409TIP3    H237423   0.768   5.695  27.051
 4410TIP3   OH237424   0.138   5.120  27.093
 4410TIP3    H137425   0.233   5.144  27.099
 4410TIP3    H237426   0.134   5.068  26.850
 4411TIP3   OH237427   0.095   5.611  28.512
 4411TIP3    H137428  -0.003   5.621  28.542
 4411TIP3    H237429   0.112   5.548  28.731
 4412TIP3   OH237430   0.134   5.430  29.130
 4412TIP3    H137431   0.130   5.344  29.277
 4412TIP3    H237432   0.190   5.480  29.319
 4413TIP3   OH237433   1.775   4.890  27.780
 4413TIP3    H137434   1.860   4.935  27.837
 4413TIP3    H237435   1.770   4.829  28.011
 4414TIP3   OH237436   1.809   4.716  28.431
 4414TIP3    H137437   1.742   4.665  28.584
 4414TIP3    H237438   1.887   4.716  28.611
 4415TIP3   OH237439   1.900   5.003  29.880
 4415TIP3    H137440   1.934   4.928  29.724
 4415TIP3    H237441   1.824   5.034  29.721
 4416TIP3   OH237442   1.864   4.672  27.312
 4416TIP3    H137443   1.800   4.682  27.087
 4416TIP3    H237444   1.838   4.748  27.480
 4417TIP3   OH237445   1.703   4.400  26.841
 4417TIP3    H137446   1.695   4.458  26.613
 4417TIP3    H237447   1.664   4.315  26.739
 4418TIP3   OH237448   1.623   4.521  28.635
 4418TIP3    H137449   1.577   4.447  28.506
 4418TIP3    H237450   1.573   4.529  28.890
 4419TIP3   OH237451   0.186   4.846  29.835
 4419TIP3    H137452   0.178   4.802  29.577
 4419TIP3    H237453   0.244   4.781  29.967
 4420TIP3   OH237454   1.609   4.154  26.664
 4420TIP3    H137455   1.652   4.098  26.868
 4420TIP3    H237456   1.527   4.106  26.598
 4421TIP3   OH237457   1.528   4.321  28.128
 4421TIP3    H137458   1.551   4.229  28.206
 4421TIP3    H237459   1.614   4.342  28.008
 4422TIP3   OH237460   1.642   4.392  29.664
 4422TIP3    H137461   1.740   4.386  29.694
 4422TIP3    H237462   1.621   4.298  29.727
 4423TIP3   OH237463   1.617   4.068  28.152
 4423TIP3    H137464   1.654   4.022  28.383
 4423TIP3    H237465   1.559   3.997  28.050
 4424TIP3   OH237466   0.159   4.117  29.667
 4424TIP3    H137467   0.200   4.029  29.637
 4424TIP3    H237468   0.229   4.165  29.811
 4425TIP3   OH237469   0.104   4.419  30.030
 4425TIP3    H137470   0.126   4.397  29.754
 4425TIP3    H237471   0.061   4.506  29.988
 4426TIP3   OH237472   1.805   4.028  27.177
 4426TIP3    H137473   1.846   3.978  26.952
 4426TIP3    H237474   1.868   4.101  27.210
 4427TIP3   OH237475   0.103   4.029  28.005
 4427TIP3    H137476   0.022   4.057  28.146
 4427TIP3    H237477   0.098   4.086  27.765
 4428TIP3   OH237478   1.518   5.537  28.689
 4428TIP3    H137479   1.593   5.520  28.506
 4428TIP3    H237480   1.555   5.598  28.887
 4429TIP3   OH237481   0.282   5.528  29.754
 4429TIP3    H137482   0.300   5.549  30.033
 4429TIP3    H237483   0.365   5.480  29.688
 4430TIP3   OH237484   0.453   5.369  29.343
 4430TIP3    H137485   0.429   5.275  29.376
 4430TIP3    H237486   0.541   5.372  29.475
 4431TIP3   OH237487   0.708   5.421  29.676
 4431TIP3    H137488   0.739   5.332  29.592
 4431TIP3    H237489   0.752   5.428  29.931
 4432TIP3   OH237490   1.058   4.038  29.364
 4432TIP3    H137491   0.993   3.969  29.445
 4432TIP3    H237492   1.137   3.981  29.358
 4433TIP3   OH237493   1.602   3.838  29.376
 4433TIP3    H137494   1.653   3.879  29.154
 4433TIP3    H237495   1.509   3.866  29.319
 4434TIP3   OH237496   1.757   3.921  28.746
 4434TIP3    H137497   1.827   3.871  28.608
 4434TIP3    H237498   1.806   4.005  28.803
 4435TIP3   OH237499   0.326   3.830  28.641
 4435TIP3    H137500   0.241   3.810  28.500
 4435TIP3    H237501   0.374   3.746  28.596
 4436TIP3   OH237502   0.221   3.835  27.576
 4436TIP3    H137503   0.226   3.875  27.312
 4436TIP3    H237504   0.176   3.905  27.738
 4437TIP3   OH237505   0.732   3.790  28.695
 4437TIP3    H137506   0.811   3.837  28.605
 4437TIP3    H237507   0.740   3.792  28.983
 4438TIP3   OH237508   1.346   3.868  29.106
 4438TIP3    H137509   1.315   3.893  28.845
 4438TIP3    H237510   1.301   3.781  29.148
 4439TIP3   OH237511   1.441   3.867  27.990
 4439TIP3    H137512   1.359   3.919  28.008
 4439TIP3    H237513   1.412   3.774  28.032
 4440TIP3   OH237514   0.196   5.465  27.783
 4440TIP3    H137515   0.100   5.475  27.747
 4440TIP3    H237516   0.223   5.554  27.687
 4441TIP3   OH237517   0.306   4.010  26.964
 4441TIP3    H137518   0.376   3.961  26.823
 4441TIP3    H237519   0.343   4.019  27.231
 4442TIP3   OH237520   0.871   4.066  27.630
 4442TIP3    H137521   0.915   4.010  27.831
 4442TIP3    H237522   0.882   4.152  27.765
 4443TIP3   OH237523   1.067   5.567  27.264
 4443TIP3    H137524   1.161   5.576  27.186
 4443TIP3    H237525   1.039   5.512  27.033
 4444TIP3   OH237526   1.707   5.474  28.125
 4444TIP3    H137527   1.683   5.395  27.960
 4444TIP3    H237528   1.707   5.545  27.921
 4445TIP3   OH237529   0.323   5.469  26.874
 4445TIP3    H137530   0.307   5.511  27.129
 4445TIP3    H237531   0.417   5.448  26.892
 4446TIP3   OH237532   3.104   4.784  28.629
 4446TIP3    H137533   3.100   4.880  28.680
 4446TIP3    H237534   3.020   4.771  28.494
 4447TIP3   OH237535   2.984   4.686  29.652
 4447TIP3    H137536   2.981   4.637  29.904
 4447TIP3    H237537   2.924   4.634  29.484
 4448TIP3   OH237538   3.272   4.979  29.160
 4448TIP3    H137539   3.254   4.903  29.343
 4448TIP3    H237540   3.313   5.043  29.349
 4449TIP3   OH237541   2.316   5.121  29.652
 4449TIP3    H137542   2.295   5.026  29.622
 4449TIP3    H237543   2.413   5.121  29.616
 4450TIP3   OH237544   1.994   4.420  28.449
 4450TIP3    H137545   1.972   4.513  28.485
 4450TIP3    H237546   1.914   4.387  28.317
 4451TIP3   OH237547   2.050   4.682  28.941
 4451TIP3    H137548   2.090   4.608  29.094
 4451TIP3    H237549   2.126   4.738  28.869
 4452TIP3   OH237550   3.057   5.535  29.307
 4452TIP3    H137551   3.119   5.482  29.142
 4452TIP3    H237552   3.014   5.461  29.439
 4453TIP3   OH237553   2.850   4.929  30.039
 4453TIP3    H137554   2.902   4.871  29.865
 4453TIP3    H237555   2.912   4.944  30.258
 4454TIP3   OH237556   3.125   4.385  29.949
 4454TIP3    H137557   3.152   4.291  29.976
 4454TIP3    H237558   3.132   4.396  29.661
 4455TIP3   OH237559   2.481   4.161  29.130
 4455TIP3    H137560   2.496   4.240  28.959
 4455TIP3    H237561   2.421   4.110  28.953
 4456TIP3   OH237562   3.184   4.225  28.641
 4456TIP3    H137563   3.240   4.179  28.845
 4456TIP3    H237564   3.254   4.278  28.515
 4457TIP3   OH237565   2.107   4.420  29.325
 4457TIP3    H137566   2.167   4.355  29.454
 4457TIP3    H237567   2.111   4.389  29.046
 4458TIP3   OH237568   2.599   4.577  29.133
 4458TIP3    H137569   2.671   4.523  29.247
 4458TIP3    H237570   2.545   4.508  28.998
 4459TIP3   OH237571   3.016   5.016  28.314
 4459TIP3    H137572   3.003   5.015  28.026
 4459TIP3    H237573   3.005   5.113  28.359
 4460TIP3   OH237574   3.367   4.153  29.160
 4460TIP3    H137575   3.307   4.128  29.385
 4460TIP3    H237576   3.454   4.126  29.268
 4461TIP3   OH237577   2.304   4.271  29.682
 4461TIP3    H137578   2.334   4.364  29.685
 4461TIP3    H237579   2.351   4.236  29.448
 4462TIP3   OH237580   2.041   4.990  27.867
 4462TIP3    H137581   2.033   5.044  27.621
 4462TIP3    H237582   2.054   5.060  28.065
 4463TIP3   OH237583   3.396   5.139  29.670
 4463TIP3    H137584   3.383   5.074  29.886
 4463TIP3    H237585   3.442   5.207  29.817
 4464TIP3   OH237586   2.723   3.839  29.439
 4464TIP3    H137587   2.746   3.746  29.484
 4464TIP3    H237588   2.630   3.845  29.538
 4465TIP3   OH237589   3.197   5.372  28.863
 4465TIP3    H137590   3.242   5.290  28.782
 4465TIP3    H237591   3.269   5.437  28.800
 4466TIP3   OH237592   3.356   5.165  28.524
 4466TIP3    H137593   3.343   5.103  28.302
 4466TIP3    H237594   3.341   5.106  28.752
 4467TIP3   OH237595   2.943   4.704  27.864
 4467TIP3    H137596   2.898   4.787  27.804
 4467TIP3    H237597   3.032   4.715  27.747
 4468TIP3   OH237598   2.981   4.596  26.958
 4468TIP3    H137599   3.041   4.629  27.171
 4468TIP3    H237600   3.006   4.502  26.949
 4469TIP3   OH237601   3.324   4.688  28.191
 4469TIP3    H137602   3.256   4.721  28.383
 4469TIP3    H237603   3.394   4.652  28.368
 4470TIP3   OH237604   2.468   4.764  28.731
 4470TIP3    H137605   2.429   4.717  28.503
 4470TIP3    H237606   2.530   4.698  28.845
 4471TIP3   OH237607   2.605   5.147  29.565
 4471TIP3    H137608   2.598   5.120  29.286
 4471TIP3    H237609   2.662   5.075  29.667
 4472TIP3   OH237610   2.445   4.590  29.805
 4472TIP3    H137611   2.496   4.597  29.556
 4472TIP3    H237612   2.468   4.674  29.937
 4473TIP3   OH237613   3.182   4.684  27.498
 4473TIP3    H137614   3.241   4.697  27.732
 4473TIP3    H237615   3.242   4.709  27.273
 4474TIP3   OH237616   2.980   5.277  28.386
 4474TIP3    H137617   3.043   5.312  28.587
 4474TIP3    H237618   2.928   5.355  28.320
 4475TIP3   OH237619   3.570   3.788  27.597
 4475TIP3    H137620   3.476   3.813  27.621
 4475TIP3    H237621   3.613   3.874  27.528
 4476TIP3   OH237622   2.320   4.667  28.059
 4476TIP3    H137623   2.305   4.749  27.903
 4476TIP3    H237624   2.297   4.599  27.867
 4477TIP3   OH237625   3.684   5.234  27.036
 4477TIP3    H137626   3.704   5.330  27.066
 4477TIP3    H237627   3.774   5.197  27.072
 4478TIP3   OH237628   1.961   5.244  29.535
 4478TIP3    H137629   2.019   5.175  29.643
 4478TIP3    H237630   1.916   5.272  29.778
 4479TIP3   OH237631   2.937   5.586  28.047
 4479TIP3    H137632   2.932   5.601  27.759
 4479TIP3    H237633   2.913   5.676  28.146
 4480TIP3   OH237634   2.287   5.460  28.584
 4480TIP3    H137635   2.304   5.442  28.869
 4480TIP3    H237636   2.195   5.427  28.554
 4481TIP3   OH237637   3.229   5.517  27.114
 4481TIP3    H137638   3.282   5.442  27.015
 4481TIP3    H237639   3.232   5.503  27.405
 4482TIP3   OH237640   3.192   5.517  27.945
 4482TIP3    H137641   3.096   5.531  28.005
 4482TIP3    H237642   3.211   5.447  28.137
 4483TIP3   OH237643   2.462   3.918  29.709
 4483TIP3    H137644   2.385   3.915  29.529
 4483TIP3    H237645   2.457   4.010  29.787
 4484TIP3   OH237646   3.353   4.777  26.958
 4484TIP3    H137647   3.336   4.796  26.673
 4484TIP3    H237648   3.449   4.791  26.967
 4485TIP3   OH237649   2.905   4.132  26.982
 4485TIP3    H137650   2.865   4.130  27.246
 4485TIP3    H237651   2.849   4.066  26.850
 4486TIP3   OH237652   2.478   4.387  28.713
 4486TIP3    H137653   2.384   4.361  28.662
 4486TIP3    H237654   2.515   4.387  28.437
 4487TIP3   OH237655   3.040   4.488  28.212
 4487TIP3    H137656   3.002   4.565  28.062
 4487TIP3    H237657   3.099   4.453  28.005
 4488TIP3   OH237658   3.099   4.441  29.124
 4488TIP3    H137659   3.093   4.509  28.914
 4488TIP3    H237660   3.115   4.363  28.956
 4489TIP3   OH237661   2.558   4.174  26.772
 4489TIP3    H137662   2.509   4.133  26.994
 4489TIP3    H237663   2.486   4.207  26.604
 4490TIP3   OH237664   1.896   4.144  28.917
 4490TIP3    H137665   1.960   4.148  29.139
 4490TIP3    H237666   1.950   4.168  28.686
 4491TIP3   OH237667   2.007   4.204  27.417
 4491TIP3    H137668   2.071   4.247  27.234
 4491TIP3    H237669   1.944   4.278  27.459
 4492TIP3   OH237670   2.767   4.169  28.848
 4492TIP3    H137671   2.686   4.165  29.007
 4492TIP3    H237672   2.829   4.126  29.034
 4493TIP3   OH237673   2.218   4.291  28.668
 4493TIP3    H137674   2.144   4.338  28.533
 4493TIP3    H237675   2.222   4.203  28.536
 4494TIP3   OH237676   2.562   4.366  27.951
 4494TIP3    H137677   2.650   4.352  27.840
 4494TIP3    H237678   2.518   4.415  27.738
 4495TIP3   OH237679   3.186   4.133  29.748
 4495TIP3    H137680   3.185   4.108  30.030
 4495TIP3    H237681   3.092   4.121  29.682
 4496TIP3   OH237682   2.444   4.473  27.132
 4496TIP3    H137683   2.413   4.411  26.931
 4496TIP3    H237684   2.528   4.499  27.006
 4497TIP3   OH237685   2.846   4.425  29.529
 4497TIP3    H137686   2.913   4.429  29.316
 4497TIP3    H237687   2.894   4.373  29.727
 4498TIP3   OH237688   2.306   4.049  28.455
 4498TIP3    H137689   2.244   3.986  28.581
 4498TIP3    H237690   2.358   3.985  28.302
 4499TIP3   OH237691   2.784   4.921  27.762
 4499TIP3    H137692   2.708   4.874  27.639
 4499TIP3    H237693   2.745   4.942  28.029
 4500TIP3   OH237694   3.145   4.178  27.255
 4500TIP3    H137695   3.054   4.175  27.138
 4500TIP3    H237696   3.160   4.274  27.282
 4501TIP3   OH237697   3.221   4.412  27.588
 4501TIP3    H137698   3.285   4.380  27.786
 4501TIP3    H237699   3.258   4.499  27.522
 4502TIP3   OH237700   2.263   4.858  29.478
 4502TIP3    H137701   2.283   4.852  29.196
 4502TIP3    H237702   2.348   4.835  29.601
 4503TIP3   OH237703   2.983   5.062  27.453
 4503TIP3    H137704   2.946   5.152  27.507
 4503TIP3    H237705   2.910   5.003  27.540
 4504TIP3   OH237706   3.697   4.380  27.603
 4504TIP3    H137707   3.653   4.383  27.339
 4504TIP3    H237708   3.730   4.472  27.618
 4505TIP3   OH237709   3.515   5.275  27.684
 4505TIP3    H137710   3.500   5.206  27.882
 4505TIP3    H237711   3.562   5.230  27.468
 4506TIP3   OH237712   3.252   4.762  29.691
 4506TIP3    H137713   3.159   4.729  29.661
 4506TIP3    H237714   3.301   4.700  29.520
 4507TIP3   OH237715   2.525   5.211  28.713
 4507TIP3    H137716   2.549   5.292  28.563
 4507TIP3    H237717   2.430   5.210  28.656
 4508TIP3   OH237718   2.134   4.686  27.132
 4508TIP3    H137719   2.177   4.739  27.342
 4508TIP3    H237720   2.037   4.698  27.177
 4509TIP3   OH237721   2.636   4.958  28.434
 4509TIP3    H137722   2.608   5.041  28.563
 4509TIP3    H237723   2.597   4.889  28.605
 4510TIP3   OH237724   2.551   5.449  28.356
 4510TIP3    H137725   2.454   5.460  28.386
 4510TIP3    H237726   2.581   5.533  28.479
 4511TIP3   OH237727   3.311   5.094  27.057
 4511TIP3    H137728   3.325   5.056  27.324
 4511TIP3    H237729   3.219   5.070  27.027
 4512TIP3   OH237730   3.735   5.502  27.180
 4512TIP3    H137731   3.783   5.566  27.018
 4512TIP3    H237732   3.667   5.559  27.309
 4513TIP3   OH237733   3.383   4.952  27.759
 4513TIP3    H137734   3.349   4.870  27.873
 4513TIP3    H237735   3.480   4.934  27.750
 4514TIP3   OH237736   2.707   5.216  26.664
 4514TIP3    H137737   2.691   5.163  26.427
 4514TIP3    H237738   2.649   5.171  26.859
 4515TIP3   OH237739   2.578   5.137  27.351
 4515TIP3    H137740   2.655   5.098  27.486
 4515TIP3    H237741   2.589   5.231  27.435
 4516TIP3   OH237742   2.264   4.878  27.546
 4516TIP3    H137743   2.180   4.907  27.675
 4516TIP3    H237744   2.292   4.960  27.411
 4517TIP3   OH237745   3.112   4.077  28.008
 4517TIP3    H137746   3.129   4.123  27.753
 4517TIP3    H237747   3.144   4.140  28.209
 4518TIP3   OH237748   2.883   5.317  27.516
 4518TIP3    H137749   2.793   5.348  27.591
 4518TIP3    H237750   2.930   5.402  27.495
 4519TIP3   OH237751   2.829   4.271  28.104
 4519TIP3    H137752   2.888   4.347  28.164
 4519TIP3    H237753   2.793   4.246  28.368
 4520TIP3   OH237754   2.895   3.956  28.320
 4520TIP3    H137755   2.864   4.025  28.503
 4520TIP3    H237756   2.975   4.003  28.209
 4521TIP3   OH237757   2.615   5.384  27.561
 4521TIP3    H137758   2.626   5.463  27.384
 4521TIP3    H237759   2.578   5.428  27.795
 4522TIP3   OH237760   2.458   4.075  27.465
 4522TIP3    H137761   2.432   4.141  27.663
 4522TIP3    H237762   2.553   4.064  27.534
 4523TIP3   OH237763   3.357   4.562  29.265
 4523TIP3    H137764   3.279   4.507  29.322
 4523TIP3    H237765   3.424   4.518  29.442
 4524TIP3   OH237766   2.308   5.128  27.117
 4524TIP3    H137767   2.383   5.159  27.279
 4524TIP3    H237768   2.358   5.079  26.913
 4525TIP3   OH237769   2.132   4.406  26.922
 4525TIP3    H137770   2.170   4.488  27.036
 4525TIP3    H237771   2.050   4.439  26.802
 4526TIP3   OH237772   3.482   5.493  29.895
 4526TIP3    H137773   3.493   5.569  29.706
 4526TIP3    H237774   3.567   5.491  30.030
 4527TIP3   OH237775   2.220   3.904  29.373
 4527TIP3    H137776   2.207   3.867  29.100
 4527TIP3    H237777   2.209   3.823  29.532
 4528TIP3   OH237778   2.089   5.247  28.338
 4528TIP3    H137779   2.011   5.299  28.413
 4528TIP3    H237780   2.114   5.294  28.092
 4529TIP3   OH237781   2.924   5.406  26.625
 4529TIP3    H137782   2.873   5.326  26.697
 4529TIP3    H237783   3.005   5.368  26.499
 4530TIP3   OH237784   3.373   5.337  26.667
 4530TIP3    H137785   3.384   5.264  26.862
 4530TIP3    H237786   3.459   5.339  26.532
 4531TIP3   OH237787   2.454   4.950  26.634
 4531TIP3    H137788   2.481   4.912  26.886
 4531TIP3    H237789   2.533   4.932  26.466
 4532TIP3   OH237790   3.020   5.076  26.601
 4532TIP3    H137791   2.984   5.060  26.871
 4532TIP3    H237792   3.021   4.983  26.499
 4533TIP3   OH237793   2.583   4.769  27.417
 4533TIP3    H137794   2.513   4.716  27.543
 4533TIP3    H237795   2.626   4.702  27.249
 4534TIP3   OH237796   2.701   4.586  26.811
 4534TIP3    H137797   2.698   4.611  26.526
 4534TIP3    H237798   2.798   4.587  26.859
 4535TIP3   OH237799   3.622   4.790  26.652
 4535TIP3    H137800   3.602   4.759  26.379
 4535TIP3    H237801   3.616   4.889  26.619
 4536TIP3   OH237802   2.669   5.628  27.297
 4536TIP3    H137803   2.767   5.626  27.294
 4536TIP3    H237804   2.655   5.689  27.069
 4537TIP3   OH237805   2.028   5.097  27.090
 4537TIP3    H137806   2.126   5.105  27.051
 4537TIP3    H237807   2.004   5.036  26.865
 4538TIP3   OH237808   1.923   5.597  28.428
 4538TIP3    H137809   1.837   5.552  28.365
 4538TIP3    H237810   1.942   5.555  28.689
 4539TIP3   OH237811   1.984   5.446  29.046
 4539TIP3    H137812   1.958   5.359  29.160
 4539TIP3    H237813   2.015   5.492  29.286
 4540TIP3   OH237814   3.653   4.895  27.789
 4540TIP3    H137815   3.742   4.935  27.825
 4540TIP3    H237816   3.651   4.832  28.014
 4541TIP3   OH237817   3.691   4.726  28.431
 4541TIP3    H137818   3.623   4.672  28.566
 4541TIP3    H237819   3.769   4.720  28.608
 4542TIP3   OH237820   3.722   4.992  29.892
 4542TIP3    H137821   3.781   4.924  29.775
 4542TIP3    H237822   3.707   5.056  29.676
 4543TIP3   OH237823   3.753   4.676  27.297
 4543TIP3    H137824   3.685   4.693  27.093
 4543TIP3    H237825   3.731   4.747  27.486
 4544TIP3   OH237826   3.575   4.401  26.826
 4544TIP3    H137827   3.579   4.460  26.598
 4544TIP3    H237828   3.545   4.316  26.706
 4545TIP3   OH237829   3.507   4.536  28.617
 4545TIP3    H137830   3.470   4.454  28.500
 4545TIP3    H237831   3.459   4.540  28.875
 4546TIP3   OH237832   1.962   4.739  29.664
 4546TIP3    H137833   2.003   4.732  29.397
 4546TIP3    H237834   2.042   4.735  29.835
 4547TIP3   OH237835   3.509   4.142  26.589
 4547TIP3    H137836   3.548   4.101  26.829
 4547TIP3    H237837   3.416   4.117  26.598
 4548TIP3   OH237838   3.420   4.329  28.158
 4548TIP3    H137839   3.438   4.233  28.203
 4548TIP3    H237840   3.500   4.346  27.999
 4549TIP3   OH237841   3.517   4.398  29.658
 4549TIP3    H137842   3.609   4.374  29.607
 4549TIP3    H237843   3.487   4.311  29.760
 4550TIP3   OH237844   3.503   4.079  28.167
 4550TIP3    H137845   3.536   4.031  28.398
 4550TIP3    H237846   3.457   4.008  28.023
 4551TIP3   OH237847   2.063   4.122  29.595
 4551TIP3    H137848   2.107   4.037  29.529
 4551TIP3    H237849   2.132   4.165  29.757
 4552TIP3   OH237850   1.907   4.396  29.916
 4552TIP3    H137851   1.952   4.358  29.679
 4552TIP3    H237852   1.942   4.486  29.907
 4553TIP3   OH237853   3.692   4.024  27.177
 4553TIP3    H137854   3.730   3.977  26.943
 4553TIP3    H237855   3.770   4.071  27.282
 4554TIP3   OH237856   1.932   4.040  28.020
 4554TIP3    H137857   1.838   4.061  28.035
 4554TIP3    H237858   1.960   4.094  27.792
 4555TIP3   OH237859   3.391   5.541  28.668
 4555TIP3    H137860   3.472   5.513  28.524
 4555TIP3    H237861   3.424   5.608  28.851
 4556TIP3   OH237862   2.157   5.542  29.676
 4556TIP3    H137863   2.140   5.512  29.949
 4556TIP3    H237864   2.220   5.474  29.577
 4557TIP3   OH237865   2.336   5.375  29.352
 4557TIP3    H137866   2.296   5.285  29.337
 4557TIP3    H237867   2.423   5.354  29.457
 4558TIP3   OH237868   2.595   5.434  29.706
 4558TIP3    H137869   2.615   5.387  29.457
 4558TIP3    H237870   2.636   5.370  29.889
 4559TIP3   OH237871   2.945   4.040  29.376
 4559TIP3    H137872   2.886   3.967  29.457
 4559TIP3    H237873   3.026   3.989  29.322
 4560TIP3   OH237874   3.488   3.840  29.376
 4560TIP3    H137875   3.539   3.881  29.151
 4560TIP3    H237876   3.395   3.863  29.313
 4561TIP3   OH237877   3.639   3.922  28.749
 4561TIP3    H137878   3.704   3.868  28.602
 4561TIP3    H237879   3.692   4.003  28.812
 4562TIP3   OH237880   2.175   3.825  28.629
 4562TIP3    H137881   2.094   3.805  28.476
 4562TIP3    H237882   2.218   3.736  28.623
 4563TIP3   OH237883   2.089   3.836  27.480
 4563TIP3    H137884   2.114   3.905  27.288
 4563TIP3    H237885   2.018   3.881  27.627
 4564TIP3   OH237886   2.612   3.803  28.680
 4564TIP3    H137887   2.686   3.835  28.524
 4564TIP3    H237888   2.647   3.813  28.950
 4565TIP3   OH237889   3.232   3.864  29.103
 4565TIP3    H137890   3.211   3.882  28.827
 4565TIP3    H237891   3.182   3.782  29.163
 4566TIP3   OH237892   3.334   3.869  27.960
 4566TIP3    H137893   3.251   3.919  27.984
 4566TIP3    H237894   3.306   3.777  28.023
 4567TIP3   OH237895   2.066   5.439  27.768
 4567TIP3    H137896   1.969   5.443  27.747
 4567TIP3    H237897   2.087   5.526  27.651
 4568TIP3   OH237898   2.190   4.026  26.937
 4568TIP3    H137899   2.252   3.967  26.796
 4568TIP3    H237900   2.242   4.049  27.174
 4569TIP3   OH237901   2.739   4.067  27.648
 4569TIP3    H137902   2.773   4.001  27.840
 4569TIP3    H237903   2.768   4.149  27.786
 4570TIP3   OH237904   2.956   5.576  27.225
 4570TIP3    H137905   3.052   5.576  27.174
 4570TIP3    H237906   2.929   5.519  26.997
 4571TIP3   OH237907   3.591   5.475  28.137
 4571TIP3    H137908   3.564   5.399  27.966
 4571TIP3    H237909   3.595   5.547  27.939
 4572TIP3   OH237910   2.191   5.527  26.820
 4572TIP3    H137911   2.172   5.551  27.096
 4572TIP3    H237912   2.260   5.459  26.859
 4573TIP3   OH237913   4.997   4.787  28.620
 4573TIP3    H137914   4.995   4.881  28.704
 4573TIP3    H237915   4.908   4.777  28.509
 4574TIP3   OH237916   4.852   4.669  29.646
 4574TIP3    H137917   4.865   4.658  29.934
 4574TIP3    H237918   4.792   4.596  29.580
 4575TIP3   OH237919   5.162   4.986  29.115
 4575TIP3    H137920   5.152   4.904  29.271
 4575TIP3    H237921   5.204   5.044  29.319
 4576TIP3   OH237922   4.215   5.113  29.691
 4576TIP3    H137923   4.198   5.020  29.616
 4576TIP3    H237924   4.311   5.121  29.652
 4577TIP3   OH237925   3.871   4.394  28.386
 4577TIP3    H137926   3.870   4.484  28.491
 4577TIP3    H237927   3.779   4.386  28.296
 4578TIP3   OH237928   3.939   4.681  29.010
 4578TIP3    H137929   3.974   4.603  29.154
 4578TIP3    H237930   4.003   4.750  29.085
 4579TIP3   OH237931   4.933   5.543  29.310
 4579TIP3    H137932   4.993   5.485  29.157
 4579TIP3    H237933   4.901   5.476  29.493
 4580TIP3   OH237934   4.720   4.976  29.940
 4580TIP3    H137935   4.757   4.925  29.721
 4580TIP3    H237936   4.783   4.940  30.144
 4581TIP3   OH237937   5.024   4.385  29.952
 4581TIP3    H137938   5.035   4.290  29.988
 4581TIP3    H237939   5.017   4.393  29.661
 4582TIP3   OH237940   4.363   4.164  29.124
 4582TIP3    H137941   4.377   4.239  28.938
 4582TIP3    H237942   4.317   4.102  28.947
 4583TIP3   OH237943   5.074   4.221  28.653
 4583TIP3    H137944   5.130   4.171  28.845
 4583TIP3    H237945   5.143   4.276  28.530
 4584TIP3   OH237946   3.979   4.407  29.274
 4584TIP3    H137947   4.042   4.350  29.418
 4584TIP3    H237948   4.002   4.384  28.995
 4585TIP3   OH237949   4.490   4.579  29.148
 4585TIP3    H137950   4.560   4.522  29.259
 4585TIP3    H237951   4.442   4.512  28.983
 4586TIP3   OH237952   4.907   5.028  28.299
 4586TIP3    H137953   4.888   5.020  28.011
 4586TIP3    H237954   4.891   5.124  28.338
 4587TIP3   OH237955   5.257   4.138  29.148
 4587TIP3    H137956   5.198   4.120  29.379
 4587TIP3    H237957   5.344   4.127  29.268
 4588TIP3   OH237958   4.183   4.274  29.670
 4588TIP3    H137959   4.219   4.364  29.697
 4588TIP3    H237960   4.231   4.242  29.433
 4589TIP3   OH237961   3.918   4.986  27.804
 4589TIP3    H137962   3.910   5.040  27.558
 4589TIP3    H237963   3.932   5.054  28.008
 4590TIP3   OH237964   5.288   5.130  29.682
 4590TIP3    H137965   5.247   5.077  29.898
 4590TIP3    H237966   5.349   5.181  29.841
 4591TIP3   OH237967   4.607   3.835  29.457
 4591TIP3    H137968   4.630   3.740  29.478
 4591TIP3    H237969   4.517   3.842  29.574
 4592TIP3   OH237970   5.094   5.387  28.920
 4592TIP3    H137971   5.129   5.304  28.803
 4592TIP3    H237972   5.169   5.447  28.848
 4593TIP3   OH237973   5.229   5.180  28.527
 4593TIP3    H137974   5.206   5.122  28.302
 4593TIP3    H237975   5.222   5.116  28.752
 4594TIP3   OH237976   4.829   4.693  27.846
 4594TIP3    H137977   4.784   4.781  27.837
 4594TIP3    H237978   4.917   4.716  27.735
 4595TIP3   OH237979   4.871   4.597  26.943
 4595TIP3    H137980   4.931   4.642  27.129
 4595TIP3    H237981   4.880   4.506  27.039
 4596TIP3   OH237982   5.223   4.701  28.224
 4596TIP3    H137983   5.146   4.734  28.383
 4596TIP3    H237984   5.281   4.665  28.431
 4597TIP3   OH237985   4.344   4.758  28.728
 4597TIP3    H137986   4.307   4.711  28.494
 4597TIP3    H237987   4.410   4.695  28.833
 4598TIP3   OH237988   4.494   5.147  29.613
 4598TIP3    H137989   4.499   5.114  29.340
 4598TIP3    H237990   4.549   5.079  29.751
 4599TIP3   OH237991   4.346   4.587  29.829
 4599TIP3    H137992   4.388   4.591  29.562
 4599TIP3    H237993   4.373   4.673  29.940
 4600TIP3   OH237994   5.081   4.680  27.537
 4600TIP3    H137995   5.146   4.701  27.753
 4600TIP3    H237996   5.135   4.706  27.297
 4601TIP3   OH237997   4.862   5.287  28.395
 4601TIP3    H137998   4.910   5.310  28.635
 4601TIP3    H237999   4.812   5.367  28.338
 4602TIP3   OH238000   5.446   3.781  27.582
 4602TIP3    H138001   5.354   3.796  27.672
 4602TIP3    H238002   5.462   3.857  27.402
 4603TIP3   OH238003   4.205   4.660  28.074
 4603TIP3    H138004   4.186   4.744  27.933
 4603TIP3    H238005   4.188   4.594  27.867
 4604TIP3   OH238006   5.581   5.232  27.081
 4604TIP3    H138007   5.608   5.327  27.075
 4604TIP3    H238008   5.669   5.188  27.087
 4605TIP3   OH238009   3.859   5.244  29.583
 4605TIP3    H138010   3.935   5.191  29.679
 4605TIP3    H238011   3.836   5.299  29.808
 4606TIP3   OH238012   4.809   5.573  28.065
 4606TIP3    H138013   4.814   5.586  27.774
 4606TIP3    H238014   4.798   5.665  28.161
 4607TIP3   OH238015   4.166   5.470  28.572
 4607TIP3    H138016   4.189   5.453  28.854
 4607TIP3    H238017   4.080   5.424  28.548
 4608TIP3   OH238018   5.113   5.524  27.156
 4608TIP3    H138019   5.163   5.445  27.054
 4608TIP3    H238020   5.121   5.513  27.447
 4609TIP3   OH238021   5.072   5.522  27.984
 4609TIP3    H138022   4.978   5.544  28.035
 4609TIP3    H238023   5.083   5.442  28.146
 4610TIP3   OH238024   4.351   3.926  29.742
 4610TIP3    H138025   4.283   3.916  29.529
 4610TIP3    H238026   4.329   4.015  29.829
 4611TIP3   OH238027   5.239   4.777  26.979
 4611TIP3    H138028   5.220   4.785  26.691
 4611TIP3    H238029   5.336   4.793  26.976
 4612TIP3   OH238030   4.795   4.137  26.985
 4612TIP3    H138031   4.753   4.143  27.249
 4612TIP3    H238032   4.732   4.077  26.859
 4613TIP3   OH238033   4.384   4.395  28.704
 4613TIP3    H138034   4.288   4.406  28.653
 4613TIP3    H238035   4.414   4.385  28.419
 4614TIP3   OH238036   4.925   4.491  28.251
 4614TIP3    H138037   4.885   4.563  28.086
 4614TIP3    H238038   4.982   4.451  28.050
 4615TIP3   OH238039   4.990   4.437  29.160
 4615TIP3    H138040   4.970   4.512  28.980
 4615TIP3    H238041   5.008   4.366  28.965
 4616TIP3   OH238042   4.432   4.183  26.793
 4616TIP3    H138043   4.382   4.130  26.994
 4616TIP3    H238044   4.362   4.211  26.607
 4617TIP3   OH238045   3.773   4.144  28.923
 4617TIP3    H138046   3.831   4.152  29.157
 4617TIP3    H238047   3.831   4.174  28.704
 4618TIP3   OH238048   3.886   4.201  27.429
 4618TIP3    H138049   3.953   4.239  27.249
 4618TIP3    H238050   3.827   4.279  27.462
 4619TIP3   OH238051   4.659   4.161  28.881
 4619TIP3    H138052   4.575   4.156  29.028
 4619TIP3    H238053   4.722   4.130  29.085
 4620TIP3   OH238054   4.119   4.316  28.611
 4620TIP3    H138055   4.035   4.334  28.467
 4620TIP3    H238056   4.150   4.235  28.476
 4621TIP3   OH238057   4.438   4.364  27.951
 4621TIP3    H138058   4.532   4.344  27.897
 4621TIP3    H238059   4.408   4.407  27.705
 4622TIP3   OH238060   5.075   4.121  29.766
 4622TIP3    H138061   5.069   4.121  30.057
 4622TIP3    H238062   4.980   4.113  29.700
 4623TIP3   OH238063   4.322   4.472  27.135
 4623TIP3    H138064   4.288   4.404  26.955
 4623TIP3    H238065   4.410   4.485  27.015
 4624TIP3   OH238066   4.727   4.422  29.520
 4624TIP3    H138067   4.805   4.412  29.343
 4624TIP3    H238068   4.762   4.395  29.781
 4625TIP3   OH238069   4.188   4.053  28.455
 4625TIP3    H138070   4.126   3.990  28.584
 4625TIP3    H238071   4.237   3.989  28.299
 4626TIP3   OH238072   4.674   4.913  27.780
 4626TIP3    H138073   4.599   4.866  27.654
 4626TIP3    H238074   4.632   4.938  28.038
 4627TIP3   OH238075   5.046   4.176  27.258
 4627TIP3    H138076   4.960   4.181  27.117
 4627TIP3    H238077   5.060   4.272  27.315
 4628TIP3   OH238078   5.094   4.408  27.615
 4628TIP3    H138079   5.160   4.379  27.810
 4628TIP3    H238080   5.130   4.495  27.546
 4629TIP3   OH238081   4.150   4.855  29.415
 4629TIP3    H138082   4.180   4.865  29.142
 4629TIP3    H238083   4.229   4.820  29.547
 4630TIP3   OH238084   4.868   5.054  27.441
 4630TIP3    H138085   4.824   5.141  27.462
 4630TIP3    H238086   4.797   4.994  27.534
 4631TIP3   OH238087   5.590   4.363  27.615
 4631TIP3    H138088   5.531   4.369  27.381
 4631TIP3    H238089   5.627   4.452  27.618
 4632TIP3   OH238090   5.390   5.292  27.615
 4632TIP3    H138091   5.379   5.224  27.819
 4632TIP3    H238092   5.462   5.256  27.447
 4633TIP3   OH238093   5.147   4.750  29.697
 4633TIP3    H138094   5.049   4.748  29.733
 4633TIP3    H238095   5.160   4.682  29.490
 4634TIP3   OH238096   4.374   5.203  28.788
 4634TIP3    H138097   4.426   5.285  28.782
 4634TIP3    H238098   4.308   5.223  28.584
 4635TIP3   OH238099   4.030   4.698  27.069
 4635TIP3    H138100   4.073   4.757  27.264
 4635TIP3    H238101   3.934   4.708  27.126
 4636TIP3   OH238102   4.529   4.963  28.455
 4636TIP3    H138103   4.486   5.042  28.566
 4636TIP3    H238104   4.484   4.891  28.596
 4637TIP3   OH238105   4.426   5.446  28.332
 4637TIP3    H138106   4.330   5.456  28.371
 4637TIP3    H238107   4.456   5.532  28.443
 4638TIP3   OH238108   5.202   5.085  27.057
 4638TIP3    H138109   5.214   5.055  27.333
 4638TIP3    H238110   5.109   5.063  27.024
 4639TIP3   OH238111   5.640   5.511  27.186
 4639TIP3    H138112   5.710   5.577  27.141
 4639TIP3    H238113   5.570   5.568  27.297
 4640TIP3   OH238114   5.268   4.959  27.783
 4640TIP3    H138115   5.240   4.872  27.888
 4640TIP3    H238116   5.364   4.945  27.750
 4641TIP3   OH238117   4.594   5.230  26.643
 4641TIP3    H138118   4.581   5.166  26.424
 4641TIP3    H238119   4.528   5.198  26.838
 4642TIP3   OH238120   4.466   5.137  27.378
 4642TIP3    H138121   4.539   5.102  27.537
 4642TIP3    H238122   4.473   5.233  27.444
 4643TIP3   OH238123   4.150   4.874  27.555
 4643TIP3    H138124   4.065   4.911  27.645
 4643TIP3    H238125   4.191   4.951  27.429
 4644TIP3   OH238126   4.977   4.097  28.002
 4644TIP3    H138127   5.016   4.130  27.750
 4644TIP3    H238128   5.023   4.150  28.206
 4645TIP3   OH238129   4.756   5.307  27.489
 4645TIP3    H138130   4.668   5.346  27.561
 4645TIP3    H238131   4.811   5.387  27.474
 4646TIP3   OH238132   4.698   4.283  28.170
 4646TIP3    H138133   4.760   4.356  28.230
 4646TIP3    H238134   4.685   4.240  28.434
 4647TIP3   OH238135   4.780   3.953  28.317
 4647TIP3    H138136   4.747   4.022  28.494
 4647TIP3    H238137   4.864   3.996  28.224
 4648TIP3   OH238138   4.499   5.390  27.549
 4648TIP3    H138139   4.511   5.469  27.375
 4648TIP3    H238140   4.462   5.433  27.789
 4649TIP3   OH238141   4.335   4.078  27.480
 4649TIP3    H138142   4.327   4.157  27.648
 4649TIP3    H238143   4.430   4.058  27.516
 4650TIP3   OH238144   5.251   4.549  29.244
 4650TIP3    H138145   5.173   4.502  29.340
 4650TIP3    H238146   5.316   4.519  29.445
 4651TIP3   OH238147   4.189   5.122  27.114
 4651TIP3    H138148   4.264   5.154  27.273
 4651TIP3    H238149   4.235   5.073  26.904
 4652TIP3   OH238150   4.011   4.408  26.946
 4652TIP3    H138151   4.053   4.487  27.063
 4652TIP3    H238152   3.935   4.444  26.805
 4653TIP3   OH238153   5.358   5.489  29.880
 4653TIP3    H138154   5.379   5.569  29.718
 4653TIP3    H238155   5.438   5.477  30.039
 4654TIP3   OH238156   4.118   3.902  29.367
 4654TIP3    H138157   4.099   3.867  29.094
 4654TIP3    H238158   4.099   3.821  29.520
 4655TIP3   OH238159   3.975   5.254  28.347
 4655TIP3    H138160   3.896   5.306  28.410
 4655TIP3    H238161   4.002   5.301  28.104
 4656TIP3   OH238162   4.815   5.406  26.631
 4656TIP3    H138163   4.758   5.328  26.694
 4656TIP3    H238164   4.895   5.363  26.517
 4657TIP3   OH238165   5.256   5.340  26.706
 4657TIP3    H138166   5.274   5.270  26.904
 4657TIP3    H238167   5.335   5.336  26.538
 4658TIP3   OH238168   4.348   4.934  26.628
 4658TIP3    H138169   4.394   4.924  26.883
 4658TIP3    H238170   4.422   4.908  26.445
 4659TIP3   OH238171   4.906   5.070  26.580
 4659TIP3    H138172   4.871   5.057  26.850
 4659TIP3    H238173   4.912   4.975  26.490
 4660TIP3   OH238174   4.465   4.762  27.429
 4660TIP3    H138175   4.400   4.701  27.546
 4660TIP3    H238176   4.506   4.704  27.228
 4661TIP3   OH238177   4.587   4.581  26.817
 4661TIP3    H138178   4.578   4.604  26.535
 4661TIP3    H238179   4.685   4.584  26.847
 4662TIP3   OH238180   5.510   4.796  26.667
 4662TIP3    H138181   5.487   4.766  26.397
 4662TIP3    H238182   5.501   4.895  26.640
 4663TIP3   OH238183   4.548   5.622  27.222
 4663TIP3    H138184   4.644   5.623  27.264
 4663TIP3    H238185   4.542   5.676  26.982
 4664TIP3   OH238186   3.910   5.097  27.069
 4664TIP3    H138187   4.008   5.098  27.051
 4664TIP3    H238188   3.884   5.045  26.829
 4665TIP3   OH238189   3.797   5.608  28.437
 4665TIP3    H138190   3.717   5.557  28.371
 4665TIP3    H238191   3.828   5.558  28.674
 4666TIP3   OH238192   3.888   5.442  29.007
 4666TIP3    H138193   3.855   5.360  29.136
 4666TIP3    H238194   3.937   5.485  29.229
 4667TIP3   OH238195   5.543   4.890  27.741
 4667TIP3    H138196   5.629   4.933  27.807
 4667TIP3    H238197   5.536   4.826  27.963
 4668TIP3   OH238198   5.573   4.716  28.440
 4668TIP3    H138199   5.510   4.653  28.560
 4668TIP3    H238200   5.644   4.719  28.641
 4669TIP3   OH238201   5.607   4.989  29.805
 4669TIP3    H138202   5.685   4.937  29.715
 4669TIP3    H238203   5.598   5.061  29.616
 4670TIP3   OH238204   5.644   4.676  27.270
 4670TIP3    H138205   5.585   4.694  27.039
 4670TIP3    H238206   5.617   4.749  27.444
 4671TIP3   OH238207   5.436   4.390  26.820
 4671TIP3    H138208   5.471   4.455  26.625
 4671TIP3    H238209   5.410   4.319  26.634
 4672TIP3   OH238210   5.409   4.501  28.620
 4672TIP3    H138211   5.354   4.429  28.512
 4672TIP3    H238212   5.358   4.519  28.869
 4673TIP3   OH238213   3.861   4.769  29.736
 4673TIP3    H138214   3.892   4.740  29.472
 4673TIP3    H238215   3.939   4.748  29.904
 4674TIP3   OH238216   5.377   4.123  26.556
 4674TIP3    H138217   5.399   4.104  26.829
 4674TIP3    H238218   5.279   4.112  26.556
 4675TIP3   OH238219   5.290   4.316  28.152
 4675TIP3    H138220   5.326   4.225  28.206
 4675TIP3    H238221   5.368   4.351  28.008
 4676TIP3   OH238222   5.411   4.383  29.646
 4676TIP3    H138223   5.508   4.374  29.670
 4676TIP3    H238224   5.386   4.292  29.730
 4677TIP3   OH238225   5.393   4.055  28.143
 4677TIP3    H138226   5.427   4.010  28.386
 4677TIP3    H238227   5.338   3.985  28.029
 4678TIP3   OH238228   3.947   4.116  29.607
 4678TIP3    H138229   3.990   4.031  29.532
 4678TIP3    H238230   4.021   4.162  29.742
 4679TIP3   OH238231   3.792   4.394  29.922
 4679TIP3    H138232   3.829   4.345  29.694
 4679TIP3    H238233   3.833   4.481  29.883
 4680TIP3   OH238234   5.614   4.007  27.162
 4680TIP3    H138235   5.621   3.947  26.928
 4680TIP3    H238236   5.615   4.092  27.024
 4681TIP3   OH238237   3.802   4.026  27.981
 4681TIP3    H138238   3.713   4.062  28.020
 4681TIP3    H238239   3.838   4.092  27.792
 4682TIP3   OH238240   5.294   5.542  28.671
 4682TIP3    H138241   5.368   5.511  28.506
 4682TIP3    H238242   5.337   5.597  28.872
 4683TIP3   OH238243   4.040   5.538  29.682
 4683TIP3    H138244   4.065   5.547  29.967
 4683TIP3    H238245   4.117   5.487  29.577
 4684TIP3   OH238246   4.228   5.390  29.328
 4684TIP3    H138247   4.224   5.294  29.361
 4684TIP3    H238248   4.315   5.408  29.457
 4685TIP3   OH238249   4.475   5.436  29.664
 4685TIP3    H138250   4.509   5.347  29.598
 4685TIP3    H238251   4.474   5.432  29.952
 4686TIP3   OH238252   4.826   4.032  29.403
 4686TIP3    H138253   4.759   3.962  29.445
 4686TIP3    H238254   4.904   3.974  29.403
 4687TIP3   OH238255   5.384   3.830  29.343
 4687TIP3    H138256   5.438   3.865  29.118
 4687TIP3    H238257   5.296   3.869  29.286
 4688TIP3   OH238258   5.524   3.912  28.728
 4688TIP3    H138259   5.598   3.857  28.626
 4688TIP3    H238260   5.571   3.995  28.806
 4689TIP3   OH238261   4.058   3.821  28.635
 4689TIP3    H138262   3.979   3.812  28.464
 4689TIP3    H238263   4.098   3.731  28.605
 4690TIP3   OH238264   3.966   3.836  27.495
 4690TIP3    H138265   3.990   3.900  27.285
 4690TIP3    H238266   3.903   3.887  27.660
 4691TIP3   OH238267   4.504   3.813  28.704
 4691TIP3    H138268   4.587   3.824  28.560
 4691TIP3    H238269   4.533   3.830  28.977
 4692TIP3   OH238270   5.115   3.865  29.082
 4692TIP3    H138271   5.091   3.893  28.815
 4692TIP3    H238272   5.056   3.789  29.136
 4693TIP3   OH238273   5.212   3.854  27.951
 4693TIP3    H138274   5.143   3.875  27.756
 4693TIP3    H238275   5.180   3.767  28.044
 4694TIP3   OH238276   3.942   5.434  27.744
 4694TIP3    H138277   3.860   5.423  27.585
 4694TIP3    H238278   3.962   5.527  27.678
 4695TIP3   OH238279   4.076   4.035  26.979
 4695TIP3    H138280   4.142   3.981  26.835
 4695TIP3    H238281   4.123   4.052  27.228
 4696TIP3   OH238282   4.625   4.080  27.651
 4696TIP3    H138283   4.655   4.016  27.846
 4696TIP3    H238284   4.657   4.161  27.783
 4697TIP3   OH238285   4.849   5.567  27.258
 4697TIP3    H138286   4.945   5.567  27.201
 4697TIP3    H238287   4.820   5.516  27.021
 4698TIP3   OH238288   5.486   5.474  28.122
 4698TIP3    H138289   5.455   5.406  27.933
 4698TIP3    H238290   5.489   5.551  27.942
 4699TIP3   OH238291   4.066   5.514  26.814
 4699TIP3    H138292   4.046   5.556  27.072
 4699TIP3    H238293   4.147   5.464  26.883
 4700TIP3   OH238294   6.874   4.763  28.626
 4700TIP3    H138295   6.874   4.851  28.749
 4700TIP3    H238296   6.784   4.756  28.521
 4701TIP3   OH238297   6.765   4.683  29.649
 4701TIP3    H138298   6.760   4.636  29.907
 4701TIP3    H238299   6.678   4.664  29.535
 4702TIP3   OH238300   7.025   4.986  29.142
 4702TIP3    H138301   7.012   4.909  29.322
 4702TIP3    H238302   7.083   5.036  29.331
 4703TIP3   OH238303   6.105   5.121  29.661
 4703TIP3    H138304   6.094   5.027  29.583
 4703TIP3    H238305   6.201   5.135  29.613
 4704TIP3   OH238306   5.758   4.433  28.344
 4704TIP3    H138307   5.726   4.522  28.416
 4704TIP3    H238308   5.673   4.389  28.296
 4705TIP3   OH238309   5.817   4.685  28.977
 4705TIP3    H138310   5.863   4.622  29.151
 4705TIP3    H238311   5.870   4.766  29.007
 4706TIP3   OH238312   6.813   5.543  29.301
 4706TIP3    H138313   6.882   5.493  29.151
 4706TIP3    H238314   6.778   5.471  29.463
 4707TIP3   OH238315   6.626   4.940  30.027
 4707TIP3    H138316   6.681   4.889  29.838
 4707TIP3    H238317   6.675   4.926  30.273
 4708TIP3   OH238318   6.895   4.380  29.988
 4708TIP3    H138319   6.909   4.284  30.015
 4708TIP3    H238320   6.925   4.393  29.712
 4709TIP3   OH238321   6.236   4.190  29.112
 4709TIP3    H138322   6.269   4.269  28.974
 4709TIP3    H238323   6.193   4.142  28.893
 4710TIP3   OH238324   6.965   4.198  28.605
 4710TIP3    H138325   7.009   4.152  28.833
 4710TIP3    H238326   7.039   4.256  28.530
 4711TIP3   OH238327   5.868   4.420  29.334
 4711TIP3    H138328   5.930   4.370  29.505
 4711TIP3    H238329   5.885   4.380  29.073
 4712TIP3   OH238330   6.406   4.596  29.145
 4712TIP3    H138331   6.467   4.539  29.295
 4712TIP3    H238332   6.365   4.527  28.977
 4713TIP3   OH238333   6.849   5.014  28.365
 4713TIP3    H138334   6.919   4.965  28.227
 4713TIP3    H238335   6.904   5.062  28.560
 4714TIP3   OH238336   7.135   4.138  29.184
 4714TIP3    H138337   7.080   4.124  29.424
 4714TIP3    H238338   7.226   4.135  29.280
 4715TIP3   OH238339   6.067   4.276  29.670
 4715TIP3    H138340   6.111   4.363  29.679
 4715TIP3    H238341   6.120   4.230  29.463
 4716TIP3   OH238342   5.804   4.990  27.822
 4716TIP3    H138343   5.799   5.050  27.588
 4716TIP3    H238344   5.822   5.055  28.032
 4717TIP3   OH238345   7.193   5.104  29.706
 4717TIP3    H138346   7.159   5.065  29.955
 4717TIP3    H238347   7.201   5.197  29.784
 4718TIP3   OH238348   6.502   3.834  29.388
 4718TIP3    H138349   6.521   3.741  29.448
 4718TIP3    H238350   6.415   3.850  29.514
 4719TIP3   OH238351   6.969   5.378  28.881
 4719TIP3    H138352   7.005   5.293  28.785
 4719TIP3    H238353   7.044   5.439  28.815
 4720TIP3   OH238354   7.098   5.147  28.470
 4720TIP3    H138355   7.126   5.088  28.254
 4720TIP3    H238356   7.122   5.098  28.713
 4721TIP3   OH238357   6.714   4.703  27.855
 4721TIP3    H138358   6.671   4.785  27.768
 4721TIP3    H238359   6.804   4.708  27.732
 4722TIP3   OH238360   6.744   4.585  26.949
 4722TIP3    H138361   6.799   4.626  27.156
 4722TIP3    H238362   6.761   4.492  27.003
 4723TIP3   OH238363   7.089   4.734  28.143
 4723TIP3    H138364   7.015   4.734  28.344
 4723TIP3    H238365   7.153   4.677  28.284
 4724TIP3   OH238366   6.265   4.774  28.695
 4724TIP3    H138367   6.207   4.723  28.515
 4724TIP3    H238368   6.318   4.707  28.839
 4725TIP3   OH238369   6.372   5.146  29.553
 4725TIP3    H138370   6.379   5.119  29.274
 4725TIP3    H238371   6.432   5.085  29.691
 4726TIP3   OH238372   6.242   4.570  29.814
 4726TIP3    H138373   6.287   4.597  29.565
 4726TIP3    H238374   6.254   4.650  29.979
 4727TIP3   OH238375   6.947   4.665  27.501
 4727TIP3    H138376   7.005   4.686  27.732
 4727TIP3    H238377   7.004   4.693  27.276
 4728TIP3   OH238378   6.711   5.263  28.518
 4728TIP3    H138379   6.751   5.284  28.776
 4728TIP3    H238380   6.690   5.353  28.425
 4729TIP3   OH238381   7.323   3.791  27.477
 4729TIP3    H138382   7.228   3.808  27.537
 4729TIP3    H238383   7.362   3.880  27.495
 4730TIP3   OH238384   6.083   4.656  28.107
 4730TIP3    H138385   6.075   4.739  27.954
 4730TIP3    H238386   6.075   4.589  27.900
 4731TIP3   OH238387   7.438   5.270  26.958
 4731TIP3    H138388   7.472   5.362  26.940
 4731TIP3    H238389   7.524   5.226  26.997
 4732TIP3   OH238390   5.725   5.244  29.559
 4732TIP3    H138391   5.808   5.206  29.655
 4732TIP3    H238392   5.682   5.284  29.790
 4733TIP3   OH238393   6.708   5.582  28.101
 4733TIP3    H138394   6.698   5.576  27.804
 4733TIP3    H238395   6.682   5.676  28.143
 4734TIP3   OH238396   6.051   5.463  28.608
 4734TIP3    H138397   6.081   5.448  28.887
 4734TIP3    H238398   5.967   5.413  28.605
 4735TIP3   OH238399   6.996   5.521  27.135
 4735TIP3    H138400   7.042   5.443  27.021
 4735TIP3    H238401   7.004   5.508  27.426
 4736TIP3   OH238402   6.962   5.511  27.963
 4736TIP3    H138403   6.868   5.537  28.005
 4736TIP3    H238404   6.968   5.437  28.140
 4737TIP3   OH238405   6.246   3.911  29.673
 4737TIP3    H138406   6.166   3.904  29.508
 4737TIP3    H238407   6.234   4.002  29.772
 4738TIP3   OH238408   7.114   4.766  26.973
 4738TIP3    H138409   7.090   4.782  26.694
 4738TIP3    H238410   7.209   4.784  26.961
 4739TIP3   OH238411   6.682   4.142  26.970
 4739TIP3    H138412   6.658   4.111  27.237
 4739TIP3    H238413   6.623   4.082  26.823
 4740TIP3   OH238414   6.265   4.424  28.704
 4740TIP3    H138415   6.207   4.498  28.632
 4740TIP3    H238416   6.293   4.392  28.434
 4741TIP3   OH238417   6.813   4.495  28.242
 4741TIP3    H138418   6.770   4.564  28.077
 4741TIP3    H238419   6.876   4.458  28.047
 4742TIP3   OH238420   6.888   4.425  29.142
 4742TIP3    H138421   6.863   4.491  28.938
 4742TIP3    H238422   6.893   4.346  28.971
 4743TIP3   OH238423   6.312   4.150  26.673
 4743TIP3    H138424   6.272   4.110  26.913
 4743TIP3    H238425   6.245   4.215  26.595
 4744TIP3   OH238426   5.659   4.120  28.950
 4744TIP3    H138427   5.718   4.141  29.181
 4744TIP3    H238428   5.723   4.110  28.740
 4745TIP3   OH238429   5.852   4.243  27.594
 4745TIP3    H138430   5.874   4.261  27.309
 4745TIP3    H238431   5.759   4.276  27.597
 4746TIP3   OH238432   6.563   4.177  28.890
 4746TIP3    H138433   6.496   4.185  29.097
 4746TIP3    H238434   6.630   4.123  29.034
 4747TIP3   OH238435   5.970   4.287  28.605
 4747TIP3    H138436   5.913   4.362  28.509
 4747TIP3    H238437   6.060   4.317  28.542
 4748TIP3   OH238438   6.321   4.362  27.942
 4748TIP3    H138439   6.413   4.334  27.897
 4748TIP3    H238440   6.303   4.420  27.714
 4749TIP3   OH238441   6.953   4.114  29.760
 4749TIP3    H138442   6.935   4.088  30.033
 4749TIP3    H238443   6.862   4.113  29.652
 4750TIP3   OH238444   6.210   4.463  27.093
 4750TIP3    H138445   6.185   4.418  26.841
 4750TIP3    H238446   6.299   4.492  27.003
 4751TIP3   OH238447   6.605   4.435  29.505
 4751TIP3    H138448   6.665   4.428  29.277
 4751TIP3    H238449   6.655   4.384  29.703
 4752TIP3   OH238450   6.107   4.036  28.470
 4752TIP3    H138451   6.062   3.961  28.614
 4752TIP3    H238452   6.182   3.989  28.344
 4753TIP3   OH238453   6.534   4.926  27.777
 4753TIP3    H138454   6.470   4.867  27.630
 4753TIP3    H238455   6.483   4.940  28.026
 4754TIP3   OH238456   6.921   4.180  27.273
 4754TIP3    H138457   6.832   4.195  27.153
 4754TIP3    H238458   6.950   4.272  27.327
 4755TIP3   OH238459   7.010   4.401  27.645
 4755TIP3    H138460   7.088   4.389  27.822
 4755TIP3    H238461   7.031   4.481  27.495
 4756TIP3   OH238462   6.043   4.852  29.421
 4756TIP3    H138463   6.101   4.876  29.202
 4756TIP3    H238464   6.105   4.819  29.625
 4757TIP3   OH238465   6.756   5.048  27.492
 4757TIP3    H138466   6.715   5.126  27.366
 4757TIP3    H238467   6.686   4.981  27.471
 4758TIP3   OH238468   7.445   4.376  27.633
 4758TIP3    H138469   7.402   4.362  27.375
 4758TIP3    H238470   7.504   4.452  27.573
 4759TIP3   OH238471   7.307   5.278  27.690
 4759TIP3    H138472   7.258   5.196  27.711
 4759TIP3    H238473   7.353   5.271  27.429
 4760TIP3   OH238474   7.006   4.794  29.688
 4760TIP3    H138475   6.917   4.759  29.619
 4760TIP3    H238476   7.064   4.731  29.544
 4761TIP3   OH238477   6.285   5.214  28.677
 4761TIP3    H138478   6.307   5.297  28.539
 4761TIP3    H238479   6.190   5.212  28.623
 4762TIP3   OH238480   5.924   4.720  27.072
 4762TIP3    H138481   5.965   4.768  27.297
 4762TIP3    H238482   5.828   4.718  27.138
 4763TIP3   OH238483   6.437   4.996  28.497
 4763TIP3    H138484   6.377   5.070  28.569
 4763TIP3    H238485   6.398   4.923  28.656
 4764TIP3   OH238486   6.308   5.468  28.329
 4764TIP3    H138487   6.211   5.479  28.365
 4764TIP3    H238488   6.338   5.548  28.476
 4765TIP3   OH238489   7.090   5.100  27.114
 4765TIP3    H138490   7.118   5.047  27.345
 4765TIP3    H238491   6.996   5.075  27.099
 4766TIP3   OH238492   7.532   5.508  27.108
 4766TIP3    H138493   7.562   5.599  27.060
 4766TIP3    H238494   7.450   5.527  27.252
 4767TIP3   OH238495   7.160   4.954  27.762
 4767TIP3    H138496   7.123   4.866  27.831
 4767TIP3    H238497   7.254   4.928  27.720
 4768TIP3   OH238498   6.506   5.180  26.712
 4768TIP3    H138499   6.479   5.152  26.442
 4768TIP3    H238500   6.424   5.163  26.859
 4769TIP3   OH238501   6.347   5.142  27.381
 4769TIP3    H138502   6.426   5.108  27.513
 4769TIP3    H238503   6.356   5.239  27.420
 4770TIP3   OH238504   6.051   4.883  27.591
 4770TIP3    H138505   5.963   4.908  27.696
 4770TIP3    H238506   6.074   4.960  27.426
 4771TIP3   OH238507   6.853   4.077  27.975
 4771TIP3    H138508   6.895   4.115  27.735
 4771TIP3    H238509   6.897   4.128  28.191
 4772TIP3   OH238510   6.617   5.290  27.621
 4772TIP3    H138511   6.540   5.351  27.636
 4772TIP3    H238512   6.683   5.351  27.504
 4773TIP3   OH238513   6.589   4.262  28.119
 4773TIP3    H138514   6.648   4.339  28.149
 4773TIP3    H238515   6.584   4.226  28.395
 4774TIP3   OH238516   6.661   3.946  28.332
 4774TIP3    H138517   6.630   4.012  28.521
 4774TIP3    H238518   6.734   3.997  28.200
 4775TIP3   OH238519   6.381   5.410  27.519
 4775TIP3    H138520   6.390   5.497  27.384
 4775TIP3    H238521   6.346   5.442  27.774
 4776TIP3   OH238522   6.242   4.075  27.498
 4776TIP3    H138523   6.250   4.161  27.627
 4776TIP3    H238524   6.334   4.043  27.510
 4777TIP3   OH238525   7.093   4.592  29.274
 4777TIP3    H138526   7.016   4.533  29.235
 4777TIP3    H238527   7.152   4.535  29.433
 4778TIP3   OH238528   6.061   5.119  27.135
 4778TIP3    H138529   6.123   5.173  27.294
 4778TIP3    H238530   6.124   5.090  26.928
 4779TIP3   OH238531   5.896   4.391  26.922
 4779TIP3    H138532   5.950   4.467  26.994
 4779TIP3    H238533   5.824   4.434  26.772
 4780TIP3   OH238534   7.268   5.478  29.880
 4780TIP3    H138535   7.250   5.568  29.772
 4780TIP3    H238536   7.353   5.492  30.006
 4781TIP3   OH238537   5.992   3.891  29.376
 4781TIP3    H138538   5.954   3.851  29.133
 4781TIP3    H238539   5.986   3.814  29.556
 4782TIP3   OH238540   5.858   5.248  28.362
 4782TIP3    H138541   5.780   5.306  28.377
 4782TIP3    H238542   5.897   5.288  28.125
 4783TIP3   OH238543   6.704   5.381  26.715
 4783TIP3    H138544   6.638   5.309  26.685
 4783TIP3    H238545   6.773   5.354  26.523
 4784TIP3   OH238546   7.128   5.335  26.691
 4784TIP3    H138547   7.155   5.271  26.892
 4784TIP3    H238548   7.206   5.338  26.514
 4785TIP3   OH238549   6.237   4.943  26.640
 4785TIP3    H138550   6.272   4.921  26.901
 4785TIP3    H238551   6.310   4.917  26.457
 4786TIP3   OH238552   6.783   5.059  26.562
 4786TIP3    H138553   6.704   5.062  26.730
 4786TIP3    H238554   6.785   4.963  26.496
 4787TIP3   OH238555   6.356   4.762  27.408
 4787TIP3    H138556   6.264   4.733  27.423
 4787TIP3    H238557   6.396   4.697  27.219
 4788TIP3   OH238558   6.464   4.584  26.814
 4788TIP3    H138559   6.459   4.630  26.553
 4788TIP3    H238560   6.562   4.574  26.844
 4789TIP3   OH238561   7.376   4.787  26.682
 4789TIP3    H138562   7.350   4.766  26.403
 4789TIP3    H238563   7.371   4.886  26.682
 4790TIP3   OH238564   6.485   5.673  27.537
 4790TIP3    H138565   6.561   5.687  27.366
 4790TIP3    H238566   6.409   5.704  27.366
 4791TIP3   OH238567   5.796   5.088  27.024
 4791TIP3    H138568   5.894   5.094  27.048
 4791TIP3    H238569   5.787   5.038  26.769
 4792TIP3   OH238570   5.692   5.607  28.437
 4792TIP3    H138571   5.612   5.559  28.347
 4792TIP3    H238572   5.712   5.552  28.674
 4793TIP3   OH238573   5.758   5.441  29.019
 4793TIP3    H138574   5.728   5.360  29.157
 4793TIP3    H238575   5.805   5.488  29.235
 4794TIP3   OH238576   7.422   4.880  27.834
 4794TIP3    H138577   7.503   4.926  27.918
 4794TIP3    H238578   7.418   4.813  28.050
 4795TIP3   OH238579   7.460   4.719  28.449
 4795TIP3    H138580   7.375   4.679  28.536
 4795TIP3    H238581   7.513   4.706  28.692
 4796TIP3   OH238582   7.537   4.947  29.850
 4796TIP3    H138583   7.624   4.979  29.760
 4796TIP3    H238584   7.486   5.031  29.838
 4797TIP3   OH238585   7.528   4.695  27.318
 4797TIP3    H138586   7.470   4.712  27.087
 4797TIP3    H238587   7.505   4.771  27.486
 4798TIP3   OH238588   7.321   4.387  26.850
 4798TIP3    H138589   7.348   4.447  26.637
 4798TIP3    H238590   7.297   4.305  26.709
 4799TIP3   OH238591   7.252   4.565  28.656
 4799TIP3    H138592   7.306   4.485  28.689
 4799TIP3    H238593   7.197   4.560  28.899
 4800TIP3   OH238594   5.779   4.786  29.727
 4800TIP3    H138595   5.780   4.735  29.481
 4800TIP3    H238596   5.849   4.746  29.889
 4801TIP3   OH238597   7.259   4.134  26.622
 4801TIP3    H138598   7.253   4.104  26.898
 4801TIP3    H238599   7.170   4.110  26.523
 4802TIP3   OH238600   7.228   4.312  28.104
 4802TIP3    H138601   7.255   4.220  28.158
 4802TIP3    H238602   7.307   4.342  27.954
 4803TIP3   OH238603   7.249   4.397  29.529
 4803TIP3    H138604   7.348   4.400  29.526
 4803TIP3    H238605   7.235   4.311  29.667
 4804TIP3   OH238606   7.255   4.042  28.185
 4804TIP3    H138607   7.268   4.008  28.461
 4804TIP3    H238608   7.197   3.972  28.071
 4805TIP3   OH238609   5.840   4.122  29.586
 4805TIP3    H138610   5.869   4.029  29.574
 4805TIP3    H238611   5.922   4.164  29.688
 4806TIP3   OH238612   5.672   4.395  29.940
 4806TIP3    H138613   5.712   4.350  29.712
 4806TIP3    H238614   5.710   4.484  29.913
 4807TIP3   OH238615   7.494   4.028  27.219
 4807TIP3    H138616   7.526   3.973  27.003
 4807TIP3    H238617   7.523   4.116  27.129
 4808TIP3   OH238618   5.714   4.047  28.002
 4808TIP3    H138619   5.621   4.049  28.080
 4808TIP3    H238620   5.704   4.039  27.711
 4809TIP3   OH238621   7.173   5.547  28.683
 4809TIP3    H138622   7.246   5.516  28.512
 4809TIP3    H238623   7.220   5.600  28.881
 4810TIP3   OH238624   5.914   5.539  29.679
 4810TIP3    H138625   5.938   5.549  29.961
 4810TIP3    H238626   5.990   5.485  29.580
 4811TIP3   OH238627   6.118   5.403  29.358
 4811TIP3    H138628   6.124   5.306  29.376
 4811TIP3    H238629   6.203   5.426  29.484
 4812TIP3   OH238630   6.353   5.447  29.712
 4812TIP3    H138631   6.389   5.359  29.661
 4812TIP3    H238632   6.345   5.449  30.000
 4813TIP3   OH238633   6.725   4.035  29.367
 4813TIP3    H138634   6.665   3.961  29.436
 4813TIP3    H238635   6.803   3.985  29.268
 4814TIP3   OH238636   7.225   3.823  29.487
 4814TIP3    H138637   7.272   3.877  29.283
 4814TIP3    H238638   7.134   3.843  29.412
 4815TIP3   OH238639   7.353   3.937  28.878
 4815TIP3    H138640   7.416   3.874  28.746
 4815TIP3    H238641   7.405   4.020  28.884
 4816TIP3   OH238642   5.941   3.829  28.590
 4816TIP3    H138643   5.859   3.806  28.440
 4816TIP3    H238644   5.989   3.744  28.569
 4817TIP3   OH238645   5.854   3.824  27.480
 4817TIP3    H138646   5.886   3.889  27.282
 4817TIP3    H238647   5.764   3.857  27.525
 4818TIP3   OH238648   6.346   3.814  28.632
 4818TIP3    H138649   6.430   3.825  28.491
 4818TIP3    H238650   6.377   3.812  28.908
 4819TIP3   OH238651   6.930   3.877  28.968
 4819TIP3    H138652   6.935   3.870  28.680
 4819TIP3    H238653   6.904   3.785  29.052
 4820TIP3   OH238654   7.092   3.848  27.948
 4820TIP3    H138655   7.007   3.890  27.903
 4820TIP3    H238656   7.066   3.758  28.032
 4821TIP3   OH238657   5.828   5.427  27.762
 4821TIP3    H138658   5.759   5.417  27.558
 4821TIP3    H238659   5.852   5.520  27.711
 4822TIP3   OH238660   5.950   4.035  26.970
 4822TIP3    H138661   6.014   3.986  26.805
 4822TIP3    H238662   6.005   4.058  27.198
 4823TIP3   OH238663   6.536   4.052  27.606
 4823TIP3    H138664   6.577   3.994  27.807
 4823TIP3    H238665   6.547   4.139  27.741
 4824TIP3   OH238666   6.741   5.566  27.318
 4824TIP3    H138667   6.833   5.564  27.210
 4824TIP3    H238668   6.694   5.521  27.099
 4825TIP3   OH238669   7.362   5.494  28.113
 4825TIP3    H138670   7.346   5.414  27.945
 4825TIP3    H238671   7.356   5.564  27.912
 4826TIP3   OH238672   5.964   5.476  26.832
 4826TIP3    H138673   5.966   5.536  27.060
 4826TIP3    H238674   6.058   5.448  26.823
 4827TIP3   OH238675   7.564   4.471  28.410
 4827TIP3    H138676   7.529   4.556  28.311
 4827TIP3    H238677   7.503   4.407  28.287
 4828TIP3   OH238678   7.546   5.216  29.682
 4828TIP3    H138679   7.642   5.225  29.715
 4828TIP3    H238680   7.510   5.255  29.925
 4829TIP3   OH238681   7.501   4.167  28.794
 4829TIP3    H138682   7.597   4.182  28.854
 4829TIP3    H238683   7.509   4.127  28.524
 4830TIP3   OH238684   7.515   5.632  28.596
 4830TIP3    H138685   7.466   5.578  28.395
 4830TIP3    H238686   7.520   5.566  28.815
 4831TIP3   OH238687   7.545   5.477  29.232
 4831TIP3    H138688   7.494   5.400  29.325
 4831TIP3    H238689   7.637   5.446  29.253
 4832TIP3   OH238690   7.653   4.652  29.787
 4832TIP3    H138691   7.694   4.677  29.529
 4832TIP3    H238692   7.664   4.734  29.943
 4833TIP3   OH238693   7.503   4.431  29.682
 4833TIP3    H138694   7.580   4.374  29.685
 4833TIP3    H238695   7.545   4.514  29.769
 4834TIP3   OH238696   7.517   4.068  28.041
 4834TIP3    H138697   7.420   4.066  28.032
 4834TIP3    H238698   7.539   4.057  27.753
 4835TIP3   OH238699   1.213   6.674  28.623
 4835TIP3    H138700   1.183   6.767  28.659
 4835TIP3    H238701   1.145   6.639  28.443
 4836TIP3   OH238702   1.103   6.574  29.670
 4836TIP3    H138703   1.088   6.527  29.922
 4836TIP3    H238704   1.043   6.528  29.487
 4837TIP3   OH238705   1.417   6.842  29.145
 4837TIP3    H138706   1.404   6.765  29.325
 4837TIP3    H238707   1.455   6.907  29.334
 4838TIP3   OH238708   0.381   6.983  29.628
 4838TIP3    H138709   0.366   6.892  29.514
 4838TIP3    H238710   0.473   6.971  29.718
 4839TIP3   OH238711   0.121   6.290  28.173
 4839TIP3    H138712   0.144   6.374  28.296
 4839TIP3    H238713   0.026   6.287  28.254
 4840TIP3   OH238714   0.129   6.572  29.085
 4840TIP3    H138715   0.159   6.480  29.136
 4840TIP3    H238716   0.210   6.612  28.980
 4841TIP3   OH238717   1.176   7.387  29.331
 4841TIP3    H138718   1.247   7.337  29.187
 4841TIP3    H238719   1.148   7.318  29.520
 4842TIP3   OH238720   0.968   6.855  29.976
 4842TIP3    H138721   1.010   6.789  29.802
 4842TIP3    H238722   1.028   6.852  30.204
 4843TIP3   OH238723   1.225   6.274  29.961
 4843TIP3    H138724   1.253   6.181  29.985
 4843TIP3    H238725   1.239   6.291  29.679
 4844TIP3   OH238726   0.599   6.048  29.154
 4844TIP3    H138727   0.613   6.133  29.010
 4844TIP3    H238728   0.548   6.001  28.950
 4845TIP3   OH238729   1.305   6.097  28.611
 4845TIP3    H138730   1.358   6.059  28.836
 4845TIP3    H238731   1.371   6.160  28.515
 4846TIP3   OH238732   0.230   6.328  29.211
 4846TIP3    H138733   0.294   6.267  29.337
 4846TIP3    H238734   0.242   6.299  28.935
 4847TIP3   OH238735   0.708   6.454  29.127
 4847TIP3    H138736   0.781   6.404  29.250
 4847TIP3    H238737   0.662   6.381  28.989
 4848TIP3   OH238738   1.131   6.920  28.239
 4848TIP3    H138739   1.112   6.923  27.954
 4848TIP3    H238740   1.144   7.013  28.302
 4849TIP3   OH238741   1.485   6.036  29.157
 4849TIP3    H138742   1.425   6.019  29.388
 4849TIP3    H238743   1.569   6.005  29.262
 4850TIP3   OH238744   0.397   6.157  29.637
 4850TIP3    H138745   0.441   6.224  29.796
 4850TIP3    H238746   0.470   6.116  29.484
 4851TIP3   OH238747   0.131   6.863  27.801
 4851TIP3    H138748   0.123   6.917  27.555
 4851TIP3    H238749   0.157   6.929  27.999
 4852TIP3   OH238750   1.499   7.031  29.646
 4852TIP3    H138751   1.473   6.982  29.892
 4852TIP3    H238752   1.552   7.103  29.751
 4853TIP3   OH238753   0.853   5.736  29.541
 4853TIP3    H138754   0.872   5.642  29.529
 4853TIP3    H238755   0.754   5.740  29.580
 4854TIP3   OH238756   1.328   7.257  28.830
 4854TIP3    H138757   1.360   7.165  28.848
 4854TIP3    H238758   1.412   7.300  28.734
 4855TIP3   OH238759   1.474   7.013  28.548
 4855TIP3    H138760   1.451   6.963  28.305
 4855TIP3    H238761   1.458   6.945  28.755
 4856TIP3   OH238762   1.066   6.591  27.873
 4856TIP3    H138763   1.008   6.665  27.792
 4856TIP3    H238764   1.153   6.619  27.762
 4857TIP3   OH238765   1.090   6.476  26.967
 4857TIP3    H138766   1.142   6.508  27.195
 4857TIP3    H238767   1.124   6.385  26.934
 4858TIP3   OH238768   1.448   6.586  28.212
 4858TIP3    H138769   1.374   6.621  28.377
 4858TIP3    H238770   1.511   6.553  28.416
 4859TIP3   OH238771   0.590   6.653  28.746
 4859TIP3    H138772   0.545   6.622  28.503
 4859TIP3    H238773   0.642   6.576  28.839
 4860TIP3   OH238774   0.741   7.012  29.574
 4860TIP3    H138775   0.714   6.967  29.328
 4860TIP3    H238776   0.809   6.953  29.685
 4861TIP3   OH238777   0.560   6.558  29.820
 4861TIP3    H138778   0.605   6.541  29.565
 4861TIP3    H238779   0.630   6.545  30.015
 4862TIP3   OH238780   1.300   6.568  27.504
 4862TIP3    H138781   1.360   6.575  27.738
 4862TIP3    H238782   1.361   6.589  27.276
 4863TIP3   OH238783   1.047   7.294  28.641
 4863TIP3    H138784   1.111   7.225  28.707
 4863TIP3    H238785   1.081   7.364  28.824
 4864TIP3   OH238786   1.688   5.676  27.618
 4864TIP3    H138787   1.600   5.698  27.732
 4864TIP3    H238788   1.717   5.761  27.501
 4865TIP3   OH238789   0.451   6.544  28.050
 4865TIP3    H138790   0.443   6.629  27.903
 4865TIP3    H238791   0.412   6.483  27.861
 4866TIP3   OH238792   1.797   7.118  27.078
 4866TIP3    H138793   1.828   7.212  27.066
 4866TIP3    H238794   1.881   7.067  27.096
 4867TIP3   OH238795   0.134   7.100  29.586
 4867TIP3    H138796   0.217   7.050  29.640
 4867TIP3    H238797   0.158   7.188  29.688
 4868TIP3   OH238798   0.980   7.494  27.984
 4868TIP3    H138799   1.014   7.488  27.708
 4868TIP3    H238800   1.005   7.584  28.059
 4869TIP3   OH238801   0.404   7.342  28.575
 4869TIP3    H138802   0.425   7.332  28.863
 4869TIP3    H238803   0.323   7.289  28.551
 4870TIP3   OH238804   1.336   7.384  27.261
 4870TIP3    H138805   1.408   7.328  27.150
 4870TIP3    H238806   1.343   7.364  27.546
 4871TIP3   OH238807   1.277   7.368  28.026
 4871TIP3    H138808   1.187   7.393  28.092
 4871TIP3    H238809   1.296   7.296  28.212
 4872TIP3   OH238810   0.593   5.780  29.559
 4872TIP3    H138811   0.502   5.791  29.457
 4872TIP3    H238812   0.605   5.868  29.679
 4873TIP3   OH238813   1.468   6.656  26.961
 4873TIP3    H138814   1.452   6.674  26.676
 4873TIP3    H238815   1.564   6.675  26.970
 4874TIP3   OH238816   1.020   6.021  26.976
 4874TIP3    H138817   0.986   6.015  27.246
 4874TIP3    H238818   0.964   5.954  26.850
 4875TIP3   OH238819   0.597   6.262  28.698
 4875TIP3    H138820   0.500   6.250  28.653
 4875TIP3    H238821   0.630   6.265  28.416
 4876TIP3   OH238822   1.148   6.373  28.218
 4876TIP3    H138823   1.116   6.450  28.056
 4876TIP3    H238824   1.208   6.333  28.023
 4877TIP3   OH238825   1.230   6.324  29.136
 4877TIP3    H138826   1.213   6.400  28.959
 4877TIP3    H238827   1.237   6.253  28.941
 4878TIP3   OH238828   0.657   6.063  26.790
 4878TIP3    H138829   0.618   6.009  27.009
 4878TIP3    H238830   0.581   6.079  26.619
 4879TIP3   OH238831   0.080   6.008  28.923
 4879TIP3    H138832   0.115   6.012  29.199
 4879TIP3    H238833   0.132   5.935  28.818
 4880TIP3   OH238834   0.112   6.103  27.480
 4880TIP3    H138835   0.177   6.138  27.285
 4880TIP3    H238836   0.101   6.181  27.651
 4881TIP3   OH238837   0.881   6.052  28.863
 4881TIP3    H138838   0.798   6.046  29.016
 4881TIP3    H238839   0.943   6.009  29.046
 4882TIP3   OH238840   0.337   6.208  28.551
 4882TIP3    H138841   0.267   6.211  28.341
 4882TIP3    H238842   0.349   6.110  28.563
 4883TIP3   OH238843   0.679   6.235  27.930
 4883TIP3    H138844   0.771   6.224  27.846
 4883TIP3    H238845   0.641   6.290  27.720
 4884TIP3   OH238846   1.297   6.017  29.727
 4884TIP3    H138847   1.299   5.985  30.003
 4884TIP3    H238848   1.203   6.001  29.661
 4885TIP3   OH238849   0.570   6.354  27.138
 4885TIP3    H138850   0.529   6.295  26.946
 4885TIP3    H238851   0.653   6.375  26.997
 4886TIP3   OH238852   0.956   6.327  29.520
 4886TIP3    H138853   1.008   6.319  29.274
 4886TIP3    H238854   1.014   6.279  29.703
 4887TIP3   OH238855   0.419   5.957  28.563
 4887TIP3    H138856   0.366   5.876  28.626
 4887TIP3    H238857   0.464   5.923  28.326
 4888TIP3   OH238858   0.900   6.788  27.741
 4888TIP3    H138859   0.823   6.738  27.636
 4888TIP3    H238860   0.867   6.816  28.008
 4889TIP3   OH238861   1.261   6.069  27.282
 4889TIP3    H138862   1.173   6.066  27.153
 4889TIP3    H238863   1.280   6.165  27.288
 4890TIP3   OH238864   1.336   6.299  27.600
 4890TIP3    H138865   1.403   6.264  27.783
 4890TIP3    H238866   1.375   6.382  27.516
 4891TIP3   OH238867   0.416   6.743  29.328
 4891TIP3    H138868   0.473   6.718  29.097
 4891TIP3    H238869   0.461   6.694  29.544
 4892TIP3   OH238870   1.082   6.937  27.408
 4892TIP3    H138871   1.029   7.016  27.468
 4892TIP3    H238872   1.027   6.866  27.531
 4893TIP3   OH238873   1.815   6.263  27.624
 4893TIP3    H138874   1.762   6.258  27.375
 4893TIP3    H238875   1.837   6.357  27.639
 4894TIP3   OH238876   1.628   7.151  27.717
 4894TIP3    H138877   1.628   7.072  27.879
 4894TIP3    H238878   1.683   7.126  27.486
 4895TIP3   OH238879   1.365   6.650  29.685
 4895TIP3    H138880   1.271   6.626  29.643
 4895TIP3    H238881   1.413   6.577  29.553
 4896TIP3   OH238882   0.633   7.056  28.728
 4896TIP3    H138883   0.660   7.147  28.797
 4896TIP3    H238884   0.546   7.068  28.608
 4897TIP3   OH238885   0.235   6.564  27.111
 4897TIP3    H138886   0.285   6.643  27.207
 4897TIP3    H238887   0.147   6.578  27.222
 4898TIP3   OH238888   0.772   6.837  28.410
 4898TIP3    H138889   0.711   6.901  28.536
 4898TIP3    H238890   0.754   6.757  28.566
 4899TIP3   OH238891   0.669   7.313  28.392
 4899TIP3    H138892   0.571   7.318  28.410
 4899TIP3    H238893   0.692   7.398  28.527
 4900TIP3   OH238894   1.433   6.972  27.072
 4900TIP3    H138895   1.445   6.923  27.324
 4900TIP3    H238896   1.339   6.952  27.021
 4901TIP3   OH238897   1.875   7.375  27.105
 4901TIP3    H138898   1.936   7.450  27.123
 4901TIP3    H238899   1.788   7.417  27.171
 4902TIP3   OH238900   1.491   6.832  27.783
 4902TIP3    H138901   1.467   6.745  27.903
 4902TIP3    H238902   1.583   6.817  27.702
 4903TIP3   OH238903   0.846   7.082  26.688
 4903TIP3    H138904   0.831   7.026  26.454
 4903TIP3    H238905   0.769   7.054  26.853
 4904TIP3   OH238906   0.686   7.028  27.384
 4904TIP3    H138907   0.752   6.984  27.549
 4904TIP3    H238908   0.695   7.121  27.474
 4905TIP3   OH238909   0.371   6.755  27.534
 4905TIP3    H138910   0.294   6.788  27.684
 4905TIP3    H238911   0.405   6.835  27.396
 4906TIP3   OH238912   1.236   5.942  27.975
 4906TIP3    H138913   1.260   5.997  27.738
 4906TIP3    H238914   1.260   6.002  28.197
 4907TIP3   OH238915   1.003   7.180  27.663
 4907TIP3    H138916   0.946   7.217  27.453
 4907TIP3    H238917   1.091   7.198  27.555
 4908TIP3   OH238918   0.958   6.154  28.155
 4908TIP3    H138919   1.003   6.240  28.197
 4908TIP3    H238920   0.924   6.130  28.425
 4909TIP3   OH238921   1.009   5.839  28.278
 4909TIP3    H138922   0.982   5.903  28.479
 4909TIP3    H238923   1.086   5.886  28.155
 4910TIP3   OH238924   0.744   7.293  27.564
 4910TIP3    H138925   0.751   7.364  27.354
 4910TIP3    H238926   0.672   7.330  27.723
 4911TIP3   OH238927   0.579   5.956  27.501
 4911TIP3    H138928   0.566   6.038  27.654
 4911TIP3    H238929   0.674   5.940  27.549
 4912TIP3   OH238930   1.475   6.445  29.289
 4912TIP3    H138931   1.398   6.385  29.328
 4912TIP3    H238932   1.541   6.403  29.469
 4913TIP3   OH238933   0.418   7.004  27.093
 4913TIP3    H138934   0.501   7.039  27.210
 4913TIP3    H238935   0.454   6.944  26.889
 4914TIP3   OH238936   0.238   6.279  26.964
 4914TIP3    H138937   0.264   6.370  27.039
 4914TIP3    H238938   0.172   6.298  26.760
 4915TIP3   OH238939   1.614   7.367  29.859
 4915TIP3    H138940   1.631   7.417  29.616
 4915TIP3    H238941   1.700   7.375  29.994
 4916TIP3   OH238942   0.328   5.782  29.439
 4916TIP3    H138943   0.317   5.765  29.151
 4916TIP3    H238944   0.321   5.690  29.538
 4917TIP3   OH238945   0.240   7.113  28.374
 4917TIP3    H138946   0.153   7.140  28.467
 4917TIP3    H238947   0.252   7.170  28.140
 4918TIP3   OH238948   1.050   7.267  26.703
 4918TIP3    H138949   0.992   7.187  26.697
 4918TIP3    H238950   1.127   7.236  26.544
 4919TIP3   OH238951   1.516   7.242  26.835
 4919TIP3    H138952   1.516   7.151  26.940
 4919TIP3    H238953   1.580   7.241  26.616
 4920TIP3   OH238954   0.580   6.818  26.622
 4920TIP3    H138955   0.592   6.760  26.850
 4920TIP3    H238956   0.662   6.799  26.469
 4921TIP3   OH238957   1.145   6.931  26.604
 4921TIP3    H138958   1.085   6.936  26.835
 4921TIP3    H238959   1.140   6.834  26.553
 4922TIP3   OH238960   0.696   6.634  27.408
 4922TIP3    H138961   0.637   6.569  27.531
 4922TIP3    H238962   0.744   6.579  27.213
 4923TIP3   OH238963   0.813   6.468  26.814
 4923TIP3    H138964   0.819   6.507  26.541
 4923TIP3    H238965   0.908   6.462  26.880
 4924TIP3   OH238966   1.731   6.685  26.655
 4924TIP3    H138967   1.711   6.654  26.382
 4924TIP3    H238968   1.729   6.783  26.616
 4925TIP3   OH238969   0.792   7.515  27.129
 4925TIP3    H138970   0.854   7.584  27.207
 4925TIP3    H238971   0.728   7.562  26.964
 4926TIP3   OH238972   0.153   7.014  27.153
 4926TIP3    H138973   0.250   7.024  27.162
 4926TIP3    H238974   0.147   6.946  26.943
 4927TIP3   OH238975   0.032   7.552  28.281
 4927TIP3    H138976  -0.063   7.566  28.338
 4927TIP3    H238977   0.042   7.475  28.452
 4928TIP3   OH238978   0.145   7.304  29.025
 4928TIP3    H138979   0.163   7.211  29.109
 4928TIP3    H238980   0.191   7.352  29.238
 4929TIP3   OH238981   1.778   6.769  27.729
 4929TIP3    H138982   1.865   6.811  27.774
 4929TIP3    H238983   1.774   6.709  27.963
 4930TIP3   OH238984   1.805   6.601  28.428
 4930TIP3    H138985   1.740   6.545  28.569
 4930TIP3    H238986   1.879   6.605  28.623
 4931TIP3   OH238987   1.814   6.877  29.973
 4931TIP3    H138988   1.871   6.809  29.853
 4931TIP3    H238989   1.824   6.951  29.787
 4932TIP3   OH238990   1.870   6.550  27.282
 4932TIP3    H138991   1.811   6.577  27.060
 4932TIP3    H238992   1.858   6.628  27.456
 4933TIP3   OH238993   1.666   6.263  26.844
 4933TIP3    H138994   1.694   6.325  26.640
 4933TIP3    H238995   1.647   6.185  26.685
 4934TIP3   OH238996   1.623   6.411  28.632
 4934TIP3    H138997   1.588   6.335  28.485
 4934TIP3    H238998   1.574   6.408  28.887
 4935TIP3   OH238999   0.164   6.733  29.751
 4935TIP3    H139000   0.182   6.690  29.490
 4935TIP3    H239001   0.213   6.674  29.928
 4936TIP3   OH239002   1.617   6.002  26.526
 4936TIP3    H139003   1.646   5.986  26.802
 4936TIP3    H239004   1.520   5.992  26.544
 4937TIP3   OH239005   1.553   6.211  28.122
 4937TIP3    H139006   1.571   6.116  28.179
 4937TIP3    H239007   1.633   6.228  27.969
 4938TIP3   OH239008   1.638   6.282  29.661
 4938TIP3    H139009   1.734   6.263  29.643
 4938TIP3    H239010   1.610   6.191  29.739
 4939TIP3   OH239011   1.632   5.956  28.164
 4939TIP3    H139012   1.668   5.900  28.383
 4939TIP3    H239013   1.568   5.894  28.050
 4940TIP3   OH239014   0.165   6.006  29.682
 4940TIP3    H139015   0.208   5.919  29.703
 4940TIP3    H239016   0.238   6.063  29.781
 4941TIP3   OH239017   0.111   6.284  29.994
 4941TIP3    H139018   0.143   6.261  29.727
 4941TIP3    H239019   0.070   6.369  29.937
 4942TIP3   OH239020   1.803   5.935  27.171
 4942TIP3    H139021   1.847   5.873  26.988
 4942TIP3    H239022   1.882   5.981  27.282
 4943TIP3   OH239023   0.120   5.900  27.990
 4943TIP3    H139024   0.036   5.906  28.140
 4943TIP3    H239025   0.104   5.965  27.777
 4944TIP3   OH239026   1.528   7.395  28.542
 4944TIP3    H139027   1.610   7.388  28.374
 4944TIP3    H239028   1.553   7.465  28.734
 4945TIP3   OH239029   0.267   7.337  29.808
 4945TIP3    H139030   0.301   7.389  30.039
 4945TIP3    H239031   0.353   7.302  29.703
 4946TIP3   OH239032   0.468   7.258  29.310
 4946TIP3    H139033   0.454   7.162  29.346
 4946TIP3    H239034   0.562   7.267  29.394
 4947TIP3   OH239035   0.708   7.276  29.622
 4947TIP3    H139036   0.726   7.182  29.685
 4947TIP3    H239037   0.736   7.324  29.859
 4948TIP3   OH239038   1.054   5.928  29.385
 4948TIP3    H139039   0.989   5.861  29.478
 4948TIP3    H239040   1.125   5.871  29.292
 4949TIP3   OH239041   1.598   5.715  29.343
 4949TIP3    H139042   1.654   5.759  29.136
 4949TIP3    H239043   1.508   5.748  29.289
 4950TIP3   OH239044   1.760   5.808  28.758
 4950TIP3    H139045   1.825   5.753  28.614
 4950TIP3    H239046   1.815   5.889  28.815
 4951TIP3   OH239047   0.328   5.717  28.677
 4951TIP3    H139048   0.242   5.696  28.542
 4951TIP3    H239049   0.377   5.632  28.656
 4952TIP3   OH239050   0.223   5.709  27.522
 4952TIP3    H139051   0.226   5.756  27.267
 4952TIP3    H239052   0.189   5.779  27.708
 4953TIP3   OH239053   0.728   5.676  28.701
 4953TIP3    H139054   0.812   5.709  28.599
 4953TIP3    H239055   0.737   5.680  28.986
 4954TIP3   OH239056   1.341   5.753  29.088
 4954TIP3    H139057   1.325   5.774  28.812
 4954TIP3    H239058   1.288   5.672  29.139
 4955TIP3   OH239059   1.442   5.758  27.996
 4955TIP3    H139060   1.360   5.811  27.975
 4955TIP3    H239061   1.406   5.667  28.023
 4956TIP3   OH239062   0.175   7.315  27.798
 4956TIP3    H139063   0.083   7.312  27.711
 4956TIP3    H239064   0.204   7.399  27.675
 4957TIP3   OH239065   0.303   5.893  26.970
 4957TIP3    H139066   0.375   5.841  26.847
 4957TIP3    H239067   0.339   5.915  27.234
 4958TIP3   OH239068   0.859   5.957  27.654
 4958TIP3    H139069   0.895   5.895  27.852
 4958TIP3    H239070   0.889   6.040  27.783
 4959TIP3   OH239071   1.082   7.455  27.273
 4959TIP3    H139072   1.176   7.438  27.201
 4959TIP3    H239073   1.038   7.410  27.048
 4960TIP3   OH239074   1.730   7.371  28.023
 4960TIP3    H139075   1.695   7.287  27.906
 4960TIP3    H239076   1.720   7.432  27.795
 4961TIP3   OH239077   0.329   7.368  26.799
 4961TIP3    H139078   0.287   7.428  26.997
 4961TIP3    H239079   0.396   7.325  26.964
 4962TIP3   OH239080   3.101   6.668  28.626
 4962TIP3    H139081   3.094   6.760  28.719
 4962TIP3    H239082   3.017   6.658  28.482
 4963TIP3   OH239083   2.985   6.564  29.652
 4963TIP3    H139084   2.975   6.520  29.910
 4963TIP3    H239085   2.918   6.520  29.493
 4964TIP3   OH239086   3.288   6.844  29.160
 4964TIP3    H139087   3.267   6.774  29.352
 4964TIP3    H239088   3.324   6.913  29.346
 4965TIP3   OH239089   2.314   7.003  29.670
 4965TIP3    H139090   2.277   6.917  29.583
 4965TIP3    H239091   2.409   6.984  29.634
 4966TIP3   OH239092   1.984   6.311  28.461
 4966TIP3    H139093   1.971   6.403  28.542
 4966TIP3    H239094   1.901   6.289  28.338
 4967TIP3   OH239095   2.059   6.564  28.989
 4967TIP3    H139096   2.087   6.484  29.139
 4967TIP3    H239097   2.132   6.625  29.046
 4968TIP3   OH239098   3.052   7.390  29.373
 4968TIP3    H139099   3.122   7.345  29.214
 4968TIP3    H239100   3.012   7.310  29.493
 4969TIP3   OH239101   2.849   6.861  29.988
 4969TIP3    H139102   2.886   6.809  29.772
 4969TIP3    H239103   2.904   6.831  30.207
 4970TIP3   OH239104   3.135   6.264  29.958
 4970TIP3    H139105   3.169   6.173  29.976
 4970TIP3    H239106   3.121   6.272  29.667
 4971TIP3   OH239107   2.480   6.025  29.106
 4971TIP3    H139108   2.494   6.116  28.998
 4971TIP3    H239109   2.411   5.993  28.923
 4972TIP3   OH239110   3.186   6.100  28.650
 4972TIP3    H139111   3.244   6.062  28.860
 4972TIP3    H239112   3.250   6.161  28.530
 4973TIP3   OH239113   2.105   6.293  29.304
 4973TIP3    H139114   2.171   6.234  29.436
 4973TIP3    H239115   2.117   6.263  29.025
 4974TIP3   OH239116   2.605   6.459  29.148
 4974TIP3    H139117   2.678   6.409  29.265
 4974TIP3    H239118   2.557   6.386  29.010
 4975TIP3   OH239119   3.007   6.915  28.269
 4975TIP3    H139120   2.996   6.908  27.981
 4975TIP3    H239121   3.000   7.012  28.308
 4976TIP3   OH239122   3.367   6.043  29.184
 4976TIP3    H139123   3.309   6.015  29.406
 4976TIP3    H239124   3.454   6.017  29.289
 4977TIP3   OH239125   2.310   6.177  29.667
 4977TIP3    H139126   2.345   6.268  29.643
 4977TIP3    H239127   2.353   6.132  29.445
 4978TIP3   OH239128   2.035   6.858  27.804
 4978TIP3    H139129   2.028   6.911  27.555
 4978TIP3    H239130   2.049   6.927  28.005
 4979TIP3   OH239131   3.379   7.020  29.688
 4979TIP3    H139132   3.351   6.979  29.946
 4979TIP3    H239133   3.419   7.102  29.784
 4980TIP3   OH239134   2.735   5.733  29.439
 4980TIP3    H139135   2.761   5.642  29.505
 4980TIP3    H239136   2.655   5.749  29.595
 4981TIP3   OH239137   3.219   7.256  28.929
 4981TIP3    H139138   3.226   7.161  28.857
 4981TIP3    H239139   3.298   7.290  28.782
 4982TIP3   OH239140   3.339   7.018  28.533
 4982TIP3    H139141   3.324   6.962  28.302
 4982TIP3    H239142   3.337   6.953  28.752
 4983TIP3   OH239143   2.947   6.581  27.858
 4983TIP3    H139144   2.895   6.659  27.765
 4983TIP3    H239145   3.036   6.599  27.744
 4984TIP3   OH239146   2.979   6.477  26.955
 4984TIP3    H139147   3.043   6.516  27.147
 4984TIP3    H239148   2.992   6.383  27.003
 4985TIP3   OH239149   3.331   6.591  28.206
 4985TIP3    H139150   3.254   6.620  28.371
 4985TIP3    H239151   3.394   6.561  28.413
 4986TIP3   OH239152   2.467   6.645  28.764
 4986TIP3    H139153   2.426   6.602  28.527
 4986TIP3    H239154   2.530   6.577  28.860
 4987TIP3   OH239155   2.594   7.010  29.568
 4987TIP3    H139156   2.599   7.011  29.277
 4987TIP3    H239157   2.667   6.951  29.646
 4988TIP3   OH239158   2.454   6.469  29.826
 4988TIP3    H139159   2.507   6.472  29.577
 4988TIP3    H239160   2.471   6.558  29.931
 4989TIP3   OH239161   3.185   6.557  27.489
 4989TIP3    H139162   3.242   6.574  27.720
 4989TIP3    H239163   3.243   6.588  27.267
 4990TIP3   OH239164   2.974   7.186  28.401
 4990TIP3    H139165   2.998   7.208  28.671
 4990TIP3    H239166   2.910   7.255  28.335
 4991TIP3   OH239167   3.579   5.670  27.585
 4991TIP3    H139168   3.489   5.686  27.696
 4991TIP3    H239169   3.610   5.761  27.531
 4992TIP3   OH239170   2.323   6.546  28.086
 4992TIP3    H139171   2.311   6.631  27.945
 4992TIP3    H239172   2.293   6.482  27.891
 4993TIP3   OH239173   3.683   7.113  27.087
 4993TIP3    H139174   3.716   7.205  27.072
 4993TIP3    H239175   3.766   7.061  27.093
 4994TIP3   OH239176   1.980   7.084  29.616
 4994TIP3    H139177   2.073   7.059  29.610
 4994TIP3    H239178   1.981   7.171  29.751
 4995TIP3   OH239179   2.940   7.511  28.056
 4995TIP3    H139180   2.947   7.508  27.762
 4995TIP3    H239181   2.899   7.597  28.098
 4996TIP3   OH239182   2.298   7.321  28.533
 4996TIP3    H139183   2.320   7.325  28.821
 4996TIP3    H239184   2.236   7.244  28.530
 4997TIP3   OH239185   3.224   7.386  27.261
 4997TIP3    H139186   3.295   7.327  27.153
 4997TIP3    H239187   3.225   7.363  27.549
 4998TIP3   OH239188   3.176   7.379  28.026
 4998TIP3    H139189   3.086   7.412  28.089
 4998TIP3    H239190   3.185   7.300  28.194
 4999TIP3   OH239191   2.434   5.792  29.832
 4999TIP3    H139192   2.386   5.825  29.592
 4999TIP3    H239193   2.482   5.875  29.910
 5000TIP3   OH239194   3.348   6.655  26.949
 5000TIP3    H139195   3.328   6.669  26.664
 5000TIP3    H239196   3.444   6.673  26.952
 5001TIP3   OH239197   2.910   6.021  27.039
 5001TIP3    H139198   2.865   6.007  27.294
 5001TIP3    H239199   2.860   5.959  26.874
 5002TIP3   OH239200   2.474   6.263  28.761
 5002TIP3    H139201   2.380   6.244  28.698
 5002TIP3    H239202   2.511   6.273  28.488
 5003TIP3   OH239203   3.038   6.366  28.218
 5003TIP3    H139204   3.006   6.446  28.074
 5003TIP3    H239205   3.096   6.328  28.014
 5004TIP3   OH239206   3.108   6.315  29.118
 5004TIP3    H139207   3.094   6.384  28.911
 5004TIP3    H239208   3.117   6.237  28.938
 5005TIP3   OH239209   2.547   6.046  26.742
 5005TIP3    H139210   2.504   6.010  26.988
 5005TIP3    H239211   2.477   6.100  26.622
 5006TIP3   OH239212   1.898   6.034  28.926
 5006TIP3    H139213   1.956   6.034  29.163
 5006TIP3    H239214   1.957   6.064  28.716
 5007TIP3   OH239215   2.009   6.085  27.417
 5007TIP3    H139216   2.073   6.129  27.234
 5007TIP3    H239217   1.947   6.160  27.465
 5008TIP3   OH239218   2.780   6.052  28.914
 5008TIP3    H139219   2.691   6.037  29.016
 5008TIP3    H239220   2.835   5.997  29.097
 5009TIP3   OH239221   2.211   6.195  28.626
 5009TIP3    H139222   2.132   6.233  28.491
 5009TIP3    H239223   2.230   6.116  28.461
 5010TIP3   OH239224   2.559   6.242  27.984
 5010TIP3    H139225   2.649   6.222  27.897
 5010TIP3    H239226   2.523   6.293  27.759
 5011TIP3   OH239227   3.168   5.996  29.772
 5011TIP3    H139228   3.148   5.989  30.060
 5011TIP3    H239229   3.078   5.995  29.661
 5012TIP3   OH239230   2.446   6.343  27.126
 5012TIP3    H139231   2.412   6.293  26.898
 5012TIP3    H239232   2.532   6.370  27.012
 5013TIP3   OH239233   2.843   6.320  29.538
 5013TIP3    H139234   2.895   6.291  29.307
 5013TIP3    H239235   2.883   6.269  29.751
 5014TIP3   OH239236   2.287   5.955  28.458
 5014TIP3    H139237   2.239   5.882  28.599
 5014TIP3    H239238   2.341   5.902  28.278
 5015TIP3   OH239239   2.786   6.793  27.753
 5015TIP3    H139240   2.709   6.748  27.630
 5015TIP3    H239241   2.748   6.815  28.020
 5016TIP3   OH239242   3.161   6.069  27.216
 5016TIP3    H139243   3.063   6.070  27.165
 5016TIP3    H239244   3.178   6.162  27.291
 5017TIP3   OH239245   3.231   6.290  27.591
 5017TIP3    H139246   3.302   6.262  27.771
 5017TIP3    H239247   3.256   6.382  27.531
 5018TIP3   OH239248   2.263   6.744  29.430
 5018TIP3    H139249   2.292   6.724  29.157
 5018TIP3    H239250   2.329   6.698  29.595
 5019TIP3   OH239251   2.982   6.942  27.459
 5019TIP3    H139252   2.926   7.023  27.459
 5019TIP3    H239253   2.916   6.876  27.552
 5020TIP3   OH239254   3.702   6.258  27.600
 5020TIP3    H139255   3.653   6.253  27.345
 5020TIP3    H239256   3.729   6.352  27.609
 5021TIP3   OH239257   3.529   7.142  27.735
 5021TIP3    H139258   3.505   7.061  27.876
 5021TIP3    H239259   3.583   7.108  27.513
 5022TIP3   OH239260   3.249   6.645  29.688
 5022TIP3    H139261   3.155   6.619  29.646
 5022TIP3    H239262   3.299   6.579  29.529
 5023TIP3   OH239263   2.518   7.071  28.716
 5023TIP3    H139264   2.560   7.160  28.719
 5023TIP3    H239265   2.447   7.086  28.524
 5024TIP3   OH239266   2.146   6.595  27.105
 5024TIP3    H139267   2.191   6.652  27.303
 5024TIP3    H239268   2.051   6.605  27.168
 5025TIP3   OH239269   2.640   6.829  28.422
 5025TIP3    H139270   2.605   6.915  28.512
 5025TIP3    H239271   2.603   6.768  28.626
 5026TIP3   OH239272   2.566   7.319  28.338
 5026TIP3    H139273   2.469   7.332  28.371
 5026TIP3    H239274   2.604   7.396  28.485
 5027TIP3   OH239275   3.321   6.969  27.078
 5027TIP3    H139276   3.334   6.920  27.333
 5027TIP3    H239277   3.224   6.963  27.063
 5028TIP3   OH239278   3.758   7.374  27.117
 5028TIP3    H139279   3.822   7.448  27.123
 5028TIP3    H239280   3.675   7.419  27.201
 5029TIP3   OH239281   3.387   6.831  27.771
 5029TIP3    H139282   3.356   6.744  27.870
 5029TIP3    H239283   3.482   6.813  27.732
 5030TIP3   OH239284   2.732   7.073  26.679
 5030TIP3    H139285   2.706   7.019  26.448
 5030TIP3    H239286   2.653   7.064  26.853
 5031TIP3   OH239287   2.577   7.025  27.402
 5031TIP3    H139288   2.656   6.986  27.522
 5031TIP3    H239289   2.590   7.119  27.486
 5032TIP3   OH239290   2.276   6.758  27.582
 5032TIP3    H139291   2.187   6.792  27.651
 5032TIP3    H239292   2.315   6.832  27.432
 5033TIP3   OH239293   3.102   5.974  27.987
 5033TIP3    H139294   3.155   6.007  27.765
 5033TIP3    H239295   3.143   6.017  28.221
 5034TIP3   OH239296   2.845   7.160  27.594
 5034TIP3    H139297   2.757   7.202  27.636
 5034TIP3    H239298   2.904   7.236  27.615
 5035TIP3   OH239299   2.835   6.158  28.176
 5035TIP3    H139300   2.893   6.237  28.212
 5035TIP3    H239301   2.828   6.120  28.449
 5036TIP3   OH239302   2.886   5.851  28.308
 5036TIP3    H139303   2.863   5.908  28.530
 5036TIP3    H239304   2.966   5.899  28.212
 5037TIP3   OH239305   2.607   7.279  27.558
 5037TIP3    H139306   2.608   7.358  27.378
 5037TIP3    H239307   2.582   7.316  27.819
 5038TIP3   OH239308   2.463   5.956  27.477
 5038TIP3    H139309   2.452   6.027  27.675
 5038TIP3    H239310   2.556   5.931  27.519
 5039TIP3   OH239311   3.357   6.437  29.277
 5039TIP3    H139312   3.277   6.385  29.331
 5039TIP3    H239313   3.420   6.391  29.457
 5040TIP3   OH239314   2.293   6.995  27.072
 5040TIP3    H139315   2.354   7.052  27.225
 5040TIP3    H239316   2.360   6.944  26.919
 5041TIP3   OH239317   2.130   6.293  26.901
 5041TIP3    H139318   2.184   6.365  27.009
 5041TIP3    H239319   2.048   6.341  26.835
 5042TIP3   OH239320   3.497   7.376  29.877
 5042TIP3    H139321   3.518   7.423  29.634
 5042TIP3    H239322   3.584   7.367  30.000
 5043TIP3   OH239323   2.212   5.790  29.379
 5043TIP3    H139324   2.208   5.756  29.100
 5043TIP3    H239325   2.201   5.706  29.526
 5044TIP3   OH239326   2.081   7.133  28.314
 5044TIP3    H139327   2.007   7.181  28.434
 5044TIP3    H239328   2.086   7.183  28.062
 5045TIP3   OH239329   2.922   7.272  26.658
 5045TIP3    H139330   2.874   7.189  26.721
 5045TIP3    H239331   3.000   7.238  26.517
 5046TIP3   OH239332   3.387   7.239  26.811
 5046TIP3    H139333   3.401   7.150  26.925
 5046TIP3    H239334   3.459   7.246  26.613
 5047TIP3   OH239335   2.469   6.822  26.640
 5047TIP3    H139336   2.491   6.771  26.877
 5047TIP3    H239337   2.554   6.815  26.490
 5048TIP3   OH239338   3.030   6.938  26.574
 5048TIP3    H139339   2.980   6.939  26.823
 5048TIP3    H239340   3.029   6.842  26.514
 5049TIP3   OH239341   2.583   6.647  27.411
 5049TIP3    H139342   2.513   6.593  27.528
 5049TIP3    H239343   2.624   6.587  27.219
 5050TIP3   OH239344   2.705   6.475  26.802
 5050TIP3    H139345   2.696   6.498  26.517
 5050TIP3    H239346   2.803   6.473  26.826
 5051TIP3   OH239347   3.619   6.689  26.655
 5051TIP3    H139348   3.599   6.659  26.382
 5051TIP3    H239349   3.612   6.787  26.625
 5052TIP3   OH239350   2.669   7.502  27.144
 5052TIP3    H139351   2.749   7.554  27.207
 5052TIP3    H239352   2.620   7.564  26.979
 5053TIP3   OH239353   2.023   6.957  27.066
 5053TIP3    H139354   2.121   6.964  27.039
 5053TIP3    H239355   1.997   6.913  26.814
 5054TIP3   OH239356   1.904   7.522  28.407
 5054TIP3    H139357   1.828   7.477  28.278
 5054TIP3    H239358   1.896   7.481  28.668
 5055TIP3   OH239359   1.980   7.310  29.001
 5055TIP3    H139360   1.948   7.222  29.085
 5055TIP3    H239361   2.027   7.339  29.241
 5056TIP3   OH239362   3.656   6.773  27.753
 5056TIP3    H139363   3.744   6.813  27.804
 5056TIP3    H239364   3.649   6.710  27.981
 5057TIP3   OH239365   3.684   6.609  28.434
 5057TIP3    H139366   3.617   6.551  28.566
 5057TIP3    H239367   3.756   6.608  28.629
 5058TIP3   OH239368   3.698   6.881  29.922
 5058TIP3    H139369   3.770   6.821  29.841
 5058TIP3    H239370   3.708   6.955  29.739
 5059TIP3   OH239371   3.759   6.564  27.285
 5059TIP3    H139372   3.693   6.578  27.072
 5059TIP3    H239373   3.744   6.642  27.456
 5060TIP3   OH239374   3.546   6.270  26.832
 5060TIP3    H139375   3.578   6.315  26.595
 5060TIP3    H239376   3.521   6.185  26.706
 5061TIP3   OH239377   3.505   6.418  28.626
 5061TIP3    H139378   3.477   6.333  28.509
 5061TIP3    H239379   3.457   6.417  28.884
 5062TIP3   OH239380   1.954   6.655  29.694
 5062TIP3    H139381   1.996   6.638  29.433
 5062TIP3    H239382   2.030   6.641  29.874
 5063TIP3   OH239383   3.517   6.010  26.568
 5063TIP3    H139384   3.553   5.983  26.832
 5063TIP3    H239385   3.421   6.005  26.610
 5064TIP3   OH239386   3.434   6.200  28.092
 5064TIP3    H139387   3.445   6.104  28.146
 5064TIP3    H239388   3.519   6.218  27.966
 5065TIP3   OH239389   3.518   6.272  29.643
 5065TIP3    H139390   3.615   6.266  29.628
 5065TIP3    H239391   3.498   6.181  29.748
 5066TIP3   OH239392   3.509   5.941  28.146
 5066TIP3    H139393   3.553   5.898  28.374
 5066TIP3    H239394   3.452   5.868  28.053
 5067TIP3   OH239395   2.064   6.005  29.616
 5067TIP3    H139396   2.117   5.925  29.541
 5067TIP3    H239397   2.128   6.059  29.766
 5068TIP3   OH239398   1.902   6.282  29.919
 5068TIP3    H139399   1.948   6.252  29.679
 5068TIP3    H239400   1.931   6.374  29.928
 5069TIP3   OH239401   3.697   5.926  27.177
 5069TIP3    H139402   3.735   5.873  26.958
 5069TIP3    H239403   3.778   5.947  27.330
 5070TIP3   OH239404   1.926   5.911  27.993
 5070TIP3    H139405   1.840   5.949  28.056
 5070TIP3    H239406   1.959   5.979  27.807
 5071TIP3   OH239407   3.408   7.393  28.533
 5071TIP3    H139408   3.491   7.382  28.377
 5071TIP3    H239409   3.430   7.464  28.719
 5072TIP3   OH239410   2.142   7.327  29.697
 5072TIP3    H139411   2.195   7.381  29.886
 5072TIP3    H239412   2.213   7.289  29.529
 5073TIP3   OH239413   2.353   7.258  29.280
 5073TIP3    H139414   2.363   7.162  29.331
 5073TIP3    H239415   2.433   7.292  29.421
 5074TIP3   OH239416   2.589   7.275  29.604
 5074TIP3    H139417   2.612   7.180  29.634
 5074TIP3    H239418   2.594   7.308  29.877
 5075TIP3   OH239419   2.948   5.913  29.370
 5075TIP3    H139420   2.880   5.847  29.439
 5075TIP3    H239421   3.026   5.855  29.364
 5076TIP3   OH239422   3.489   5.722  29.361
 5076TIP3    H139423   3.540   5.762  29.133
 5076TIP3    H239424   3.398   5.753  29.307
 5077TIP3   OH239425   3.639   5.814  28.764
 5077TIP3    H139426   3.707   5.758  28.641
 5077TIP3    H239427   3.692   5.897  28.812
 5078TIP3   OH239428   2.195   5.706  28.629
 5078TIP3    H139429   2.110   5.697  28.485
 5078TIP3    H239430   2.232   5.616  28.590
 5079TIP3   OH239431   2.059   5.719  27.414
 5079TIP3    H139432   2.088   5.785  27.219
 5079TIP3    H239433   2.008   5.773  27.606
 5080TIP3   OH239434   2.630   5.685  28.680
 5080TIP3    H139435   2.677   5.717  28.446
 5080TIP3    H239436   2.682   5.724  28.896
 5081TIP3   OH239437   3.224   5.751  29.097
 5081TIP3    H139438   3.197   5.774  28.830
 5081TIP3    H239439   3.176   5.668  29.148
 5082TIP3   OH239440   3.349   5.738  27.942
 5082TIP3    H139441   3.288   5.761  27.732
 5082TIP3    H239442   3.311   5.653  28.038
 5083TIP3   OH239443   2.053   7.302  27.717
 5083TIP3    H139444   1.960   7.312  27.633
 5083TIP3    H239445   2.091   7.379  27.576
 5084TIP3   OH239446   2.194   5.908  26.943
 5084TIP3    H139447   2.262   5.856  26.808
 5084TIP3    H239448   2.225   5.903  27.216
 5085TIP3   OH239449   2.740   5.958  27.672
 5085TIP3    H139450   2.775   5.893  27.861
 5085TIP3    H239451   2.771   6.040  27.804
 5086TIP3   OH239452   2.965   7.459  27.270
 5086TIP3    H139453   3.055   7.429  27.192
 5086TIP3    H239454   2.914   7.409  27.072
 5087TIP3   OH239455   3.616   7.373  28.029
 5087TIP3    H139456   3.586   7.287  27.906
 5087TIP3    H239457   3.595   7.436  27.813
 5088TIP3   OH239458   2.253   7.435  26.844
 5088TIP3    H139459   2.182   7.448  27.036
 5088TIP3    H239460   2.296   7.355  26.940
 5089TIP3   OH239461   4.999   6.667  28.620
 5089TIP3    H139462   4.990   6.757  28.728
 5089TIP3    H239463   4.908   6.648  28.536
 5090TIP3   OH239464   4.888   6.562  29.631
 5090TIP3    H139465   4.869   6.521  29.886
 5090TIP3    H239466   4.798   6.595  29.568
 5091TIP3   OH239467   5.179   6.845  29.175
 5091TIP3    H139468   5.156   6.773  29.361
 5091TIP3    H239469   5.216   6.912  29.367
 5092TIP3   OH239470   4.220   7.012  29.673
 5092TIP3    H139471   4.194   6.921  29.580
 5092TIP3    H239472   4.318   7.001  29.679
 5093TIP3   OH239473   3.860   6.311  28.359
 5093TIP3    H139474   3.846   6.400  28.464
 5093TIP3    H239475   3.770   6.282  28.299
 5094TIP3   OH239476   3.935   6.560  28.986
 5094TIP3    H139477   3.976   6.483  29.124
 5094TIP3    H239478   4.005   6.627  28.980
 5095TIP3   OH239479   4.941   7.401  29.346
 5095TIP3    H139480   5.008   7.351  29.193
 5095TIP3    H239481   4.901   7.324  29.484
 5096TIP3   OH239482   4.723   6.906  29.907
 5096TIP3    H139483   4.686   6.817  29.835
 5096TIP3    H239484   4.805   6.880  30.042
 5097TIP3   OH239485   5.029   6.262  29.982
 5097TIP3    H139486   5.040   6.167  29.925
 5097TIP3    H239487   5.014   6.293  29.709
 5098TIP3   OH239488   4.340   6.070  29.109
 5098TIP3    H139489   4.350   6.138  28.896
 5098TIP3    H239490   4.291   6.002  28.959
 5099TIP3   OH239491   5.079   6.085  28.614
 5099TIP3    H139492   5.132   6.051  28.845
 5099TIP3    H239493   5.141   6.152  28.521
 5100TIP3   OH239494   3.995   6.295  29.295
 5100TIP3    H139495   4.058   6.238  29.439
 5100TIP3    H239496   4.002   6.254  29.025
 5101TIP3   OH239497   4.457   6.438  29.091
 5101TIP3    H139498   4.539   6.401  29.211
 5101TIP3    H239499   4.428   6.370  28.902
 5102TIP3   OH239500   4.901   6.919  28.284
 5102TIP3    H139501   4.883   6.914  27.996
 5102TIP3    H239502   4.901   7.016  28.320
 5103TIP3   OH239503   5.261   6.041  29.169
 5103TIP3    H139504   5.207   6.017  29.406
 5103TIP3    H239505   5.349   6.015  29.265
 5104TIP3   OH239506   4.213   6.181  29.754
 5104TIP3    H139507   4.241   6.274  29.718
 5104TIP3    H239508   4.246   6.140  29.505
 5105TIP3   OH239509   3.917   6.858  27.834
 5105TIP3    H139510   3.916   6.919  27.603
 5105TIP3    H239511   3.943   6.917  28.053
 5106TIP3   OH239512   5.272   7.024  29.685
 5106TIP3    H139513   5.253   6.991  29.958
 5106TIP3    H239514   5.323   7.105  29.736
 5107TIP3   OH239515   4.605   5.714  29.457
 5107TIP3    H139516   4.623   5.620  29.496
 5107TIP3    H239517   4.512   5.723  29.553
 5108TIP3   OH239518   5.101   7.257  28.920
 5108TIP3    H139519   5.112   7.163  28.851
 5108TIP3    H239520   5.179   7.294  28.776
 5109TIP3   OH239521   5.219   7.020  28.542
 5109TIP3    H139522   5.207   6.964  28.305
 5109TIP3    H239523   5.213   6.952  28.758
 5110TIP3   OH239524   4.828   6.578  27.843
 5110TIP3    H139525   4.783   6.664  27.804
 5110TIP3    H239526   4.919   6.597  27.744
 5111TIP3   OH239527   4.871   6.476  26.958
 5111TIP3    H139528   4.930   6.510  27.171
 5111TIP3    H239529   4.891   6.380  26.970
 5112TIP3   OH239530   5.226   6.587  28.191
 5112TIP3    H139531   5.152   6.619  28.359
 5112TIP3    H239532   5.285   6.543  28.386
 5113TIP3   OH239533   4.325   6.661  28.797
 5113TIP3    H139534   4.311   6.615  28.545
 5113TIP3    H239535   4.381   6.595  28.944
 5114TIP3   OH239536   4.492   7.013  29.586
 5114TIP3    H139537   4.496   6.973  29.319
 5114TIP3    H239538   4.561   6.959  29.724
 5115TIP3   OH239539   4.338   6.442  29.820
 5115TIP3    H139540   4.390   6.449  29.571
 5115TIP3    H239541   4.367   6.524  29.946
 5116TIP3   OH239542   5.069   6.560  27.519
 5116TIP3    H139543   5.128   6.569  27.753
 5116TIP3    H239544   5.128   6.588  27.294
 5117TIP3   OH239545   4.865   7.208  28.374
 5117TIP3    H139546   4.886   7.224  28.653
 5117TIP3    H239547   4.800   7.278  28.317
 5118TIP3   OH239548   5.466   5.674  27.588
 5118TIP3    H139549   5.370   5.692  27.612
 5118TIP3    H239550   5.503   5.762  27.522
 5119TIP3   OH239551   4.203   6.549  28.083
 5119TIP3    H139552   4.196   6.637  27.954
 5119TIP3    H239553   4.177   6.490  27.867
 5120TIP3   OH239554   5.567   7.110  27.060
 5120TIP3    H139555   5.605   7.201  27.051
 5120TIP3    H239556   5.648   7.057  27.099
 5121TIP3   OH239557   3.867   7.086  29.619
 5121TIP3    H139558   3.960   7.061  29.634
 5121TIP3    H239559   3.863   7.171  29.757
 5122TIP3   OH239560   4.822   7.507  28.038
 5122TIP3    H139561   4.825   7.503  27.744
 5122TIP3    H239562   4.783   7.594  28.083
 5123TIP3   OH239563   4.189   7.319  28.536
 5123TIP3    H139564   4.210   7.329  28.824
 5123TIP3    H239565   4.127   7.243  28.548
 5124TIP3   OH239566   5.111   7.388  27.237
 5124TIP3    H139567   5.178   7.327  27.129
 5124TIP3    H239568   5.113   7.367  27.525
 5125TIP3   OH239569   5.063   7.384  28.014
 5125TIP3    H139570   4.974   7.419  28.077
 5125TIP3    H239571   5.067   7.302  28.170
 5126TIP3   OH239572   4.358   5.842  29.673
 5126TIP3    H139573   4.273   5.845  29.529
 5126TIP3    H239574   4.365   5.932  29.787
 5127TIP3   OH239575   5.230   6.652  26.955
 5127TIP3    H139576   5.217   6.670  26.670
 5127TIP3    H239577   5.325   6.671  26.985
 5128TIP3   OH239578   4.800   6.026  27.003
 5128TIP3    H139579   4.761   6.013  27.264
 5128TIP3    H239580   4.745   5.963  26.856
 5129TIP3   OH239581   4.329   6.263  28.551
 5129TIP3    H139582   4.237   6.243  28.479
 5129TIP3    H239583   4.378   6.255  28.296
 5130TIP3   OH239584   4.910   6.377  28.257
 5130TIP3    H139585   4.880   6.455  28.092
 5130TIP3    H239586   4.975   6.341  28.071
 5131TIP3   OH239587   5.003   6.314  29.148
 5131TIP3    H139588   4.973   6.389  28.983
 5131TIP3    H239589   5.004   6.243  28.944
 5132TIP3   OH239590   4.442   6.053  26.772
 5132TIP3    H139591   4.389   6.012  26.988
 5132TIP3    H239592   4.374   6.097  26.610
 5133TIP3   OH239593   3.783   6.033  28.929
 5133TIP3    H139594   3.846   6.035  29.154
 5133TIP3    H239595   3.839   6.057  28.707
 5134TIP3   OH239596   3.895   6.084  27.444
 5134TIP3    H139597   3.963   6.127  27.279
 5134TIP3    H239598   3.829   6.157  27.459
 5135TIP3   OH239599   4.640   6.035  28.791
 5135TIP3    H139600   4.561   6.043  28.959
 5135TIP3    H239601   4.707   6.011  28.995
 5136TIP3   OH239602   4.037   6.151  28.647
 5136TIP3    H139603   3.987   6.194  28.428
 5136TIP3    H239604   4.084   6.076  28.515
 5137TIP3   OH239605   4.451   6.234  27.864
 5137TIP3    H139606   4.542   6.234  27.762
 5137TIP3    H239607   4.402   6.282  27.654
 5138TIP3   OH239608   5.064   6.010  29.733
 5138TIP3    H139609   5.053   5.965  29.991
 5138TIP3    H239610   4.974   6.002  29.625
 5139TIP3   OH239611   4.333   6.343  27.156
 5139TIP3    H139612   4.301   6.291  26.928
 5139TIP3    H239613   4.414   6.378  27.027
 5140TIP3   OH239614   4.697   6.305  29.439
 5140TIP3    H139615   4.786   6.308  29.319
 5140TIP3    H239616   4.714   6.276  29.709
 5141TIP3   OH239617   4.178   5.946  28.440
 5141TIP3    H139618   4.130   5.873  28.581
 5141TIP3    H239619   4.234   5.896  28.266
 5142TIP3   OH239620   4.673   6.791  27.792
 5142TIP3    H139621   4.596   6.746  27.672
 5142TIP3    H239622   4.631   6.819  28.047
 5143TIP3   OH239623   5.047   6.060  27.288
 5143TIP3    H139624   4.961   6.077  27.156
 5143TIP3    H239625   5.075   6.151  27.354
 5144TIP3   OH239626   5.108   6.292  27.603
 5144TIP3    H139627   5.177   6.261  27.783
 5144TIP3    H239628   5.145   6.377  27.507
 5145TIP3   OH239629   4.157   6.753  29.454
 5145TIP3    H139630   4.194   6.733  29.190
 5145TIP3    H239631   4.229   6.725  29.628
 5146TIP3   OH239632   4.865   6.937  27.474
 5146TIP3    H139633   4.810   7.018  27.477
 5146TIP3    H239634   4.799   6.869  27.561
 5147TIP3   OH239635   5.579   6.265  27.639
 5147TIP3    H139636   5.541   6.261  27.366
 5147TIP3    H239637   5.616   6.356  27.636
 5148TIP3   OH239638   5.419   7.144  27.732
 5148TIP3    H139639   5.386   7.062  27.843
 5148TIP3    H239640   5.469   7.115  27.492
 5149TIP3   OH239641   5.144   6.646  29.706
 5149TIP3    H139642   5.049   6.623  29.661
 5149TIP3    H239643   5.190   6.574  29.556
 5150TIP3   OH239644   4.399   7.079  28.689
 5150TIP3    H139645   4.447   7.164  28.713
 5150TIP3    H239646   4.331   7.102  28.494
 5151TIP3   OH239647   4.032   6.585  27.048
 5151TIP3    H139648   4.075   6.644  27.246
 5151TIP3    H239649   3.937   6.594  27.108
 5152TIP3   OH239650   4.516   6.827  28.410
 5152TIP3    H139651   4.475   6.905  28.539
 5152TIP3    H239652   4.520   6.764  28.632
 5153TIP3   OH239653   4.453   7.333  28.311
 5153TIP3    H139654   4.356   7.337  28.359
 5153TIP3    H239655   4.487   7.410  28.470
 5154TIP3   OH239656   5.206   6.966  27.090
 5154TIP3    H139657   5.223   6.918  27.339
 5154TIP3    H239658   5.110   6.958  27.078
 5155TIP3   OH239659   5.642   7.373  27.108
 5155TIP3    H139660   5.704   7.447  27.120
 5155TIP3    H239661   5.556   7.418  27.171
 5156TIP3   OH239662   5.272   6.826  27.771
 5156TIP3    H139663   5.246   6.741  27.894
 5156TIP3    H239664   5.368   6.811  27.744
 5157TIP3   OH239665   4.609   7.076  26.685
 5157TIP3    H139666   4.582   7.020  26.463
 5157TIP3    H239667   4.539   7.056  26.880
 5158TIP3   OH239668   4.463   7.016  27.405
 5158TIP3    H139669   4.541   6.975  27.525
 5158TIP3    H239670   4.479   7.110  27.480
 5159TIP3   OH239671   4.152   6.756  27.558
 5159TIP3    H139672   4.063   6.786  27.642
 5159TIP3    H239673   4.188   6.834  27.423
 5160TIP3   OH239674   4.992   5.940  27.975
 5160TIP3    H139675   5.019   5.992  27.738
 5160TIP3    H239676   5.033   5.988  28.197
 5161TIP3   OH239677   4.734   7.162  27.573
 5161TIP3    H139678   4.651   7.211  27.630
 5161TIP3    H239679   4.798   7.235  27.579
 5162TIP3   OH239680   4.733   6.154  28.098
 5162TIP3    H139681   4.769   6.243  28.155
 5162TIP3    H239682   4.696   6.125  28.359
 5163TIP3   OH239683   4.777   5.834  28.314
 5163TIP3    H139684   4.749   5.906  28.494
 5163TIP3    H239685   4.855   5.876  28.188
 5164TIP3   OH239686   4.494   7.276  27.543
 5164TIP3    H139687   4.482   7.353  27.363
 5164TIP3    H239688   4.468   7.310  27.810
 5165TIP3   OH239689   4.338   5.966  27.477
 5165TIP3    H139690   4.335   6.050  27.621
 5165TIP3    H239691   4.430   5.937  27.534
 5166TIP3   OH239692   5.248   6.439  29.289
 5166TIP3    H139693   5.167   6.386  29.331
 5166TIP3    H239694   5.314   6.388  29.448
 5167TIP3   OH239695   4.179   6.992  27.096
 5167TIP3    H139696   4.242   7.040  27.267
 5167TIP3    H239697   4.242   6.945  26.922
 5168TIP3   OH239698   4.015   6.291  26.988
 5168TIP3    H139699   4.063   6.375  27.027
 5168TIP3    H239700   3.943   6.314  26.811
 5169TIP3   OH239701   5.384   7.373  29.850
 5169TIP3    H139702   5.405   7.427  29.613
 5169TIP3    H239703   5.467   7.377  29.997
 5170TIP3   OH239704   4.115   5.792  29.400
 5170TIP3    H139705   4.100   5.760  29.127
 5170TIP3    H239706   4.109   5.708  29.550
 5171TIP3   OH239707   3.982   7.129  28.362
 5171TIP3    H139708   3.907   7.172  28.494
 5171TIP3    H239709   3.979   7.170  28.098
 5172TIP3   OH239710   4.808   7.275  26.655
 5172TIP3    H139711   4.760   7.192  26.724
 5172TIP3    H239712   4.886   7.241  26.511
 5173TIP3   OH239713   5.277   7.231  26.823
 5173TIP3    H139714   5.292   7.142  26.931
 5173TIP3    H239715   5.343   7.239  26.607
 5174TIP3   OH239716   4.354   6.826  26.643
 5174TIP3    H139717   4.382   6.788  26.898
 5174TIP3    H239718   4.436   6.811  26.487
 5175TIP3   OH239719   4.913   6.945  26.619
 5175TIP3    H139720   4.864   6.949  26.871
 5175TIP3    H239721   4.908   6.848  26.562
 5176TIP3   OH239722   4.465   6.642  27.399
 5176TIP3    H139723   4.411   6.579  27.549
 5176TIP3    H239724   4.510   6.584  27.201
 5177TIP3   OH239725   4.587   6.472  26.814
 5177TIP3    H139726   4.588   6.500  26.532
 5177TIP3    H239727   4.684   6.466  26.865
 5178TIP3   OH239728   5.512   6.682  26.643
 5178TIP3    H139729   5.486   6.647  26.379
 5178TIP3    H239730   5.498   6.779  26.610
 5179TIP3   OH239731   4.547   7.507  27.144
 5179TIP3    H139732   4.622   7.558  27.237
 5179TIP3    H239733   4.499   7.569  26.976
 5180TIP3   OH239734   3.908   6.957  27.054
 5180TIP3    H139735   4.005   6.970  27.036
 5180TIP3    H239736   3.891   6.908  26.805
 5181TIP3   OH239737   3.789   7.526  28.431
 5181TIP3    H139738   3.714   7.482  28.296
 5181TIP3    H239739   3.784   7.479  28.686
 5182TIP3   OH239740   3.847   7.323  29.043
 5182TIP3    H139741   3.814   7.234  29.112
 5182TIP3    H239742   3.908   7.341  29.265
 5183TIP3   OH239743   5.540   6.775  27.756
 5183TIP3    H139744   5.629   6.814  27.807
 5183TIP3    H239745   5.534   6.711  27.978
 5184TIP3   OH239746   5.569   6.605  28.419
 5184TIP3    H139747   5.503   6.544  28.539
 5184TIP3    H239748   5.635   6.611  28.632
 5185TIP3   OH239749   5.577   6.882  29.910
 5185TIP3    H139750   5.642   6.817  29.811
 5185TIP3    H239751   5.579   6.951  29.709
 5186TIP3   OH239752   5.645   6.562  27.291
 5186TIP3    H139753   5.581   6.579  27.075
 5186TIP3    H239754   5.628   6.639  27.465
 5187TIP3   OH239755   5.462   6.290  26.814
 5187TIP3    H139756   5.471   6.344  26.574
 5187TIP3    H239757   5.434   6.204  26.703
 5188TIP3   OH239758   5.386   6.407  28.593
 5188TIP3    H139759   5.356   6.327  28.449
 5188TIP3    H239760   5.345   6.399  28.863
 5189TIP3   OH239761   3.866   6.670  29.694
 5189TIP3    H139762   3.894   6.630  29.439
 5189TIP3    H239763   3.938   6.645  29.874
 5190TIP3   OH239764   5.385   6.026  26.610
 5190TIP3    H139765   5.430   5.984  26.835
 5190TIP3    H239766   5.297   5.987  26.619
 5191TIP3   OH239767   5.326   6.199  28.104
 5191TIP3    H139768   5.340   6.103  28.161
 5191TIP3    H239769   5.410   6.217  27.966
 5192TIP3   OH239770   5.414   6.271  29.631
 5192TIP3    H139771   5.510   6.249  29.631
 5192TIP3    H239772   5.381   6.188  29.748
 5193TIP3   OH239773   5.415   5.937  28.137
 5193TIP3    H139774   5.444   5.893  28.383
 5193TIP3    H239775   5.355   5.869  28.023
 5194TIP3   OH239776   3.951   6.000  29.634
 5194TIP3    H139777   4.002   5.922  29.541
 5194TIP3    H239778   4.012   6.041  29.826
 5195TIP3   OH239779   3.785   6.288  29.874
 5195TIP3    H139780   3.841   6.246  29.670
 5195TIP3    H239781   3.818   6.378  29.856
 5196TIP3   OH239782   5.571   5.915  27.162
 5196TIP3    H139783   5.619   5.865  26.955
 5196TIP3    H239784   5.638   5.983  27.234
 5197TIP3   OH239785   3.803   5.913  27.993
 5197TIP3    H139786   3.710   5.941  28.014
 5197TIP3    H239787   3.839   5.980  27.813
 5198TIP3   OH239788   5.294   7.396  28.548
 5198TIP3    H139789   5.375   7.386  28.383
 5198TIP3    H239790   5.319   7.464  28.740
 5199TIP3   OH239791   4.026   7.341  29.673
 5199TIP3    H139792   4.068   7.395  29.883
 5199TIP3    H239793   4.106   7.304  29.538
 5200TIP3   OH239794   4.241   7.258  29.295
 5200TIP3    H139795   4.246   7.162  29.358
 5200TIP3    H239796   4.328   7.284  29.406
 5201TIP3   OH239797   4.480   7.276  29.592
 5201TIP3    H139798   4.501   7.180  29.601
 5201TIP3    H239799   4.482   7.302  29.874
 5202TIP3   OH239800   4.833   5.906  29.349
 5202TIP3    H139801   4.761   5.849  29.445
 5202TIP3    H239802   4.905   5.841  29.370
 5203TIP3   OH239803   5.372   5.724  29.373
 5203TIP3    H139804   5.429   5.764  29.163
 5203TIP3    H239805   5.282   5.755  29.301
 5204TIP3   OH239806   5.531   5.805  28.782
 5204TIP3    H139807   5.599   5.754  28.638
 5204TIP3    H239808   5.579   5.890  28.824
 5205TIP3   OH239809   4.064   5.713  28.653
 5205TIP3    H139810   3.979   5.692  28.521
 5205TIP3    H239811   4.109   5.626  28.620
 5206TIP3   OH239812   3.958   5.716  27.462
 5206TIP3    H139813   3.988   5.780  27.258
 5206TIP3    H239814   3.900   5.772  27.624
 5207TIP3   OH239815   4.502   5.684  28.674
 5207TIP3    H139816   4.579   5.714  28.521
 5207TIP3    H239817   4.530   5.708  28.944
 5208TIP3   OH239818   5.121   5.750  29.085
 5208TIP3    H139819   5.084   5.775  28.827
 5208TIP3    H239820   5.072   5.669  29.154
 5209TIP3   OH239821   5.228   5.745  27.942
 5209TIP3    H139822   5.135   5.772  27.897
 5209TIP3    H239823   5.213   5.656  28.056
 5210TIP3   OH239824   3.937   7.302  27.738
 5210TIP3    H139825   3.843   7.311  27.657
 5210TIP3    H239826   3.974   7.376  27.582
 5211TIP3   OH239827   4.086   5.923  27.015
 5211TIP3    H139828   4.155   5.872  26.877
 5211TIP3    H239829   4.133   5.951  27.258
 5212TIP3   OH239830   4.634   5.953  27.627
 5212TIP3    H139831   4.666   5.889  27.822
 5212TIP3    H239832   4.658   6.036  27.768
 5213TIP3   OH239833   4.849   7.462  27.255
 5213TIP3    H139834   4.941   7.436  27.183
 5213TIP3    H239835   4.800   7.412  27.051
 5214TIP3   OH239836   5.503   7.372  28.032
 5214TIP3    H139837   5.472   7.287  27.915
 5214TIP3    H239838   5.482   7.435  27.816
 5215TIP3   OH239839   4.116   7.417  26.826
 5215TIP3    H139840   4.063   7.443  27.060
 5215TIP3    H239841   4.174   7.350  26.943
 5216TIP3   OH239842   6.880   6.659  28.626
 5216TIP3    H139843   6.873   6.754  28.686
 5216TIP3    H239844   6.798   6.642  28.485
 5217TIP3   OH239845   6.747   6.556  29.628
 5217TIP3    H139846   6.750   6.521  29.904
 5217TIP3    H239847   6.684   6.496  29.496
 5218TIP3   OH239848   7.065   6.851  29.154
 5218TIP3    H139849   7.020   6.786  29.331
 5218TIP3    H239850   7.092   6.918  29.349
 5219TIP3   OH239851   6.086   6.997  29.661
 5219TIP3    H139852   6.056   6.907  29.586
 5219TIP3    H239853   6.182   6.983  29.637
 5220TIP3   OH239854   5.759   6.298  28.395
 5220TIP3    H139855   5.749   6.391  28.470
 5220TIP3    H239856   5.670   6.277  28.296
 5221TIP3   OH239857   5.827   6.570  28.998
 5221TIP3    H139858   5.870   6.495  29.136
 5221TIP3    H239859   5.901   6.631  28.944
 5222TIP3   OH239860   6.821   7.392  29.382
 5222TIP3    H139861   6.882   7.339  29.223
 5222TIP3    H239862   6.785   7.320  29.544
 5223TIP3   OH239863   6.621   6.858  29.985
 5223TIP3    H139864   6.657   6.804  29.769
 5223TIP3    H239865   6.679   6.832  30.204
 5224TIP3   OH239866   6.907   6.273  29.979
 5224TIP3    H139867   6.926   6.179  30.027
 5224TIP3    H239868   6.891   6.275  29.691
 5225TIP3   OH239869   6.249   6.054  29.142
 5225TIP3    H139870   6.256   6.134  28.974
 5225TIP3    H239871   6.200   5.996  28.962
 5226TIP3   OH239872   6.969   6.107  28.638
 5226TIP3    H139873   7.022   6.058  28.839
 5226TIP3    H239874   7.041   6.160  28.521
 5227TIP3   OH239875   5.872   6.304  29.298
 5227TIP3    H139876   5.936   6.254  29.460
 5227TIP3    H239877   5.894   6.271  29.028
 5228TIP3   OH239878   6.369   6.455  29.139
 5228TIP3    H139879   6.445   6.401  29.220
 5228TIP3    H239880   6.319   6.390  28.977
 5229TIP3   OH239881   6.791   6.911  28.308
 5229TIP3    H139882   6.761   6.904  28.029
 5229TIP3    H239883   6.779   7.006  28.356
 5230TIP3   OH239884   7.140   6.026  29.175
 5230TIP3    H139885   7.093   6.004  29.427
 5230TIP3    H239886   7.233   6.014  29.244
 5231TIP3   OH239887   6.070   6.165  29.673
 5231TIP3    H139888   6.110   6.253  29.709
 5231TIP3    H239889   6.126   6.126  29.460
 5232TIP3   OH239890   5.801   6.858  27.819
 5232TIP3    H139891   5.803   6.914  27.576
 5232TIP3    H239892   5.821   6.923  28.026
 5233TIP3   OH239893   7.180   7.043  29.688
 5233TIP3    H139894   7.116   7.003  29.877
 5233TIP3    H239895   7.166   7.138  29.742
 5234TIP3   OH239896   6.511   5.728  29.469
 5234TIP3    H139897   6.511   5.631  29.496
 5234TIP3    H239898   6.423   5.755  29.571
 5235TIP3   OH239899   6.966   7.245  28.896
 5235TIP3    H139900   6.995   7.159  28.788
 5235TIP3    H239901   7.045   7.298  28.818
 5236TIP3   OH239902   7.111   7.014  28.518
 5236TIP3    H139903   7.088   6.939  28.347
 5236TIP3    H239904   7.123   6.963  28.767
 5237TIP3   OH239905   6.711   6.572  27.837
 5237TIP3    H139906   6.653   6.651  27.825
 5237TIP3    H239907   6.790   6.606  27.696
 5238TIP3   OH239908   6.765   6.477  26.943
 5238TIP3    H139909   6.832   6.526  27.099
 5238TIP3    H239910   6.761   6.397  27.105
 5239TIP3   OH239911   7.093   6.587  28.149
 5239TIP3    H139912   7.025   6.610  28.350
 5239TIP3    H239913   7.152   6.530  28.314
 5240TIP3   OH239914   6.234   6.649  28.737
 5240TIP3    H139915   6.198   6.607  28.494
 5240TIP3    H239916   6.300   6.583  28.830
 5241TIP3   OH239917   6.362   7.011  29.580
 5241TIP3    H139918   6.358   6.996  29.292
 5241TIP3    H239919   6.438   6.958  29.664
 5242TIP3   OH239920   6.211   6.458  29.790
 5242TIP3    H139921   6.272   6.471  29.559
 5242TIP3    H239922   6.227   6.540  29.940
 5243TIP3   OH239923   6.949   6.551  27.483
 5243TIP3    H139924   6.995   6.564  27.741
 5243TIP3    H239925   7.015   6.592  27.297
 5244TIP3   OH239926   6.740   7.172  28.431
 5244TIP3    H139927   6.782   7.195  28.686
 5244TIP3    H239928   6.687   7.250  28.371
 5245TIP3   OH239929   7.325   5.682  27.504
 5245TIP3    H139930   7.228   5.691  27.531
 5245TIP3    H239931   7.355   5.775  27.495
 5246TIP3   OH239932   6.087   6.550  28.074
 5246TIP3    H139933   6.073   6.636  27.936
 5246TIP3    H239934   6.057   6.488  27.873
 5247TIP3   OH239935   7.463   7.139  26.961
 5247TIP3    H139936   7.486   7.232  27.018
 5247TIP3    H239937   7.552   7.103  26.994
 5248TIP3   OH239938   5.756   7.083  29.610
 5248TIP3    H139939   5.850   7.062  29.634
 5248TIP3    H239940   5.747   7.168  29.751
 5249TIP3   OH239941   6.714   7.503  28.050
 5249TIP3    H139942   6.715   7.496  27.756
 5249TIP3    H239943   6.674   7.590  28.086
 5250TIP3   OH239944   6.070   7.318  28.557
 5250TIP3    H139945   6.097   7.329  28.839
 5250TIP3    H239946   6.004   7.246  28.587
 5251TIP3   OH239947   6.990   7.394  27.237
 5251TIP3    H139948   7.058   7.332  27.123
 5251TIP3    H239949   6.990   7.362  27.516
 5252TIP3   OH239950   6.945   7.368  28.017
 5252TIP3    H139951   6.859   7.411  28.074
 5252TIP3    H239952   6.941   7.287  28.179
 5253TIP3   OH239953   6.245   5.833  29.712
 5253TIP3    H139954   6.174   5.809  29.520
 5253TIP3    H239955   6.206   5.913  29.817
 5254TIP3   OH239956   7.104   6.662  26.964
 5254TIP3    H139957   7.079   6.673  26.682
 5254TIP3    H239958   7.200   6.682  26.949
 5255TIP3   OH239959   6.681   6.043  26.997
 5255TIP3    H139960   6.634   6.028  27.252
 5255TIP3    H239961   6.628   5.982  26.835
 5256TIP3   OH239962   6.250   6.272  28.677
 5256TIP3    H139963   6.153   6.256  28.638
 5256TIP3    H239964   6.283   6.265  28.398
 5257TIP3   OH239965   6.826   6.386  28.257
 5257TIP3    H139966   6.780   6.450  28.074
 5257TIP3    H239967   6.877   6.336  28.059
 5258TIP3   OH239968   6.851   6.315  29.100
 5258TIP3    H139969   6.848   6.380  28.881
 5258TIP3    H239970   6.886   6.238  28.950
 5259TIP3   OH239971   6.322   6.069  26.838
 5259TIP3    H139972   6.274   6.010  27.021
 5259TIP3    H239973   6.252   6.094  26.646
 5260TIP3   OH239974   5.671   6.034  28.902
 5260TIP3    H139975   5.732   6.039  29.130
 5260TIP3    H239976   5.727   6.057  28.677
 5261TIP3   OH239977   5.775   6.086  27.384
 5261TIP3    H139978   5.848   6.116  27.210
 5261TIP3    H239979   5.726   6.170  27.423
 5262TIP3   OH239980   6.549   6.051  28.860
 5262TIP3    H139981   6.468   6.054  29.016
 5262TIP3    H239982   6.607   5.999  29.037
 5263TIP3   OH239983   5.984   6.197  28.653
 5263TIP3    H139984   5.907   6.228  28.491
 5263TIP3    H239985   6.000   6.107  28.548
 5264TIP3   OH239986   6.328   6.238  27.927
 5264TIP3    H139987   6.415   6.239  27.804
 5264TIP3    H239988   6.279   6.295  27.747
 5265TIP3   OH239989   6.957   6.001  29.748
 5265TIP3    H139990   6.941   5.971  30.018
 5265TIP3    H239991   6.866   6.008  29.655
 5266TIP3   OH239992   6.202   6.351  27.162
 5266TIP3    H139993   6.172   6.282  26.976
 5266TIP3    H239994   6.286   6.374  27.033
 5267TIP3   OH239995   6.607   6.308  29.502
 5267TIP3    H139996   6.685   6.285  29.337
 5267TIP3    H239997   6.615   6.250  29.736
 5268TIP3   OH239998   6.074   5.959  28.491
 5268TIP3    H139999   6.017   5.880  28.548
 5268TIP3    H240000   6.126   5.928  28.266
 5269TIP3   OH240001   6.557   6.792  27.753
 5269TIP3    H140002   6.481   6.742  27.642
 5269TIP3    H240003   6.514   6.825  28.002
 5270TIP3   OH240004   6.930   6.060  27.240
 5270TIP3    H140005   6.837   6.077  27.150
 5270TIP3    H240006   6.962   6.149  27.315
 5271TIP3   OH240007   7.028   6.284  27.600
 5271TIP3    H140008   7.105   6.272  27.780
 5271TIP3    H240009   7.042   6.372  27.486
 5272TIP3   OH240010   6.039   6.743  29.427
 5272TIP3    H140011   6.078   6.735  29.160
 5272TIP3    H240012   6.100   6.690  29.586
 5273TIP3   OH240013   6.756   6.933  27.483
 5273TIP3    H140014   6.699   7.014  27.513
 5273TIP3    H240015   6.692   6.862  27.549
 5274TIP3   OH240016   7.439   6.279  27.636
 5274TIP3    H140017   7.412   6.243  27.375
 5274TIP3    H240018   7.460   6.371  27.546
 5275TIP3   OH240019   7.309   7.150  27.717
 5275TIP3    H140020   7.254   7.077  27.819
 5275TIP3    H240021   7.361   7.105  27.510
 5276TIP3   OH240022   6.981   6.678  29.694
 5276TIP3    H140023   6.890   6.642  29.646
 5276TIP3    H240024   7.029   6.617  29.508
 5277TIP3   OH240025   6.281   7.072  28.719
 5277TIP3    H140026   6.332   7.156  28.698
 5277TIP3    H240027   6.206   7.091  28.545
 5278TIP3   OH240028   5.920   6.586  27.108
 5278TIP3    H140029   5.959   6.644  27.312
 5278TIP3    H240030   5.822   6.591  27.147
 5279TIP3   OH240031   6.412   6.836  28.410
 5279TIP3    H140032   6.374   6.916  28.533
 5279TIP3    H240033   6.373   6.766  28.578
 5280TIP3   OH240034   6.336   7.319  28.341
 5280TIP3    H140035   6.240   7.330  28.380
 5280TIP3    H240036   6.371   7.399  28.482
 5281TIP3   OH240037   7.090   6.980  27.141
 5281TIP3    H140038   7.106   6.920  27.372
 5281TIP3    H240039   6.996   6.963  27.093
 5282TIP3   OH240040   7.560   7.377  27.240
 5282TIP3    H140041   7.595   7.452  27.087
 5282TIP3    H240042   7.466   7.402  27.255
 5283TIP3   OH240043   7.181   6.827  27.762
 5283TIP3    H140044   7.149   6.738  27.840
 5283TIP3    H240045   7.277   6.811  27.726
 5284TIP3   OH240046   6.495   7.085  26.652
 5284TIP3    H140047   6.484   7.016  26.454
 5284TIP3    H240048   6.427   7.061  26.853
 5285TIP3   OH240049   6.357   7.026  27.384
 5285TIP3    H140050   6.434   6.983  27.501
 5285TIP3    H240051   6.370   7.118  27.489
 5286TIP3   OH240052   6.047   6.757  27.582
 5286TIP3    H140053   5.960   6.794  27.645
 5286TIP3    H240054   6.092   6.832  27.447
 5287TIP3   OH240055   6.871   5.976  27.990
 5287TIP3    H140056   6.880   6.016  27.723
 5287TIP3    H240057   6.906   6.045  28.170
 5288TIP3   OH240058   6.626   7.159  27.567
 5288TIP3    H140059   6.541   7.208  27.597
 5288TIP3    H240060   6.689   7.231  27.555
 5289TIP3   OH240061   6.648   6.185  28.242
 5289TIP3    H140062   6.698   6.267  28.314
 5289TIP3    H240063   6.633   6.142  28.503
 5290TIP3   OH240064   6.661   5.846  28.287
 5290TIP3    H140065   6.629   5.907  28.494
 5290TIP3    H240066   6.742   5.895  28.194
 5291TIP3   OH240067   6.394   7.282  27.561
 5291TIP3    H140068   6.398   7.361  27.384
 5291TIP3    H240069   6.362   7.316  27.822
 5292TIP3   OH240070   6.191   5.989  27.549
 5292TIP3    H140071   6.229   6.065  27.693
 5292TIP3    H240072   6.268   5.930  27.531
 5293TIP3   OH240073   7.078   6.471  29.265
 5293TIP3    H140074   7.003   6.409  29.247
 5293TIP3    H240075   7.140   6.421  29.436
 5294TIP3   OH240076   6.067   6.989  27.102
 5294TIP3    H140077   6.129   7.043  27.264
 5294TIP3    H240078   6.133   6.941  26.937
 5295TIP3   OH240079   5.900   6.284  26.922
 5295TIP3    H140080   5.940   6.367  27.009
 5295TIP3    H240081   5.830   6.317  26.748
 5296TIP3   OH240082   7.278   7.339  29.874
 5296TIP3    H140083   7.263   7.407  29.667
 5296TIP3    H240084   7.366   7.366  29.964
 5297TIP3   OH240085   6.009   5.787  29.370
 5297TIP3    H140086   5.985   5.748  29.109
 5297TIP3    H240087   5.990   5.712  29.550
 5298TIP3   OH240088   5.859   7.132  28.323
 5298TIP3    H140089   5.782   7.180  28.431
 5298TIP3    H240090   5.865   7.180  28.068
 5299TIP3   OH240091   6.696   7.273  26.679
 5299TIP3    H140092   6.641   7.191  26.703
 5299TIP3    H240093   6.778   7.239  26.550
 5300TIP3   OH240094   7.158   7.234  26.841
 5300TIP3    H140095   7.171   7.146  26.964
 5300TIP3    H240096   7.230   7.240  26.649
 5301TIP3   OH240097   6.234   6.828  26.652
 5301TIP3    H140098   6.237   6.748  26.817
 5301TIP3    H240099   6.323   6.824  26.532
 5302TIP3   OH240100   6.791   6.942  26.628
 5302TIP3    H140101   6.754   6.936  26.898
 5302TIP3    H240102   6.781   6.847  26.553
 5303TIP3   OH240103   6.352   6.632  27.435
 5303TIP3    H140104   6.281   6.575  27.528
 5303TIP3    H240105   6.392   6.578  27.222
 5304TIP3   OH240106   6.481   6.473  26.832
 5304TIP3    H140107   6.469   6.478  26.538
 5304TIP3    H240108   6.579   6.475  26.844
 5305TIP3   OH240109   7.361   6.681  26.691
 5305TIP3    H140110   7.347   6.659  26.406
 5305TIP3    H240111   7.396   6.772  26.673
 5306TIP3   OH240112   6.443   7.503  27.141
 5306TIP3    H140113   6.527   7.546  27.210
 5306TIP3    H240114   6.399   7.567  26.970
 5307TIP3   OH240115   5.794   6.956  27.066
 5307TIP3    H140116   5.892   6.966  27.051
 5307TIP3    H240117   5.775   6.911  26.808
 5308TIP3   OH240118   5.677   7.527  28.422
 5308TIP3    H140119   5.599   7.489  28.293
 5308TIP3    H240120   5.670   7.480  28.677
 5309TIP3   OH240121   5.743   7.320  29.025
 5309TIP3    H140122   5.706   7.233  29.100
 5309TIP3    H240123   5.799   7.340  29.259
 5310TIP3   OH240124   7.454   6.783  27.777
 5310TIP3    H140125   7.533   6.832  27.849
 5310TIP3    H240126   7.448   6.719  28.002
 5311TIP3   OH240127   7.464   6.617  28.392
 5311TIP3    H140128   7.380   6.575  28.470
 5311TIP3    H240129   7.513   6.616  28.644
 5312TIP3   OH240130   7.565   6.818  29.595
 5312TIP3    H140131   7.656   6.788  29.667
 5312TIP3    H240132   7.585   6.912  29.541
 5313TIP3   OH240133   7.489   6.547  27.387
 5313TIP3    H140134   7.446   6.571  27.138
 5313TIP3    H240135   7.496   6.634  27.513
 5314TIP3   OH240136   7.322   6.268  26.835
 5314TIP3    H140137   7.346   6.331  26.628
 5314TIP3    H240138   7.302   6.188  26.676
 5315TIP3   OH240139   7.245   6.438  28.617
 5315TIP3    H140140   7.267   6.345  28.665
 5315TIP3    H240141   7.208   6.463  28.878
 5316TIP3   OH240142   5.738   6.664  29.718
 5316TIP3    H140143   5.773   6.632  29.460
 5316TIP3    H240144   5.815   6.649  29.892
 5317TIP3   OH240145   7.259   6.028  26.541
 5317TIP3    H140146   7.264   5.995  26.814
 5317TIP3    H240147   7.168   5.997  26.466
 5318TIP3   OH240148   7.243   6.191  28.122
 5318TIP3    H140149   7.259   6.096  28.167
 5318TIP3    H240150   7.330   6.218  28.017
 5319TIP3   OH240151   7.254   6.298  29.529
 5319TIP3    H140152   7.352   6.290  29.541
 5319TIP3    H240153   7.225   6.223  29.691
 5320TIP3   OH240154   7.264   5.916  28.167
 5320TIP3    H140155   7.280   5.883  28.440
 5320TIP3    H240156   7.205   5.846  28.050
 5321TIP3   OH240157   5.838   6.001  29.625
 5321TIP3    H140158   5.884   5.920  29.535
 5321TIP3    H240159   5.910   6.051  29.751
 5322TIP3   OH240160   5.680   6.288  29.904
 5322TIP3    H140161   5.726   6.249  29.670
 5322TIP3    H240162   5.710   6.380  29.874
 5323TIP3   OH240163   7.482   5.914  27.219
 5323TIP3    H140164   7.509   5.863  26.985
 5323TIP3    H240165   7.497   6.006  27.135
 5324TIP3   OH240166   5.699   5.919  27.993
 5324TIP3    H140167   5.605   5.937  28.029
 5324TIP3    H240168   5.721   5.980  27.777
 5325TIP3   OH240169   7.169   7.392  28.587
 5325TIP3    H140170   7.235   7.395  28.371
 5325TIP3    H240171   7.207   7.459  28.770
 5326TIP3   OH240172   5.914   7.338  29.688
 5326TIP3    H140173   5.961   7.399  29.868
 5326TIP3    H240174   5.989   7.298  29.538
 5327TIP3   OH240175   6.127   7.260  29.304
 5327TIP3    H140176   6.134   7.163  29.346
 5327TIP3    H240177   6.213   7.289  29.418
 5328TIP3   OH240178   6.363   7.280  29.610
 5328TIP3    H140179   6.379   7.183  29.613
 5328TIP3    H240180   6.367   7.304  29.892
 5329TIP3   OH240181   6.714   5.913  29.337
 5329TIP3    H140182   6.658   5.840  29.424
 5329TIP3    H240183   6.798   5.864  29.307
 5330TIP3   OH240184   7.215   5.709  29.475
 5330TIP3    H140185   7.267   5.763  29.286
 5330TIP3    H240186   7.126   5.733  29.385
 5331TIP3   OH240187   7.361   5.828  28.914
 5331TIP3    H140188   7.427   5.766  28.794
 5331TIP3    H240189   7.410   5.913  28.896
 5332TIP3   OH240190   5.946   5.707  28.623
 5332TIP3    H140191   5.855   5.690  28.524
 5332TIP3    H240192   5.985   5.617  28.599
 5333TIP3   OH240193   5.816   5.714  27.438
 5333TIP3    H140194   5.854   5.781  27.252
 5333TIP3    H240195   5.784   5.771  27.657
 5334TIP3   OH240196   6.385   5.695  28.752
 5334TIP3    H140197   6.443   5.717  28.533
 5334TIP3    H240198   6.435   5.728  28.983
 5335TIP3   OH240199   6.964   5.763  29.049
 5335TIP3    H140200   6.960   5.778  28.767
 5335TIP3    H240201   6.916   5.678  29.088
 5336TIP3   OH240202   7.081   5.746  27.912
 5336TIP3    H140203   7.001   5.800  27.942
 5336TIP3    H240204   7.048   5.656  27.975
 5337TIP3   OH240205   5.818   7.302  27.741
 5337TIP3    H140206   5.726   7.310  27.657
 5337TIP3    H240207   5.858   7.374  27.582
 5338TIP3   OH240208   5.979   5.912  27.024
 5338TIP3    H140209   6.045   5.847  26.922
 5338TIP3    H240210   6.024   5.932  27.276
 5339TIP3   OH240211   6.532   5.973  27.624
 5339TIP3    H140212   6.561   5.900  27.795
 5339TIP3    H240213   6.547   6.050  27.795
 5340TIP3   OH240214   6.726   7.461  27.252
 5340TIP3    H140215   6.815   7.438  27.150
 5340TIP3    H240216   6.673   7.406  27.066
 5341TIP3   OH240217   7.370   7.389  28.041
 5341TIP3    H140218   7.353   7.296  27.954
 5341TIP3    H240219   7.373   7.437  27.786
 5342TIP3   OH240220   6.003   7.425  26.811
 5342TIP3    H140221   5.955   7.444  27.057
 5342TIP3    H240222   6.064   7.355  26.895
 5343TIP3   OH240223   7.558   6.367  28.380
 5343TIP3    H140224   7.523   6.453  28.293
 5343TIP3    H240225   7.517   6.308  28.182
 5344TIP3   OH240226   7.558   7.078  29.760
 5344TIP3    H140227   7.657   7.087  29.733
 5344TIP3    H240228   7.530   7.161  29.622
 5345TIP3   OH240229   7.501   6.056  28.797
 5345TIP3    H140230   7.597   6.068  28.854
 5345TIP3    H240231   7.504   6.020  28.524
 5346TIP3   OH240232   7.487   7.491  28.686
 5346TIP3    H140233   7.444   7.450  28.452
 5346TIP3    H240234   7.437   7.450  28.902
 5347TIP3   OH240235   7.563   7.291  29.286
 5347TIP3    H140236   7.580   7.237  29.049
 5347TIP3    H240237   7.648   7.338  29.283
 5348TIP3   OH240238   7.657   6.531  29.751
 5348TIP3    H140239   7.712   6.564  29.526
 5348TIP3    H240240   7.677   6.597  29.958
 5349TIP3   OH240241   7.505   6.312  29.781
 5349TIP3    H140242   7.579   6.258  29.691
 5349TIP3    H240243   7.549   6.400  29.793
 5350TIP3   OH240244   7.524   5.943  28.068
 5350TIP3    H140245   7.427   5.941  28.032
 5350TIP3    H240246   7.555   5.934  27.792
 5351TIP3   OH240247   0.837   7.517  29.715
 5351TIP3    H140248   0.873   7.454  29.520
 5351TIP3    H240249   0.741   7.515  29.646
 5352TIP3   OH240250   1.678   7.519  27.387
 5352TIP3    H140251   1.601   7.516  27.567
 5352TIP3    H240252   1.688   7.617  27.375
 5353TIP3   OH240253   0.578   7.601  29.679
 5353TIP3    H140254   0.507   7.570  29.856
 5353TIP3    H240255   0.589   7.693  29.781
 5354TIP3   OH240256   0.288   7.594  29.496
 5354TIP3    H140257   0.290   7.583  29.202
 5354TIP3    H240258   0.248   7.512  29.592
 5355TIP3   OH240259   1.624   7.552  29.187
 5355TIP3    H140260   1.631   7.643  29.301
 5355TIP3    H240261   1.526   7.548  29.184
 5356TIP3   OH240262   0.273   7.574  28.638
 5356TIP3    H140263   0.195   7.558  28.467
 5356TIP3    H240264   0.327   7.493  28.599
 5357TIP3   OH240265   0.219   7.551  27.387
 5357TIP3    H140266   0.244   7.634  27.258
 5357TIP3    H240267   0.152   7.584  27.576
 5358TIP3   OH240268   0.748   7.537  28.746
 5358TIP3    H140269   0.781   7.607  28.566
 5358TIP3    H240270   0.716   7.595  28.962
 5359TIP3   OH240271   1.355   7.577  29.040
 5359TIP3    H140272   1.278   7.607  28.893
 5359TIP3    H240273   1.314   7.508  29.208
 5360TIP3   OH240274   1.474   7.580  27.870
 5360TIP3    H140275   1.403   7.568  27.675
 5360TIP3    H240276   1.436   7.534  28.104
 5361TIP3   OH240277   2.708   7.521  29.706
 5361TIP3    H140278   2.740   7.461  29.496
 5361TIP3    H240279   2.611   7.531  29.637
 5362TIP3   OH240280   3.556   7.525  27.384
 5362TIP3    H140281   3.480   7.538  27.570
 5362TIP3    H240282   3.579   7.620  27.354
 5363TIP3   OH240283   2.455   7.597  29.661
 5363TIP3    H140284   2.365   7.574  29.757
 5363TIP3    H240285   2.462   7.690  29.763
 5364TIP3   OH240286   2.155   7.588  29.454
 5364TIP3    H140287   2.155   7.571  29.163
 5364TIP3    H240288   2.118   7.505  29.562
 5365TIP3   OH240289   3.517   7.550  29.175
 5365TIP3    H140290   3.528   7.635  29.316
 5365TIP3    H240291   3.420   7.543  29.196
 5366TIP3   OH240292   2.166   7.549  28.590
 5366TIP3    H140293   2.080   7.535  28.455
 5366TIP3    H240294   2.215   7.467  28.509
 5367TIP3   OH240295   2.072   7.541  27.411
 5367TIP3    H140296   2.117   7.628  27.396
 5367TIP3    H240297   2.007   7.568  27.612
 5368TIP3   OH240298   2.636   7.534  28.734
 5368TIP3    H140299   2.648   7.617  28.587
 5368TIP3    H240300   2.576   7.567  28.938
 5369TIP3   OH240301   3.229   7.580  28.995
 5369TIP3    H140302   3.168   7.566  28.776
 5369TIP3    H240303   3.194   7.517  29.190
 5370TIP3   OH240304   3.353   7.591  27.897
 5370TIP3    H140305   3.301   7.573  27.660
 5370TIP3    H240306   3.313   7.527  28.083
 5371TIP3   OH240307   4.597   7.519  29.712
 5371TIP3    H140308   4.629   7.451  29.526
 5371TIP3    H240309   4.499   7.520  29.661
 5372TIP3   OH240310   5.442   7.524  27.387
 5372TIP3    H140311   5.367   7.532  27.576
 5372TIP3    H240312   5.461   7.620  27.366
 5373TIP3   OH240313   4.339   7.601  29.655
 5373TIP3    H140314   4.254   7.577  29.781
 5373TIP3    H240315   4.353   7.691  29.769
 5374TIP3   OH240316   4.034   7.595  29.430
 5374TIP3    H140317   4.042   7.576  29.142
 5374TIP3    H240318   4.011   7.507  29.532
 5375TIP3   OH240319   5.406   7.550  29.190
 5375TIP3    H140320   5.421   7.637  29.319
 5375TIP3    H240321   5.309   7.551  29.190
 5376TIP3   OH240322   4.057   7.548  28.572
 5376TIP3    H140323   3.969   7.527  28.458
 5376TIP3    H240324   4.109   7.468  28.494
 5377TIP3   OH240325   3.962   7.542  27.405
 5377TIP3    H140326   4.010   7.627  27.381
 5377TIP3    H240327   3.898   7.572  27.606
 5378TIP3   OH240328   4.519   7.544  28.749
 5378TIP3    H140329   4.521   7.632  28.617
 5378TIP3    H240330   4.464   7.569  28.977
 5379TIP3   OH240331   5.129   7.583  28.995
 5379TIP3    H140332   5.077   7.567  28.758
 5379TIP3    H240333   5.084   7.524  29.190
 5380TIP3   OH240334   5.242   7.594  27.885
 5380TIP3    H140335   5.187   7.583  27.651
 5380TIP3    H240336   5.197   7.532  28.071
 5381TIP3   OH240337   6.484   7.522  29.709
 5381TIP3    H140338   6.518   7.472  29.481
 5381TIP3    H240339   6.387   7.528  29.652
 5382TIP3   OH240340   7.311   7.510  27.291
 5382TIP3    H140341   7.239   7.511  27.495
 5382TIP3    H240342   7.322   7.607  27.255
 5383TIP3   OH240343   6.227   7.598  29.676
 5383TIP3    H140344   6.143   7.571  29.799
 5383TIP3    H240345   6.236   7.689  29.787
 5384TIP3   OH240346   5.920   7.596  29.427
 5384TIP3    H140347   5.929   7.579  29.139
 5384TIP3    H240348   5.893   7.509  29.529
 5385TIP3   OH240349   7.265   7.528  29.262
 5385TIP3    H140350   7.284   7.607  29.424
 5385TIP3    H240351   7.171   7.544  29.202
 5386TIP3   OH240352   5.942   7.548  28.575
 5386TIP3    H140353   5.855   7.522  28.461
 5386TIP3    H240354   5.995   7.468  28.515
 5387TIP3   OH240355   5.855   7.539  27.438
 5387TIP3    H140356   5.896   7.627  27.408
 5387TIP3    H240357   5.787   7.565  27.633
 5388TIP3   OH240358   6.395   7.540  28.734
 5388TIP3    H140359   6.421   7.625  28.608
 5388TIP3    H240360   6.330   7.576  28.917
 5389TIP3   OH240361   6.992   7.579  29.007
 5389TIP3    H140362   6.931   7.583  28.785
 5389TIP3    H240363   6.946   7.516  29.184
 5390TIP3   OH240364   7.122   7.568  27.864
 5390TIP3    H140365   7.054   7.591  27.672
 5390TIP3    H240366   7.077   7.490  27.987
 5391TIP3   OH240367   1.205   1.013   2.034
 5391TIP3    H140368   1.187   1.109   2.046
 5391TIP3    H240369   1.136   0.981   1.857
 5392TIP3   OH240370   1.120   0.886   3.042
 5392TIP3    H140371   1.097   0.858   3.315
 5392TIP3    H240372   1.052   0.839   2.883
 5393TIP3   OH240373   0.331   0.910   3.531
 5393TIP3    H140374   0.295   0.838   3.693
 5393TIP3    H240375   0.399   0.943   3.717
 5394TIP3   OH240376   1.420   1.204   2.658
 5394TIP3    H140377   1.397   1.126   2.820
 5394TIP3    H240378   1.454   1.264   2.862
 5395TIP3   OH240379   0.376   1.353   3.003
 5395TIP3    H140380   0.368   1.261   2.901
 5395TIP3    H240381   0.473   1.351   3.030
 5396TIP3   OH240382   0.130   0.658   1.548
 5396TIP3    H140383   0.124   0.739   1.707
 5396TIP3    H240384   0.044   0.615   1.614
 5397TIP3   OH240385   0.118   0.923   2.511
 5397TIP3    H140386   0.162   0.837   2.577
 5397TIP3    H240387   0.178   0.964   2.322
 5398TIP3   OH240388   1.188   1.757   2.646
 5398TIP3    H140389   1.256   1.700   2.514
 5398TIP3    H240390   1.134   1.687   2.760
 5399TIP3   OH240391   0.917   1.190   3.318
 5399TIP3    H140392   0.948   1.133   3.102
 5399TIP3    H240393   1.003   1.217   3.429
 5400TIP3   OH240394   1.784   0.325   3.300
 5400TIP3    H140395   1.791   0.390   3.519
 5400TIP3    H240396   1.851   0.362   3.120
 5401TIP3   OH240397   1.271   0.635   3.414
 5401TIP3    H140398   1.293   0.542   3.468
 5401TIP3    H240399   1.260   0.632   3.123
 5402TIP3   OH240400   0.581   0.424   2.493
 5402TIP3    H140401   0.601   0.497   2.307
 5402TIP3    H240402   0.546   0.359   2.301
 5403TIP3   OH240403   1.322   0.427   1.944
 5403TIP3    H140404   1.369   0.412   2.202
 5403TIP3    H240405   1.380   0.493   1.824
 5404TIP3   OH240406   0.224   0.672   2.697
 5404TIP3    H140407   0.286   0.614   2.838
 5404TIP3    H240408   0.241   0.649   2.418
 5405TIP3   OH240409   0.714   0.836   2.550
 5405TIP3    H140410   0.787   0.786   2.673
 5405TIP3    H240411   0.680   0.765   2.376
 5406TIP3   OH240412   1.814   0.461   3.993
 5406TIP3    H140413   1.771   0.550   3.966
 5406TIP3    H240414   1.811   0.449   4.281
 5407TIP3   OH240415   0.452   0.323   3.714
 5407TIP3    H140416   0.417   0.368   3.477
 5407TIP3    H240417   0.377   0.333   3.900
 5408TIP3   OH240418   1.148   1.275   1.692
 5408TIP3    H140419   1.138   1.268   1.401
 5408TIP3    H240420   1.139   1.371   1.734
 5409TIP3   OH240421   0.726   1.061   3.735
 5409TIP3    H140422   0.662   1.121   3.864
 5409TIP3    H240423   0.785   1.125   3.600
 5410TIP3   OH240424   1.483   0.431   2.613
 5410TIP3    H140425   1.447   0.379   2.835
 5410TIP3    H240426   1.573   0.450   2.703
 5411TIP3   OH240427   0.396   0.503   3.090
 5411TIP3    H140428   0.453   0.570   3.225
 5411TIP3    H240429   0.456   0.472   2.874
 5412TIP3   OH240430   0.581   1.308   3.906
 5412TIP3    H140431   0.559   1.382   3.729
 5412TIP3    H240432   0.492   1.290   4.017
 5413TIP3   OH240433   0.108   1.241   1.188
 5413TIP3    H140434   0.116   1.278   0.915
 5413TIP3    H240435   0.145   1.311   1.362
 5414TIP3   OH240436   1.523   1.423   3.273
 5414TIP3    H140437   1.426   1.435   3.312
 5414TIP3    H240438   1.543   1.510   3.159
 5415TIP3   OH240439   1.545   0.220   3.702
 5415TIP3    H140440   1.469   0.250   3.540
 5415TIP3    H240441   1.613   0.216   3.489
 5416TIP3   OH240442   0.837   0.110   2.757
 5416TIP3    H140443   0.843   0.025   2.904
 5416TIP3    H240444   0.774   0.160   2.928
 5417TIP3   OH240445   1.342   1.581   2.277
 5417TIP3    H140446   1.358   1.503   2.109
 5417TIP3    H240447   1.426   1.630   2.217
 5418TIP3   OH240448   1.443   1.379   1.824
 5418TIP3    H140449   1.442   1.308   1.620
 5418TIP3    H240450   1.443   1.326   2.067
 5419TIP3   OH240451   1.613   1.247   4.434
 5419TIP3    H140452   1.636   1.178   4.236
 5419TIP3    H240453   1.623   1.328   4.269
 5420TIP3   OH240454   1.053   0.940   1.266
 5420TIP3    H140455   1.015   1.029   1.215
 5420TIP3    H240456   1.134   0.941   1.101
 5421TIP3   OH240457   1.107   0.789   0.411
 5421TIP3    H140458   1.189   0.818   0.555
 5421TIP3    H240459   1.128   0.699   0.327
 5422TIP3   OH240460   1.815   0.886   3.705
 5422TIP3    H140461   1.766   0.967   3.765
 5422TIP3    H240462   1.878   0.921   3.507
 5423TIP3   OH240463   1.429   0.907   1.605
 5423TIP3    H140464   1.355   0.947   1.755
 5423TIP3    H240465   1.492   0.886   1.818
 5424TIP3   OH240466   1.416   0.753   4.335
 5424TIP3    H140467   1.407   0.847   4.398
 5424TIP3    H240468   1.346   0.743   4.134
 5425TIP3   OH240469   0.564   1.020   2.157
 5425TIP3    H140470   0.498   0.979   1.974
 5425TIP3    H240471   0.616   0.943   2.253
 5426TIP3   OH240472   0.714   1.328   2.922
 5426TIP3    H140473   0.725   1.328   2.631
 5426TIP3    H240474   0.788   1.275   3.027
 5427TIP3   OH240475   0.603   0.889   3.267
 5427TIP3    H140476   0.649   0.904   3.009
 5427TIP3    H240477   0.643   0.956   3.447
 5428TIP3   OH240478   1.268   1.451   3.480
 5428TIP3    H140479   1.249   1.505   3.714
 5428TIP3    H240480   1.248   1.361   3.579
 5429TIP3   OH240481   0.706   1.334   4.608
 5429TIP3    H140482   0.630   1.379   4.734
 5429TIP3    H240483   0.673   1.322   4.332
 5430TIP3   OH240484   1.286   0.902   0.894
 5430TIP3    H140485   1.347   0.888   1.122
 5430TIP3    H240486   1.350   0.924   0.681
 5431TIP3   OH240487   0.435   0.996   4.236
 5431TIP3    H140488   0.439   1.060   4.458
 5431TIP3    H240489   0.356   0.945   4.314
 5432TIP3   OH240490   1.088   1.594   1.719
 5432TIP3    H140491   1.096   1.585   2.007
 5432TIP3    H240492   1.024   1.667   1.680
 5433TIP3   OH240493   0.521   1.516   4.908
 5433TIP3    H140494   0.515   1.534   4.620
 5433TIP3    H240495   0.426   1.512   4.980
 5434TIP3   OH240496   1.686   0.088   0.891
 5434TIP3    H140497   1.614   0.131   1.032
 5434TIP3    H240498   1.716   0.158   0.705
 5435TIP3   OH240499   0.401   0.909   1.575
 5435TIP3    H140500   0.392   0.985   1.392
 5435TIP3    H240501   0.417   0.834   1.398
 5436TIP3   OH240502   1.794   1.504   0.411
 5436TIP3    H140503   1.823   1.597   0.447
 5436TIP3    H240504   1.877   1.454   0.456
 5437TIP3   OH240505   0.159   1.164   4.167
 5437TIP3    H140506   0.063   1.154   4.125
 5437TIP3    H240507   0.191   1.082   4.038
 5438TIP3   OH240508   0.133   1.473   3.006
 5438TIP3    H140509   0.204   1.404   3.033
 5438TIP3    H240510   0.146   1.519   3.258
 5439TIP3   OH240511   1.872   1.505   4.929
 5439TIP3    H140512   1.856   1.416   4.821
 5439TIP3    H240513   1.781   1.525   5.022
 5440TIP3   OH240514   0.955   1.462   4.536
 5440TIP3    H140515   0.970   1.549   4.665
 5440TIP3    H240516   0.859   1.446   4.584
 5441TIP3   OH240517   0.995   1.828   1.329
 5441TIP3    H140518   1.039   1.845   1.071
 5441TIP3    H240519   1.024   1.906   1.485
 5442TIP3   OH240520   0.408   1.684   2.004
 5442TIP3    H140521   0.427   1.663   2.286
 5442TIP3    H240522   0.312   1.671   1.989
 5443TIP3   OH240523   1.307   1.800   0.609
 5443TIP3    H140524   1.364   1.726   0.507
 5443TIP3    H240525   1.329   1.801   0.891
 5444TIP3   OH240526   1.287   1.745   1.443
 5444TIP3    H140527   1.194   1.718   1.452
 5444TIP3    H240528   1.326   1.669   1.587
 5445TIP3   OH240529   1.551   0.639   4.998
 5445TIP3    H140530   1.516   0.685   4.758
 5445TIP3    H240531   1.549   0.548   4.893
 5446TIP3   OH240532   0.349   1.325   4.350
 5446TIP3    H140533   0.358   1.272   4.596
 5446TIP3    H240534   0.269   1.278   4.242
 5447TIP3   OH240535   0.590   0.205   3.087
 5447TIP3    H140536   0.503   0.226   2.964
 5447TIP3    H240537   0.587   0.263   3.321
 5448TIP3   OH240538   0.999   0.188   4.338
 5448TIP3    H140539   1.042   0.100   4.332
 5448TIP3    H240540   0.911   0.165   4.239
 5449TIP3   OH240541   1.363   0.466   4.431
 5449TIP3    H140542   1.305   0.451   4.668
 5449TIP3    H240543   1.360   0.563   4.425
 5450TIP3   OH240544   1.473   1.001   0.429
 5450TIP3    H140545   1.445   0.961   0.168
 5450TIP3    H240546   1.565   1.026   0.357
 5451TIP3   OH240547   0.987   0.361   0.462
 5451TIP3    H140548   0.953   0.300   0.666
 5451TIP3    H240549   0.961   0.319   0.213
 5452TIP3   OH240550   0.607   0.625   3.486
 5452TIP3    H140551   0.596   0.657   3.762
 5452TIP3    H240552   0.603   0.712   3.348
 5453TIP3   OH240553   0.610   0.642   2.070
 5453TIP3    H140554   0.513   0.626   2.028
 5453TIP3    H240555   0.638   0.618   1.797
 5454TIP3   OH240556   1.149   0.728   1.674
 5454TIP3    H140557   1.107   0.799   1.509
 5454TIP3    H240558   1.220   0.700   1.488
 5455TIP3   OH240559   1.074   0.708   5.208
 5455TIP3    H140560   1.003   0.676   5.031
 5455TIP3    H240561   1.142   0.639   5.190
 5456TIP3   OH240562   1.247   0.638   2.517
 5456TIP3    H140563   1.233   0.718   2.358
 5456TIP3    H240564   1.244   0.570   2.307
 5457TIP3   OH240565   0.320   0.653   3.960
 5457TIP3    H140566   0.394   0.695   4.107
 5457TIP3    H240567   0.333   0.562   4.053
 5458TIP3   OH240568   0.672   0.420   0.129
 5458TIP3    H140569   0.648   0.403   0.405
 5458TIP3    H240570   0.603   0.480   0.039
 5459TIP3   OH240571   0.107   0.444   2.295
 5459TIP3    H140572   0.159   0.415   2.523
 5459TIP3    H240573   0.136   0.384   2.082
 5460TIP3   OH240574   0.128   0.441   0.828
 5460TIP3    H140575   0.205   0.487   0.717
 5460TIP3    H240576   0.066   0.514   0.867
 5461TIP3   OH240577   1.133   0.825   3.843
 5461TIP3    H140578   1.199   0.773   3.687
 5461TIP3    H240579   1.095   0.751   4.005
 5462TIP3   OH240580   0.877   0.393   2.277
 5462TIP3    H140581   0.791   0.368   2.394
 5462TIP3    H240582   0.936   0.376   2.505
 5463TIP3   OH240583   0.358   0.587   1.884
 5463TIP3    H140584   0.282   0.606   1.707
 5463TIP3    H240585   0.380   0.495   1.809
 5464TIP3   OH240586   0.666   0.563   1.311
 5464TIP3    H140587   0.764   0.566   1.305
 5464TIP3    H240588   0.641   0.617   1.077
 5465TIP3   OH240589   1.290   0.313   3.234
 5465TIP3    H140590   1.235   0.327   3.471
 5465TIP3    H240591   1.225   0.276   3.045
 5466TIP3   OH240592   0.574   0.696   0.678
 5466TIP3    H140593   0.492   0.651   0.591
 5466TIP3    H240594   0.621   0.715   0.432
 5467TIP3   OH240595   1.608   1.918   5.175
 5467TIP3    H140596   1.642   1.966   4.941
 5467TIP3    H240597   1.687   1.926   5.346
 5468TIP3   OH240598   0.424   1.145   4.923
 5468TIP3    H140599   0.478   1.150   5.172
 5468TIP3    H240600   0.342   1.108   5.031
 5469TIP3   OH240601   0.947   0.681   2.856
 5469TIP3    H140602   1.007   0.631   2.685
 5469TIP3    H240603   0.947   0.628   3.099
 5470TIP3   OH240604   0.476   0.322   1.824
 5470TIP3    H140605   0.420   0.247   1.920
 5470TIP3    H240606   0.525   0.280   1.611
 5471TIP3   OH240607   0.879   0.478   3.540
 5471TIP3    H140608   0.816   0.550   3.495
 5471TIP3    H240609   0.945   0.522   3.708
 5472TIP3   OH240610   0.904   1.166   1.161
 5472TIP3    H140611   0.828   1.118   1.041
 5472TIP3    H240612   0.866   1.179   1.431
 5473TIP3   OH240613   1.651   1.092   3.819
 5473TIP3    H140614   1.697   1.144   3.606
 5473TIP3    H240615   1.565   1.080   3.687
 5474TIP3   OH240616   1.241   0.430   0.654
 5474TIP3    H140617   1.151   0.452   0.564
 5474TIP3    H240618   1.287   0.516   0.645
 5475TIP3   OH240619   1.000   1.188   4.422
 5475TIP3    H140620   0.961   1.132   4.629
 5475TIP3    H240621   0.971   1.278   4.497
 5476TIP3   OH240622   1.334   0.642   1.086
 5476TIP3    H140623   1.418   0.619   1.221
 5476TIP3    H240624   1.371   0.680   0.843
 5477TIP3   OH240625   0.422   1.103   2.784
 5477TIP3    H140626   0.473   1.081   2.541
 5477TIP3    H240627   0.443   1.027   2.958
 5478TIP3   OH240628   1.121   1.296   0.819
 5478TIP3    H140629   1.079   1.384   0.849
 5478TIP3    H240630   1.045   1.238   0.882
 5479TIP3   OH240631   0.178   0.888   4.296
 5479TIP3    H140632   0.174   0.843   4.551
 5479TIP3    H240633   0.082   0.887   4.230
 5480TIP3   OH240634   0.797   0.926   5.133
 5480TIP3    H140635   0.748   0.847   5.037
 5480TIP3    H240636   0.886   0.890   5.091
 5481TIP3   OH240637   1.298   1.423   4.509
 5481TIP3    H140638   1.214   1.429   4.368
 5481TIP3    H240639   1.270   1.452   4.776
 5482TIP3   OH240640   1.823   0.657   1.137
 5482TIP3    H140641   1.789   0.615   0.891
 5482TIP3    H240642   1.833   0.748   1.041
 5483TIP3   OH240643   1.851   1.206   4.797
 5483TIP3    H140644   1.764   1.220   4.665
 5483TIP3    H240645   1.910   1.202   4.560
 5484TIP3   OH240646   1.680   1.481   1.149
 5484TIP3    H140647   1.595   1.436   1.161
 5484TIP3    H240648   1.704   1.474   0.864
 5485TIP3   OH240649   1.385   0.993   3.156
 5485TIP3    H140650   1.298   0.959   3.069
 5485TIP3    H240651   1.444   0.926   3.048
 5486TIP3   OH240652   0.629   1.425   2.136
 5486TIP3    H140653   0.664   1.510   2.031
 5486TIP3    H240654   0.547   1.417   1.980
 5487TIP3   OH240655   0.235   0.904   0.429
 5487TIP3    H140656   0.290   0.976   0.534
 5487TIP3    H240657   0.152   0.912   0.576
 5488TIP3   OH240658   0.769   1.184   1.893
 5488TIP3    H140659   0.713   1.261   1.950
 5488TIP3    H240660   0.727   1.113   2.052
 5489TIP3   OH240661   0.848   1.610   3.930
 5489TIP3    H140662   0.909   1.677   3.819
 5489TIP3    H240663   0.909   1.559   4.104
 5490TIP3   OH240664   0.670   1.667   1.782
 5490TIP3    H140665   0.578   1.690   1.851
 5490TIP3    H240666   0.714   1.753   1.830
 5491TIP3   OH240667   1.147   1.209   3.726
 5491TIP3    H140668   1.094   1.182   3.963
 5491TIP3    H240669   1.189   1.124   3.666
 5492TIP3   OH240670   1.395   1.303   0.423
 5492TIP3    H140671   1.419   1.219   0.558
 5492TIP3    H240672   1.308   1.314   0.546
 5493TIP3   OH240673   1.467   1.654   4.464
 5493TIP3    H140674   1.384   1.604   4.419
 5493TIP3    H240675   1.474   1.713   4.230
 5494TIP3   OH240676   1.868   1.760   0.573
 5494TIP3    H140677   1.928   1.833   0.498
 5494TIP3    H240678   1.801   1.813   0.726
 5495TIP3   OH240679   0.273   0.411   4.344
 5495TIP3    H140680   0.187   0.456   4.332
 5495TIP3    H240681   0.246   0.319   4.389
 5496TIP3   OH240682   1.485   1.182   1.164
 5496TIP3    H140683   1.460   1.092   1.089
 5496TIP3    H240684   1.581   1.178   1.119
 5497TIP3   OH240685   0.243   1.571   3.762
 5497TIP3    H140686   0.314   1.510   3.825
 5497TIP3    H240687   0.226   1.609   4.026
 5498TIP3   OH240688   0.675   1.361   0.720
 5498TIP3    H140689   0.759   1.323   0.819
 5498TIP3    H240690   0.688   1.456   0.786
 5499TIP3   OH240691   0.354   1.103   0.945
 5499TIP3    H140692   0.267   1.145   0.972
 5499TIP3    H240693   0.409   1.173   0.825
 5500TIP3   OH240694   1.160   0.356   3.936
 5500TIP3    H140695   1.234   0.371   4.116
 5500TIP3    H240696   1.103   0.299   4.107
 5501TIP3   OH240697   1.197   0.294   1.350
 5501TIP3    H140698   1.200   0.350   1.104
 5501TIP3    H240699   1.251   0.348   1.536
 5502TIP3   OH240700   0.989   1.545   0.849
 5502TIP3    H140701   0.900   1.560   0.957
 5502TIP3    H240702   1.026   1.635   0.852
 5503TIP3   OH240703   0.926   0.512   1.491
 5503TIP3    H140704   1.006   0.564   1.536
 5503TIP3    H240705   0.897   0.487   1.761
 5504TIP3   OH240706   1.060   0.598   4.227
 5504TIP3    H140707   0.968   0.612   4.326
 5504TIP3    H240708   1.066   0.501   4.221
 5505TIP3   OH240709   1.009   0.196   1.800
 5505TIP3    H140710   0.996   0.278   1.956
 5505TIP3    H240711   1.085   0.222   1.623
 5506TIP3   OH240712   0.723   1.617   0.945
 5506TIP3    H140713   0.738   1.707   0.837
 5506TIP3    H240714   0.713   1.638   1.233
 5507TIP3   OH240715   0.565   0.341   0.894
 5507TIP3    H140716   0.572   0.412   1.095
 5507TIP3    H240717   0.654   0.303   0.930
 5508TIP3   OH240718   1.609   0.400   4.563
 5508TIP3    H140719   1.511   0.400   4.530
 5508TIP3    H240720   1.636   0.365   4.302
 5509TIP3   OH240721   1.474   0.756   2.802
 5509TIP3    H140722   1.402   0.691   2.790
 5509TIP3    H240723   1.542   0.709   2.955
 5510TIP3   OH240724   0.412   1.374   0.462
 5510TIP3    H140725   0.481   1.398   0.657
 5510TIP3    H240726   0.464   1.311   0.303
 5511TIP3   OH240727   0.312   0.642   0.510
 5511TIP3    H140728   0.303   0.740   0.507
 5511TIP3    H240729   0.256   0.624   0.276
 5512TIP3   OH240730   1.588   1.701   3.258
 5512TIP3    H140731   1.585   1.763   3.030
 5512TIP3    H240732   1.685   1.690   3.264
 5513TIP3   OH240733   0.324   0.186   2.826
 5513TIP3    H140734   0.315   0.173   2.532
 5513TIP3    H240735   0.316   0.092   2.910
 5514TIP3   OH240736   0.209   1.467   1.605
 5514TIP3    H140737   0.129   1.517   1.662
 5514TIP3    H240738   0.260   1.530   1.449
 5515TIP3   OH240739   0.156   1.760   5.070
 5515TIP3    H140740   0.218   1.762   5.295
 5515TIP3    H240741   0.125   1.669   5.106
 5516TIP3   OH240742   0.653   1.635   5.607
 5516TIP3    H140743   0.741   1.605   5.517
 5516TIP3    H240744   0.598   1.612   5.373
 5517TIP3   OH240745   1.012   1.581  29.925
 5517TIP3    H140746   0.943   1.512  29.949
 5517TIP3    H240747   1.088   1.535  30.042
 5518TIP3   OH240748   1.240   1.496   5.271
 5518TIP3    H140749   1.213   1.411   5.394
 5518TIP3    H240750   1.326   1.509   5.409
 5519TIP3   OH240751   1.433   1.567   0.366
 5519TIP3    H140752   1.427   1.469   0.354
 5519TIP3    H240753   1.479   1.595   0.126
 5520TIP3   OH240754   0.198   1.174   5.448
 5520TIP3    H140755   0.212   1.079   5.493
 5520TIP3    H240756   0.106   1.167   5.352
 5521TIP3   OH240757   0.602   1.151   0.159
 5521TIP3    H140758   0.623   1.118   0.426
 5521TIP3    H240759   0.677   1.210   0.108
 5522TIP3   OH240760   0.792   1.192   5.220
 5522TIP3    H140761   0.763   1.238   4.974
 5522TIP3    H240762   0.775   1.097   5.157
 5523TIP3   OH240763   1.357   1.127   4.527
 5523TIP3    H140764   1.441   1.175   4.500
 5523TIP3    H240765   1.302   1.204   4.593
 5524TIP3   OH240766   0.278   0.870   5.310
 5524TIP3    H140767   0.323   0.784   5.307
 5524TIP3    H240768   0.253   0.878   5.595
 5525TIP3   OH240769   0.698   1.019   0.834
 5525TIP3    H140770   0.632   0.967   0.972
 5525TIP3    H240771   0.744   0.952   0.675
 5526TIP3   OH240772   0.562   0.763   4.200
 5526TIP3    H140773   0.543   0.856   4.125
 5526TIP3    H240774   0.658   0.769   4.263
 5527TIP3   OH240775   0.824   0.805   0.273
 5527TIP3    H140776   0.834   0.737   0.063
 5527TIP3    H240777   0.919   0.819   0.345
 5528TIP3   OH240778   1.150   1.032   5.409
 5528TIP3    H140779   1.202   1.002   5.184
 5528TIP3    H240780   1.112   0.949   5.508
 5529TIP3   OH240781   1.703   1.032  30.048
 5529TIP3    H140782   1.756   0.975  29.871
 5529TIP3    H240783   1.750   1.116  30.018
 5530TIP3   OH240784   0.604   0.408   4.785
 5530TIP3    H140785   0.622   0.384   4.506
 5530TIP3    H240786   0.670   0.480   4.818
 5531TIP3   OH240787   0.706   0.354   4.044
 5531TIP3    H140788   0.770   0.392   3.849
 5531TIP3    H240789   0.620   0.385   3.942
 5532TIP3   OH240790   0.847   0.827   3.798
 5532TIP3    H140791   0.926   0.868   3.912
 5532TIP3    H240792   0.791   0.906   3.771
 5533TIP3   OH240793   1.347   0.631   5.541
 5533TIP3    H140794   1.361   0.556   5.718
 5533TIP3    H240795   1.438   0.644   5.436
 5534TIP3   OH240796   1.450   0.953   5.088
 5534TIP3    H140797   1.411   1.002   4.863
 5534TIP3    H240798   1.542   0.938   5.004
 5535TIP3   OH240799   0.483   0.612   5.364
 5535TIP3    H140800   0.426   0.532   5.376
 5535TIP3    H240801   0.518   0.605   5.094
 5536TIP3   OH240802   0.735   0.097   4.128
 5536TIP3    H140803   0.720   0.195   4.143
 5536TIP3    H240804   0.648   0.070   4.032
 5537TIP3   OH240805   0.918   0.479   5.352
 5537TIP3    H140806   0.858   0.522   5.538
 5537TIP3    H240807   0.881   0.510   5.094
 5538TIP3   OH240808   1.199   0.421   5.055
 5538TIP3    H140809   1.104   0.403   5.103
 5538TIP3    H240810   1.241   0.377   5.283
 5539TIP3   OH240811   1.372   0.316   5.598
 5539TIP3    H140812   1.349   0.221   5.574
 5539TIP3    H240813   1.324   0.340   5.847
 5540TIP3   OH240814   0.344   0.385   5.472
 5540TIP3    H140815   0.401   0.364   5.244
 5540TIP3    H240816   0.311   0.296   5.529
 5541TIP3   OH240817   0.822   0.079   4.983
 5541TIP3    H140818   0.788  -0.013   4.980
 5541TIP3    H240819   0.815   0.105   4.701
 5542TIP3   OH240820   0.777   0.167   5.712
 5542TIP3    H140821   0.807   0.128   5.457
 5542TIP3    H240822   0.763   0.259   5.628
 5543TIP3   OH240823   0.754   1.864   0.663
 5543TIP3    H140824   0.851   1.868   0.678
 5543TIP3    H240825   0.736   1.905   0.405
 5544TIP3   OH240826   0.159   1.301   0.420
 5544TIP3    H140827   0.253   1.331   0.423
 5544TIP3    H240828   0.161   1.237   0.201
 5545TIP3   OH240829   0.090   1.823   1.788
 5545TIP3    H140830   0.001   1.860   1.842
 5545TIP3    H240831   0.109   1.775   2.040
 5546TIP3   OH240832   0.178   1.674   2.433
 5546TIP3    H140833   0.185   1.579   2.499
 5546TIP3    H240834   0.197   1.713   2.694
 5547TIP3   OH240835   1.865   1.746   3.270
 5547TIP3    H140836   1.879   1.745   3.558
 5547TIP3    H240837   1.919   1.823   3.204
 5548TIP3   OH240838   1.802   1.703   4.149
 5548TIP3    H140839   1.768   1.624   4.005
 5548TIP3    H240840   1.834   1.660   4.392
 5549TIP3   OH240841   1.644   1.339   5.559
 5549TIP3    H140842   1.554   1.365   5.487
 5549TIP3    H240843   1.686   1.423   5.637
 5550TIP3   OH240844   1.756   1.133   1.158
 5550TIP3    H140845   1.840   1.178   1.233
 5550TIP3    H240846   1.743   1.076   1.389
 5551TIP3   OH240847   1.798   0.943   1.863
 5551TIP3    H140848   1.728   0.877   1.938
 5551TIP3    H240849   1.851   0.942   2.109
 5552TIP3   OH240850   1.775   1.196   3.192
 5552TIP3    H140851   1.848   1.135   3.135
 5552TIP3    H240852   1.807   1.279   3.069
 5553TIP3   OH240853   1.656   1.478   3.987
 5553TIP3    H140854   1.590   1.524   4.152
 5553TIP3    H240855   1.607   1.460   3.738
 5554TIP3   OH240856   1.864   0.937   0.666
 5554TIP3    H140857   1.789   0.954   0.486
 5554TIP3    H240858   1.848   1.006   0.867
 5555TIP3   OH240859   1.763   0.591   0.384
 5555TIP3    H140860   1.711   0.672   0.348
 5555TIP3    H240861   1.706   0.531   0.231
 5556TIP3   OH240862   1.611   0.765   2.046
 5556TIP3    H140863   1.558   0.697   1.908
 5556TIP3    H240864   1.575   0.767   2.319
 5557TIP3   OH240865   0.164   1.072   3.165
 5557TIP3    H140866   0.160   1.011   2.934
 5557TIP3    H240867   0.246   1.042   3.297
 5558TIP3   OH240868   1.719   0.959   4.872
 5558TIP3    H140869   1.764   0.873   4.935
 5558TIP3    H240870   1.791   1.021   4.800
 5559TIP3   OH240871   1.794   0.722   5.196
 5559TIP3    H140872   1.705   0.685   5.133
 5559TIP3    H240873   1.848   0.640   5.172
 5560TIP3   OH240874   1.616   0.348   0.066
 5560TIP3    H140875   1.684   0.318   0.255
 5560TIP3    H240876   1.535   0.302   0.150
 5561TIP3   OH240877   1.558   0.561   1.515
 5561TIP3    H140878   1.583   0.466   1.536
 5561TIP3    H240879   1.646   0.600   1.467
 5562TIP3   OH240880   1.651   0.607   3.228
 5562TIP3    H140881   1.749   0.625   3.228
 5562TIP3    H240882   1.637   0.608   3.519
 5563TIP3   OH240883   1.660   0.688   4.008
 5563TIP3    H140884   1.569   0.714   4.080
 5563TIP3    H240885   1.700   0.770   3.894
 5564TIP3   OH240886   0.118   0.542   5.052
 5564TIP3    H140887   0.205   0.545   5.178
 5564TIP3    H240888   0.084   0.459   5.157
 5565TIP3   OH240889   1.920   0.118   5.613
 5565TIP3    H140890   2.005   0.109   5.475
 5565TIP3    H240891   1.875   0.176   5.418
 5566TIP3   OH240892   1.653   0.307   1.569
 5566TIP3    H140893   1.671   0.264   1.827
 5566TIP3    H240894   1.576   0.254   1.476
 5567TIP3   OH240895   0.145   0.358   3.108
 5567TIP3    H140896   0.187   0.271   3.069
 5567TIP3    H240897   0.224   0.414   3.120
 5568TIP3   OH240898   0.044   0.689   3.360
 5568TIP3    H140899   0.108   0.649   3.174
 5568TIP3    H240900   0.101   0.742   3.531
 5569TIP3   OH240901   1.793   0.313   5.118
 5569TIP3    H140902   1.706   0.359   5.136
 5569TIP3    H240903   1.777   0.255   4.884
 5570TIP3   OH240904   1.832   0.276   0.492
 5570TIP3    H140905   1.877   0.228   0.276
 5570TIP3    H240906   1.862   0.366   0.429
 5571TIP3   OH240907   0.146   0.310   1.566
 5571TIP3    H140908   0.052   0.309   1.476
 5571TIP3    H240909   0.188   0.373   1.380
 5572TIP3   OH240910   1.529   1.747   2.061
 5572TIP3    H140911   1.599   1.737   1.854
 5572TIP3    H240912   1.570   1.808   2.253
 5573TIP3   OH240913   0.121   0.226   3.957
 5573TIP3    H140914   0.039   0.208   4.104
 5573TIP3    H240915   0.083   0.287   3.759
 5574TIP3   OH240916   0.248   1.438   5.202
 5574TIP3    H140917   0.213   1.401   4.956
 5574TIP3    H240918   0.276   1.356   5.337
 5575TIP3   OH240919   0.581   1.611   4.107
 5575TIP3    H140920   0.574   1.698   3.972
 5575TIP3    H240921   0.678   1.597   4.092
 5576TIP3   OH240922   0.979   1.712   4.878
 5576TIP3    H140923   0.981   1.685   5.160
 5576TIP3    H240924   1.072   1.746   4.845
 5577TIP3   OH240925   1.205   1.839   4.791
 5577TIP3    H140926   1.279   1.810   4.623
 5577TIP3    H240927   1.248   1.880   5.019
 5578TIP3   OH240928   1.738   0.162   4.428
 5578TIP3    H140929   1.656   0.174   4.278
 5578TIP3    H240930   1.734   0.065   4.476
 5579TIP3   OH240931   0.328   1.902   4.074
 5579TIP3    H140932   0.246   1.937   3.945
 5579TIP3    H240933   0.292   1.880   4.335
 5580TIP3   OH240934   0.558   1.845   3.723
 5580TIP3    H140935   0.465   1.855   3.822
 5580TIP3    H240936   0.558   1.912   3.513
 5581TIP3   OH240937   1.001   1.807   3.492
 5581TIP3    H140938   1.007   1.868   3.267
 5581TIP3    H240939   1.029   1.866   3.711
 5582TIP3   OH240940   1.217   1.678   3.963
 5582TIP3    H140941   1.147   1.702   3.774
 5582TIP3    H240942   1.289   1.739   3.885
 5583TIP3   OH240943   1.473   1.837   3.840
 5583TIP3    H140944   1.482   1.924   3.717
 5583TIP3    H240945   1.509   1.782   3.618
 5584TIP3   OH240946   0.291   1.751   3.171
 5584TIP3    H140947   0.264   1.690   3.390
 5584TIP3    H240948   0.369   1.703   3.063
 5585TIP3   OH240949   0.470   1.618   2.760
 5585TIP3    H140950   0.440   1.526   2.799
 5585TIP3    H240951   0.562   1.615   2.871
 5586TIP3   OH240952   0.711   1.615   3.117
 5586TIP3    H140953   0.752   1.527   3.096
 5586TIP3    H240954   0.739   1.641   3.387
 5587TIP3   OH240955   1.065   0.269   2.709
 5587TIP3    H140956   1.006   0.191   2.718
 5587TIP3    H240957   1.130   0.239   2.511
 5588TIP3   OH240958   1.537   0.121   2.736
 5588TIP3    H140959   1.606   0.144   2.541
 5588TIP3    H240960   1.457   0.165   2.634
 5589TIP3   OH240961   1.762   0.188   2.229
 5589TIP3    H140962   1.824   0.147   2.040
 5589TIP3    H240963   1.809   0.275   2.271
 5590TIP3   OH240964   0.290   0.158   2.049
 5590TIP3    H140965   0.226   0.204   1.872
 5590TIP3    H240966   0.276   0.064   1.971
 5591TIP3   OH240967   0.162   0.128   0.897
 5591TIP3    H140968   0.239   0.172   0.774
 5591TIP3    H240969   0.118   0.206   1.008
 5592TIP3   OH240970   0.760   0.138   1.956
 5592TIP3    H140971   0.847   0.167   1.860
 5592TIP3    H240972   0.784   0.125   2.235
 5593TIP3   OH240973   1.293   0.154   2.376
 5593TIP3    H140974   1.313   0.143   2.094
 5593TIP3    H240975   1.292   0.062   2.478
 5594TIP3   OH240976   1.436   0.186   1.281
 5594TIP3    H140977   1.349   0.221   1.203
 5594TIP3    H240978   1.429   0.093   1.200
 5595TIP3   OH240979   0.210   1.712   0.939
 5595TIP3    H140980   0.119   1.708   1.035
 5595TIP3    H240981   0.217   1.808   0.882
 5596TIP3   OH240982   0.358   0.230   0.444
 5596TIP3    H140983   0.386   0.213   0.174
 5596TIP3    H240984   0.440   0.261   0.576
 5597TIP3   OH240985   0.824   0.295   1.062
 5597TIP3    H140986   0.858   0.240   1.278
 5597TIP3    H240987   0.872   0.379   1.104
 5598TIP3   OH240988   1.050   1.791   0.531
 5598TIP3    H140989   1.147   1.808   0.513
 5598TIP3    H240990   1.039   1.739   0.288
 5599TIP3   OH240991   1.709   1.714   1.518
 5599TIP3    H140992   1.699   1.625   1.395
 5599TIP3    H240993   1.697   1.773   1.284
 5600TIP3   OH240994   0.255   0.137   4.872
 5600TIP3    H140995   0.235   0.043   4.860
 5600TIP3    H240996   0.350   0.134   4.950
 5601TIP3   OH240997   0.501   0.138   5.424
 5601TIP3    H140998   0.591   0.151   5.520
 5601TIP3    H240999   0.503   0.042   5.352
 5602TIP3   OH241000   0.464   1.828   0.378
 5602TIP3    H141001   0.396   1.789   0.546
 5602TIP3    H241002   0.547   1.785   0.471
 5603TIP3   OH241003   1.290   0.061   5.481
 5603TIP3    H141004   1.264  -0.031   5.538
 5603TIP3    H241005   1.372   0.043   5.331
 5604TIP3   OH241006   1.620   1.594   5.058
 5604TIP3    H141007   1.540   1.587   4.884
 5604TIP3    H241008   1.630   1.690   5.061
 5605TIP3   OH241009   3.103   1.010   2.049
 5605TIP3    H141010   3.091   1.101   2.148
 5605TIP3    H241011   3.034   1.007   1.845
 5606TIP3   OH241012   2.978   0.899   3.105
 5606TIP3    H141013   2.976   0.841   3.345
 5606TIP3    H241014   2.922   0.845   2.925
 5607TIP3   OH241015   2.204   0.902   3.486
 5607TIP3    H141016   2.194   0.827   3.669
 5607TIP3    H241017   2.279   0.948   3.609
 5608TIP3   OH241018   3.305   1.198   2.628
 5608TIP3    H141019   3.303   1.121   2.805
 5608TIP3    H241020   3.327   1.268   2.817
 5609TIP3   OH241021   2.309   1.360   3.000
 5609TIP3    H141022   2.270   1.272   2.937
 5609TIP3    H241023   2.403   1.335   2.961
 5610TIP3   OH241024   1.973   0.658   1.800
 5610TIP3    H141025   1.923   0.739   1.830
 5610TIP3    H241026   1.921   0.619   1.584
 5611TIP3   OH241027   2.006   0.934   2.430
 5611TIP3    H141028   2.062   0.855   2.493
 5611TIP3    H241029   2.067   0.988   2.274
 5612TIP3   OH241030   3.069   1.750   2.661
 5612TIP3    H141031   3.138   1.694   2.532
 5612TIP3    H241032   3.019   1.679   2.790
 5613TIP3   OH241033   2.804   1.175   3.339
 5613TIP3    H141034   2.831   1.117   3.120
 5613TIP3    H241035   2.892   1.204   3.435
 5614TIP3   OH241036   3.667   0.310   3.327
 5614TIP3    H141037   3.676   0.383   3.528
 5614TIP3    H241038   3.740   0.335   3.147
 5615TIP3   OH241039   3.173   0.629   3.393
 5615TIP3    H141040   3.189   0.534   3.423
 5615TIP3    H241041   3.129   0.632   3.132
 5616TIP3   OH241042   2.460   0.418   2.379
 5616TIP3    H141043   2.470   0.501   2.223
 5616TIP3    H241044   2.409   0.362   2.187
 5617TIP3   OH241045   3.221   0.425   1.962
 5617TIP3    H141046   3.259   0.411   2.235
 5617TIP3    H241047   3.284   0.491   1.857
 5618TIP3   OH241048   2.113   0.693   2.736
 5618TIP3    H141049   2.188   0.657   2.883
 5618TIP3    H241050   2.115   0.643   2.490
 5619TIP3   OH241051   2.594   0.819   2.553
 5619TIP3    H141052   2.677   0.777   2.643
 5619TIP3    H241053   2.569   0.759   2.334
 5620TIP3   OH241054   3.698   0.459   3.999
 5620TIP3    H141055   3.661   0.551   4.005
 5620TIP3    H241056   3.710   0.441   4.281
 5621TIP3   OH241057   2.352   0.331   3.693
 5621TIP3    H141058   2.322   0.387   3.468
 5621TIP3    H241059   2.274   0.332   3.873
 5622TIP3   OH241060   3.033   1.262   1.728
 5622TIP3    H141061   3.021   1.264   1.437
 5622TIP3    H241062   3.005   1.352   1.803
 5623TIP3   OH241063   2.572   1.086   3.645
 5623TIP3    H141064   2.519   1.162   3.744
 5623TIP3    H241065   2.646   1.132   3.510
 5624TIP3   OH241066   3.379   0.419   2.595
 5624TIP3    H141067   3.356   0.367   2.826
 5624TIP3    H241068   3.475   0.424   2.625
 5625TIP3   OH241069   2.325   0.513   3.045
 5625TIP3    H141070   2.391   0.578   3.153
 5625TIP3    H241071   2.369   0.486   2.793
 5626TIP3   OH241072   2.438   1.292   3.942
 5626TIP3    H141073   2.429   1.373   3.786
 5626TIP3    H241074   2.349   1.290   4.074
 5627TIP3   OH241075   2.018   1.227   1.227
 5627TIP3    H141076   2.021   1.286   0.990
 5627TIP3    H241077   2.037   1.292   1.437
 5628TIP3   OH241078   3.400   1.433   3.228
 5628TIP3    H141079   3.308   1.453   3.309
 5628TIP3    H241080   3.421   1.516   3.087
 5629TIP3   OH241081   3.417   0.226   3.672
 5629TIP3    H141082   3.350   0.250   3.471
 5629TIP3    H241083   3.498   0.223   3.516
 5630TIP3   OH241084   2.722   0.115   2.751
 5630TIP3    H141085   2.731   0.027   2.883
 5630TIP3    H241086   2.667   0.162   2.952
 5631TIP3   OH241087   3.238   1.589   2.274
 5631TIP3    H141088   3.253   1.507   2.121
 5631TIP3    H241089   3.318   1.640   2.178
 5632TIP3   OH241090   3.333   1.373   1.821
 5632TIP3    H141091   3.321   1.300   1.626
 5632TIP3    H241092   3.329   1.320   2.064
 5633TIP3   OH241093   3.500   1.262   4.407
 5633TIP3    H141094   3.516   1.187   4.221
 5633TIP3    H241095   3.519   1.336   4.224
 5634TIP3   OH241096   2.957   0.943   1.314
 5634TIP3    H141097   2.912   1.025   1.236
 5634TIP3    H241098   3.037   0.940   1.143
 5635TIP3   OH241099   3.010   0.789   0.396
 5635TIP3    H141100   3.087   0.827   0.543
 5635TIP3    H241101   3.044   0.701   0.324
 5636TIP3   OH241102   3.697   0.891   3.765
 5636TIP3    H141103   3.635   0.967   3.768
 5636TIP3    H241104   3.763   0.924   3.576
 5637TIP3   OH241105   3.316   0.920   1.623
 5637TIP3    H141106   3.244   0.949   1.809
 5637TIP3    H241107   3.384   0.885   1.806
 5638TIP3   OH241108   3.279   0.741   4.326
 5638TIP3    H141109   3.282   0.834   4.407
 5638TIP3    H241110   3.216   0.745   4.107
 5639TIP3   OH241111   2.461   1.014   2.151
 5639TIP3    H141112   2.431   0.992   1.878
 5639TIP3    H241113   2.514   0.936   2.223
 5640TIP3   OH241114   2.593   1.328   2.943
 5640TIP3    H141115   2.609   1.316   2.658
 5640TIP3    H241116   2.670   1.284   3.069
 5641TIP3   OH241117   2.473   0.881   3.276
 5641TIP3    H141118   2.509   0.880   3.000
 5641TIP3    H241119   2.523   0.955   3.399
 5642TIP3   OH241120   3.149   1.457   3.474
 5642TIP3    H141121   3.123   1.510   3.702
 5642TIP3    H241122   3.131   1.366   3.573
 5643TIP3   OH241123   2.602   1.329   4.578
 5643TIP3    H141124   2.532   1.374   4.734
 5643TIP3    H241125   2.556   1.315   4.320
 5644TIP3   OH241126   3.191   0.889   0.927
 5644TIP3    H141127   3.242   0.897   1.182
 5644TIP3    H241128   3.251   0.940   0.744
 5645TIP3   OH241129   2.304   0.948   4.296
 5645TIP3    H141130   2.323   1.039   4.383
 5645TIP3    H241131   2.226   0.927   4.461
 5646TIP3   OH241132   2.959   1.544   1.752
 5646TIP3    H141133   2.990   1.583   1.998
 5646TIP3    H241134   2.914   1.617   1.614
 5647TIP3   OH241135   2.426   1.500   4.899
 5647TIP3    H141136   2.413   1.541   4.635
 5647TIP3    H241137   2.332   1.480   4.965
 5648TIP3   OH241138   3.581   0.098   0.906
 5648TIP3    H141139   3.506   0.139   1.044
 5648TIP3    H241140   3.600   0.166   0.708
 5649TIP3   OH241141   2.352   0.921   1.452
 5649TIP3    H141142   2.312   0.992   1.290
 5649TIP3    H241143   2.306   0.842   1.356
 5650TIP3   OH241144   3.679   1.500   0.393
 5650TIP3    H141145   3.707   1.592   0.456
 5650TIP3    H241146   3.759   1.447   0.453
 5651TIP3   OH241147   1.995   1.174   4.119
 5651TIP3    H141148   1.966   1.179   3.843
 5651TIP3    H241149   2.026   1.081   4.125
 5652TIP3   OH241150   1.952   1.433   3.135
 5652TIP3    H141151   2.047   1.418   3.117
 5652TIP3    H241152   1.949   1.519   3.270
 5653TIP3   OH241153   3.731   1.515   4.881
 5653TIP3    H141154   3.727   1.418   4.839
 5653TIP3    H241155   3.642   1.533   4.992
 5654TIP3   OH241156   2.849   1.443   4.545
 5654TIP3    H141157   2.857   1.525   4.704
 5654TIP3    H241158   2.754   1.419   4.557
 5655TIP3   OH241159   2.907   1.822   1.380
 5655TIP3    H141160   2.917   1.844   1.095
 5655TIP3    H241161   2.910   1.911   1.506
 5656TIP3   OH241162   2.281   1.694   2.022
 5656TIP3    H141163   2.309   1.665   2.292
 5656TIP3    H241164   2.190   1.659   2.013
 5657TIP3   OH241165   3.185   1.798   0.615
 5657TIP3    H141166   3.232   1.721   0.495
 5657TIP3    H241167   3.222   1.801   0.882
 5658TIP3   OH241168   3.170   1.747   1.467
 5658TIP3    H141169   3.074   1.760   1.503
 5658TIP3    H241170   3.179   1.651   1.515
 5659TIP3   OH241171   3.445   0.628   4.959
 5659TIP3    H141172   3.394   0.665   4.737
 5659TIP3    H241173   3.457   0.536   4.872
 5660TIP3   OH241174   2.213   1.295   4.362
 5660TIP3    H141175   2.209   1.260   4.638
 5660TIP3    H241176   2.125   1.268   4.260
 5661TIP3   OH241177   2.506   0.214   3.153
 5661TIP3    H141178   2.432   0.241   2.979
 5661TIP3    H241179   2.483   0.266   3.393
 5662TIP3   OH241180   2.870   0.185   4.326
 5662TIP3    H141181   2.924   0.104   4.326
 5662TIP3    H241182   2.801   0.155   4.140
 5663TIP3   OH241183   3.244   0.468   4.320
 5663TIP3    H141184   3.189   0.452   4.563
 5663TIP3    H241185   3.272   0.560   4.362
 5664TIP3   OH241186   3.355   0.996   0.408
 5664TIP3    H141187   3.311   1.008   0.144
 5664TIP3    H241188   3.446   1.020   0.324
 5665TIP3   OH241189   2.869   0.369   0.378
 5665TIP3    H141190   2.838   0.322   0.615
 5665TIP3    H241191   2.829   0.319   0.162
 5666TIP3   OH241192   2.487   0.641   3.558
 5666TIP3    H141193   2.406   0.632   3.720
 5666TIP3    H241194   2.482   0.737   3.489
 5667TIP3   OH241195   2.479   0.650   1.986
 5667TIP3    H141196   2.382   0.639   1.956
 5667TIP3    H241197   2.513   0.636   1.710
 5668TIP3   OH241198   3.062   0.702   1.647
 5668TIP3    H141199   3.014   0.782   1.551
 5668TIP3    H241200   3.110   0.678   1.404
 5669TIP3   OH241201   2.916   0.739   5.013
 5669TIP3    H141202   2.876   0.654   5.100
 5669TIP3    H241203   2.997   0.737   5.175
 5670TIP3   OH241204   3.133   0.631   2.544
 5670TIP3    H141205   3.140   0.710   2.373
 5670TIP3    H241206   3.138   0.562   2.337
 5671TIP3   OH241207   2.214   0.646   3.933
 5671TIP3    H141208   2.269   0.687   4.140
 5671TIP3    H241209   2.196   0.558   4.044
 5672TIP3   OH241210   2.541   0.418   0.099
 5672TIP3    H141211   2.510   0.414   0.375
 5672TIP3    H241212   2.464   0.454  -0.042
 5673TIP3   OH241213   1.924   0.406   2.241
 5673TIP3    H141214   1.994   0.399   2.442
 5673TIP3    H241215   1.961   0.357   2.016
 5674TIP3   OH241216   2.018   0.448   0.975
 5674TIP3    H141217   2.069   0.486   0.753
 5674TIP3    H241218   1.961   0.523   1.038
 5675TIP3   OH241219   3.020   0.789   3.828
 5675TIP3    H141220   3.083   0.729   3.690
 5675TIP3    H241221   2.970   0.727   4.005
 5676TIP3   OH241222   2.749   0.405   2.319
 5676TIP3    H141223   2.656   0.374   2.346
 5676TIP3    H241224   2.785   0.373   2.574
 5677TIP3   OH241225   2.216   0.569   1.971
 5677TIP3    H141226   2.125   0.591   1.884
 5677TIP3    H241227   2.232   0.482   1.845
 5678TIP3   OH241228   2.582   0.595   1.269
 5678TIP3    H141229   2.679   0.594   1.266
 5678TIP3    H241230   2.553   0.643   1.026
 5679TIP3   OH241231   3.190   0.304   3.231
 5679TIP3    H141232   3.127   0.319   3.453
 5679TIP3    H241233   3.128   0.270   3.033
 5680TIP3   OH241234   2.455   0.713   0.615
 5680TIP3    H141235   2.402   0.650   0.471
 5680TIP3    H241236   2.523   0.736   0.417
 5681TIP3   OH241237   3.478   1.900   5.226
 5681TIP3    H141238   3.513   1.952   5.004
 5681TIP3    H241239   3.554   1.902   5.409
 5682TIP3   OH241240   2.244   1.145   5.064
 5682TIP3    H141241   2.326   1.155   5.220
 5682TIP3    H241242   2.178   1.117   5.259
 5683TIP3   OH241243   2.859   0.687   2.817
 5683TIP3    H141244   2.925   0.646   2.640
 5683TIP3    H241245   2.843   0.615   3.000
 5684TIP3   OH241246   2.321   0.310   1.785
 5684TIP3    H141247   2.264   0.242   1.911
 5684TIP3    H241248   2.376   0.254   1.617
 5685TIP3   OH241249   2.715   0.503   3.582
 5685TIP3    H141250   2.640   0.568   3.585
 5685TIP3    H241251   2.786   0.554   3.705
 5686TIP3   OH241252   2.781   1.154   1.170
 5686TIP3    H141253   2.710   1.093   1.083
 5686TIP3    H241254   2.749   1.174   1.443
 5687TIP3   OH241255   3.526   1.097   3.795
 5687TIP3    H141256   3.568   1.155   3.588
 5687TIP3    H241257   3.438   1.083   3.669
 5688TIP3   OH241258   3.113   0.403   0.672
 5688TIP3    H141259   3.025   0.432   0.576
 5688TIP3    H241260   3.162   0.489   0.705
 5689TIP3   OH241261   2.881   1.173   4.437
 5689TIP3    H141262   2.885   1.132   4.695
 5689TIP3    H241263   2.871   1.268   4.503
 5690TIP3   OH241264   3.246   0.609   0.969
 5690TIP3    H141265   3.313   0.595   1.179
 5690TIP3    H241266   3.274   0.695   0.867
 5691TIP3   OH241267   2.292   1.104   2.787
 5691TIP3    H141268   2.351   1.082   2.562
 5691TIP3    H241269   2.303   1.027   2.961
 5692TIP3   OH241270   3.004   1.285   0.885
 5692TIP3    H141271   2.961   1.373   0.909
 5692TIP3    H241272   2.927   1.225   0.912
 5693TIP3   OH241273   2.004   0.895   4.398
 5693TIP3    H141274   1.994   0.849   4.653
 5693TIP3    H241275   1.941   0.848   4.224
 5694TIP3   OH241276   2.675   0.875   5.031
 5694TIP3    H141277   2.626   0.826   4.827
 5694TIP3    H241278   2.766   0.837   5.004
 5695TIP3   OH241279   3.175   1.412   4.533
 5695TIP3    H141280   3.086   1.411   4.425
 5695TIP3    H241281   3.159   1.453   4.797
 5696TIP3   OH241282   3.725   0.650   1.050
 5696TIP3    H141283   3.659   0.625   0.843
 5696TIP3    H241284   3.732   0.745   0.987
 5697TIP3   OH241285   3.741   1.236   4.827
 5697TIP3    H141286   3.649   1.240   4.728
 5697TIP3    H241287   3.791   1.218   4.581
 5698TIP3   OH241288   3.568   1.467   1.134
 5698TIP3    H141289   3.486   1.416   1.152
 5698TIP3    H241290   3.585   1.471   0.846
 5699TIP3   OH241291   3.280   1.001   3.201
 5699TIP3    H141292   3.186   0.987   3.135
 5699TIP3    H241293   3.320   0.926   3.066
 5700TIP3   OH241294   2.517   1.430   2.097
 5700TIP3    H141295   2.543   1.521   2.019
 5700TIP3    H241296   2.427   1.429   1.995
 5701TIP3   OH241297   2.121   0.918   0.312
 5701TIP3    H141298   2.181   0.969   0.486
 5701TIP3    H241299   2.039   0.922   0.468
 5702TIP3   OH241300   2.665   1.188   1.917
 5702TIP3    H141301   2.613   1.270   1.944
 5702TIP3    H241302   2.614   1.124   2.076
 5703TIP3   OH241303   2.723   1.600   3.933
 5703TIP3    H141304   2.780   1.669   3.813
 5703TIP3    H241305   2.784   1.561   4.128
 5704TIP3   OH241306   2.552   1.678   1.770
 5704TIP3    H141307   2.458   1.696   1.824
 5704TIP3    H241308   2.592   1.764   1.857
 5705TIP3   OH241309   3.036   1.203   3.735
 5705TIP3    H141310   2.978   1.176   3.960
 5705TIP3    H241311   3.079   1.118   3.672
 5706TIP3   OH241312   3.305   1.315   0.438
 5706TIP3    H141313   3.318   1.265   0.690
 5706TIP3    H241314   3.209   1.304   0.429
 5707TIP3   OH241315   3.345   1.663   4.464
 5707TIP3    H141316   3.263   1.612   4.404
 5707TIP3    H241317   3.356   1.721   4.227
 5708TIP3   OH241318   3.756   1.745   0.576
 5708TIP3    H141319   3.814   1.812   0.456
 5708TIP3    H241320   3.686   1.804   0.690
 5709TIP3   OH241321   2.157   0.364   4.236
 5709TIP3    H141322   2.069   0.401   4.197
 5709TIP3    H241323   2.137   0.272   4.308
 5710TIP3   OH241324   3.379   1.177   1.098
 5710TIP3    H141325   3.369   1.080   1.107
 5710TIP3    H241326   3.477   1.182   1.080
 5711TIP3   OH241327   2.131   1.569   3.819
 5711TIP3    H141328   2.182   1.488   3.825
 5711TIP3    H241329   2.173   1.619   4.032
 5712TIP3   OH241330   2.571   1.366   0.783
 5712TIP3    H141331   2.655   1.331   0.885
 5712TIP3    H241332   2.579   1.462   0.855
 5713TIP3   OH241333   2.232   1.094   0.876
 5713TIP3    H141334   2.157   1.136   1.020
 5713TIP3    H241335   2.279   1.172   0.765
 5714TIP3   OH241336   3.037   0.367   3.891
 5714TIP3    H141337   3.119   0.389   4.044
 5714TIP3    H241338   2.987   0.310   4.080
 5715TIP3   OH241339   3.098   0.289   1.398
 5715TIP3    H141340   3.102   0.350   1.167
 5715TIP3    H241341   3.153   0.336   1.599
 5716TIP3   OH241342   2.878   1.530   0.846
 5716TIP3    H141343   2.793   1.546   0.975
 5716TIP3    H241344   2.907   1.622   0.786
 5717TIP3   OH241345   2.849   0.518   1.539
 5717TIP3    H141346   2.934   0.564   1.581
 5717TIP3    H241347   2.820   0.502   1.818
 5718TIP3   OH241348   2.891   0.611   4.287
 5718TIP3    H141349   2.909   0.651   4.551
 5718TIP3    H241350   2.936   0.524   4.287
 5719TIP3   OH241351   2.889   0.203   1.791
 5719TIP3    H141352   2.865   0.274   1.977
 5719TIP3    H241353   2.970   0.240   1.662
 5720TIP3   OH241354   2.608   1.624   0.966
 5720TIP3    H141355   2.630   1.710   0.837
 5720TIP3    H241356   2.587   1.654   1.239
 5721TIP3   OH241357   2.475   0.389   0.870
 5721TIP3    H141358   2.488   0.452   1.092
 5721TIP3    H241359   2.556   0.336   0.909
 5722TIP3   OH241360   3.489   0.392   4.524
 5722TIP3    H141361   3.392   0.385   4.488
 5722TIP3    H241362   3.519   0.388   4.245
 5723TIP3   OH241363   3.358   0.759   2.784
 5723TIP3    H141364   3.292   0.688   2.832
 5723TIP3    H241365   3.435   0.717   2.922
 5724TIP3   OH241366   2.312   1.332   0.582
 5724TIP3    H141367   2.403   1.352   0.672
 5724TIP3    H241368   2.328   1.323   0.294
 5725TIP3   OH241369   2.123   0.641   0.429
 5725TIP3    H141370   2.144   0.736   0.411
 5725TIP3    H241371   2.051   0.632   0.231
 5726TIP3   OH241372   3.471   1.713   3.252
 5726TIP3    H141373   3.469   1.781   3.036
 5726TIP3    H241374   3.567   1.699   3.261
 5727TIP3   OH241375   2.203   0.173   2.859
 5727TIP3    H141376   2.181   0.164   2.571
 5727TIP3    H241377   2.194   0.077   2.925
 5728TIP3   OH241378   2.072   1.487   1.755
 5728TIP3    H141379   1.994   1.545   1.752
 5728TIP3    H241380   2.114   1.520   1.512
 5729TIP3   OH241381   2.017   1.766   5.139
 5729TIP3    H141382   2.093   1.752   5.319
 5729TIP3    H241383   1.988   1.674   5.088
 5730TIP3   OH241384   2.515   1.659   5.592
 5730TIP3    H141385   2.594   1.619   5.712
 5730TIP3    H241386   2.503   1.606   5.352
 5731TIP3   OH241387   2.902   1.574  -0.033
 5731TIP3    H141388   2.842   1.507   0.078
 5731TIP3    H241389   2.984   1.550   0.099
 5732TIP3   OH241390   3.127   1.508   5.268
 5732TIP3    H141391   3.089   1.421   5.361
 5732TIP3    H241392   3.200   1.516   5.454
 5733TIP3   OH241393   3.291   1.572   0.276
 5733TIP3    H141394   3.321   1.480   0.327
 5733TIP3    H241395   3.358   1.610   0.096
 5734TIP3   OH241396   1.992   1.146   5.451
 5734TIP3    H141397   1.983   1.050   5.406
 5734TIP3    H241398   1.955   1.184   5.202
 5735TIP3   OH241399   2.514   1.103   0.222
 5735TIP3    H141400   2.512   1.096   0.516
 5735TIP3    H241401   2.587   1.166   0.204
 5736TIP3   OH241402   2.676   1.141   5.145
 5736TIP3    H141403   2.663   1.188   4.890
 5736TIP3    H241404   2.664   1.046   5.082
 5737TIP3   OH241405   3.263   1.112   4.479
 5737TIP3    H141406   3.339   1.173   4.509
 5737TIP3    H241407   3.192   1.179   4.467
 5738TIP3   OH241408   2.117   0.856   5.259
 5738TIP3    H141409   2.194   0.799   5.247
 5738TIP3    H241410   2.133   0.908   5.502
 5739TIP3   OH241411   2.591   0.978   0.885
 5739TIP3    H141412   2.512   0.933   0.990
 5739TIP3    H241413   2.621   0.917   0.675
 5740TIP3   OH241414   2.476   0.753   4.290
 5740TIP3    H141415   2.412   0.826   4.320
 5740TIP3    H241416   2.553   0.801   4.182
 5741TIP3   OH241417   2.711   0.806   0.294
 5741TIP3    H141418   2.740   0.801   0.018
 5741TIP3    H241419   2.798   0.805   0.429
 5742TIP3   OH241420   3.041   1.038   5.466
 5742TIP3    H141421   3.112   1.001   5.301
 5742TIP3    H241422   3.007   0.959   5.601
 5743TIP3   OH241423   3.587   1.017  30.027
 5743TIP3    H141424   3.661   0.975  29.883
 5743TIP3    H241425   3.622   1.107  30.024
 5744TIP3   OH241426   2.562   0.534   4.707
 5744TIP3    H141427   2.590   0.470   4.500
 5744TIP3    H241428   2.568   0.617   4.551
 5745TIP3   OH241429   2.586   0.353   4.113
 5745TIP3    H141430   2.640   0.389   3.891
 5745TIP3    H241431   2.495   0.362   4.005
 5746TIP3   OH241432   2.708   0.900   4.089
 5746TIP3    H141433   2.801   0.910   4.017
 5746TIP3    H241434   2.666   0.974   3.945
 5747TIP3   OH241435   3.168   0.656   5.541
 5747TIP3    H141436   3.200   0.564   5.538
 5747TIP3    H241437   3.250   0.704   5.604
 5748TIP3   OH241438   3.321   0.940   5.106
 5748TIP3    H141439   3.314   1.001   4.878
 5748TIP3    H241440   3.414   0.911   5.079
 5749TIP3   OH241441   2.381   0.605   5.304
 5749TIP3    H141442   2.297   0.553   5.277
 5749TIP3    H241443   2.431   0.571   5.070
 5750TIP3   OH241444   2.639   0.097   3.993
 5750TIP3    H141445   2.623   0.192   4.059
 5750TIP3    H241446   2.548   0.067   3.957
 5751TIP3   OH241447   2.792   0.506   5.262
 5751TIP3    H141448   2.724   0.479   5.457
 5751TIP3    H241449   2.742   0.494   5.016
 5752TIP3   OH241450   3.107   0.413   4.983
 5752TIP3    H141451   3.018   0.387   5.073
 5752TIP3    H241452   3.164   0.356   5.154
 5753TIP3   OH241453   3.264   0.301   5.550
 5753TIP3    H141454   3.276   0.207   5.634
 5753TIP3    H241455   3.217   0.338   5.784
 5754TIP3   OH241456   2.176   0.428   5.394
 5754TIP3    H141457   2.186   0.350   5.223
 5754TIP3    H241458   2.188   0.390   5.667
 5755TIP3   OH241459   2.636   0.082   4.881
 5755TIP3    H141460   2.612  -0.012   4.860
 5755TIP3    H241461   2.694   0.097   4.650
 5756TIP3   OH241462   2.691   0.125   5.712
 5756TIP3    H141463   2.699   0.090   5.439
 5756TIP3    H241464   2.687   0.220   5.667
 5757TIP3   OH241465   2.644   1.862   0.618
 5757TIP3    H141466   2.741   1.858   0.609
 5757TIP3    H241467   2.622   1.882   0.342
 5758TIP3   OH241468   2.039   1.352   0.492
 5758TIP3    H141469   2.137   1.342   0.501
 5758TIP3    H241470   2.014   1.301   0.258
 5759TIP3   OH241471   1.909   1.838   1.884
 5759TIP3    H141472   1.829   1.789   1.782
 5759TIP3    H241473   1.937   1.779   2.103
 5760TIP3   OH241474   2.003   1.666   2.457
 5760TIP3    H141475   1.944   1.594   2.544
 5760TIP3    H241476   2.055   1.684   2.700
 5761TIP3   OH241477   3.754   1.751   3.219
 5761TIP3    H141478   3.768   1.754   3.507
 5761TIP3    H241479   3.801   1.831   3.135
 5762TIP3   OH241480   3.683   1.707   4.146
 5762TIP3    H141481   3.647   1.628   4.005
 5762TIP3    H241482   3.719   1.665   4.386
 5763TIP3   OH241483   3.564   1.299   5.670
 5763TIP3    H141484   3.473   1.294   5.784
 5763TIP3    H241485   3.571   1.390   5.586
 5764TIP3   OH241486   3.644   1.136   1.137
 5764TIP3    H141487   3.727   1.181   1.221
 5764TIP3    H241488   3.623   1.088   1.383
 5765TIP3   OH241489   3.697   0.945   1.884
 5765TIP3    H141490   3.619   0.889   1.959
 5765TIP3    H241491   3.743   0.955   2.139
 5766TIP3   OH241492   3.673   1.197   3.198
 5766TIP3    H141493   3.740   1.125   3.180
 5766TIP3    H241494   3.720   1.272   3.075
 5767TIP3   OH241495   3.541   1.482   3.951
 5767TIP3    H141496   3.476   1.526   4.119
 5767TIP3    H241497   3.489   1.463   3.705
 5768TIP3   OH241498   3.749   0.917   0.657
 5768TIP3    H141499   3.668   0.925   0.495
 5768TIP3    H241500   3.740   0.998   0.819
 5769TIP3   OH241501   3.531   0.637   0.486
 5769TIP3    H141502   3.511   0.709   0.303
 5769TIP3    H241503   3.555   0.568   0.294
 5770TIP3   OH241504   3.500   0.780   2.055
 5770TIP3    H141505   3.474   0.691   1.968
 5770TIP3    H241506   3.467   0.783   2.331
 5771TIP3   OH241507   1.984   1.003   3.222
 5771TIP3    H141508   1.975   0.971   2.943
 5771TIP3    H241509   2.074   0.967   3.276
 5772TIP3   OH241510   3.607   0.973   4.893
 5772TIP3    H141511   3.647   0.886   4.971
 5772TIP3    H241512   3.688   1.019   4.803
 5773TIP3   OH241513   3.687   0.734   5.148
 5773TIP3    H141514   3.610   0.682   5.055
 5773TIP3    H241515   3.765   0.679   5.070
 5774TIP3   OH241516   3.499   0.379   0.033
 5774TIP3    H141517   3.570   0.338   0.189
 5774TIP3    H241518   3.423   0.323   0.096
 5775TIP3   OH241519   3.448   0.561   1.533
 5775TIP3    H141520   3.474   0.467   1.584
 5775TIP3    H241521   3.531   0.595   1.431
 5776TIP3   OH241522   3.531   0.610   3.192
 5776TIP3    H141523   3.627   0.635   3.207
 5776TIP3    H241524   3.514   0.575   3.456
 5777TIP3   OH241525   3.549   0.682   4.008
 5777TIP3    H141526   3.454   0.703   3.999
 5777TIP3    H241527   3.591   0.764   3.894
 5778TIP3   OH241528   1.960   0.526   4.971
 5778TIP3    H141529   2.045   0.512   5.112
 5778TIP3    H241530   1.911   0.444   5.040
 5779TIP3   OH241531   3.808   0.078   5.613
 5779TIP3    H141532   3.883   0.080   5.424
 5779TIP3    H241533   3.762   0.156   5.505
 5780TIP3   OH241534   3.533   0.312   1.602
 5780TIP3    H141535   3.560   0.258   1.836
 5780TIP3    H241536   3.463   0.254   1.485
 5781TIP3   OH241537   2.064   0.397   2.970
 5781TIP3    H141538   2.101   0.307   2.991
 5781TIP3    H241539   2.144   0.449   3.021
 5782TIP3   OH241540   1.911   0.667   3.234
 5782TIP3    H141541   1.971   0.633   3.027
 5782TIP3    H241542   1.971   0.731   3.351
 5783TIP3   OH241543   3.696   0.318   5.091
 5783TIP3    H141544   3.607   0.360   5.124
 5783TIP3    H241545   3.670   0.252   4.887
 5784TIP3   OH241546   3.720   0.291   0.474
 5784TIP3    H141547   3.764   0.242   0.261
 5784TIP3    H241548   3.785   0.363   0.516
 5785TIP3   OH241549   1.941   0.245   1.590
 5785TIP3    H141550   1.849   0.260   1.515
 5785TIP3    H241551   1.984   0.298   1.380
 5786TIP3   OH241552   3.427   1.755   2.085
 5786TIP3    H141553   3.492   1.749   1.863
 5786TIP3    H241554   3.467   1.820   2.265
 5787TIP3   OH241555   1.951   0.181   3.888
 5787TIP3    H141556   1.882   0.189   4.092
 5787TIP3    H241557   1.918   0.248   3.696
 5788TIP3   OH241558   2.165   1.454   5.124
 5788TIP3    H141559   2.079   1.482   5.022
 5788TIP3    H241560   2.142   1.414   5.376
 5789TIP3   OH241561   2.453   1.596   4.125
 5789TIP3    H141562   2.455   1.688   4.020
 5789TIP3    H241563   2.549   1.577   4.116
 5790TIP3   OH241564   2.864   1.709   4.854
 5790TIP3    H141565   2.854   1.688   5.139
 5790TIP3    H241566   2.959   1.724   4.830
 5791TIP3   OH241567   3.117   1.893   4.710
 5791TIP3    H141568   3.171   1.823   4.596
 5791TIP3    H241569   3.144   1.892   4.992
 5792TIP3   OH241570   3.629   0.161   4.425
 5792TIP3    H141571   3.545   0.190   4.314
 5792TIP3    H241572   3.613   0.065   4.428
 5793TIP3   OH241573   2.198   1.897   4.017
 5793TIP3    H141574   2.123   1.955   3.930
 5793TIP3    H241575   2.179   1.890   4.299
 5794TIP3   OH241576   2.433   1.839   3.738
 5794TIP3    H141577   2.343   1.858   3.843
 5794TIP3    H241578   2.429   1.894   3.495
 5795TIP3   OH241579   2.884   1.793   3.543
 5795TIP3    H141580   2.837   1.839   3.333
 5795TIP3    H241581   2.916   1.868   3.708
 5796TIP3   OH241582   3.106   1.690   3.975
 5796TIP3    H141583   3.045   1.716   3.759
 5796TIP3    H241584   3.186   1.737   3.882
 5797TIP3   OH241585   3.357   1.845   3.852
 5797TIP3    H141586   3.376   1.932   3.738
 5797TIP3    H241587   3.401   1.790   3.645
 5798TIP3   OH241588   2.154   1.728   3.120
 5798TIP3    H141589   2.132   1.667   3.336
 5798TIP3    H241590   2.240   1.691   3.027
 5799TIP3   OH241591   2.363   1.622   2.748
 5799TIP3    H141592   2.351   1.528   2.829
 5799TIP3    H241593   2.452   1.639   2.865
 5800TIP3   OH241594   2.597   1.625   3.108
 5800TIP3    H141595   2.627   1.534   3.066
 5800TIP3    H241596   2.609   1.634   3.396
 5801TIP3   OH241597   2.945   0.283   2.757
 5801TIP3    H141598   2.894   0.199   2.781
 5801TIP3    H241599   3.001   0.263   2.526
 5802TIP3   OH241600   3.434   0.115   2.742
 5802TIP3    H141601   3.500   0.140   2.541
 5802TIP3    H241602   3.350   0.144   2.616
 5803TIP3   OH241603   3.656   0.193   2.229
 5803TIP3    H141604   3.715   0.147   2.037
 5803TIP3    H241605   3.708   0.276   2.271
 5804TIP3   OH241606   2.158   0.139   2.085
 5804TIP3    H141607   2.099   0.157   1.854
 5804TIP3    H241608   2.168   0.041   2.067
 5805TIP3   OH241609   2.096   0.133   1.011
 5805TIP3    H141610   2.128   0.170   0.756
 5805TIP3    H241611   2.004   0.164   1.002
 5806TIP3   OH241612   2.642   0.123   1.986
 5806TIP3    H141613   2.725   0.159   1.872
 5806TIP3    H241614   2.666   0.129   2.271
 5807TIP3   OH241615   3.181   0.155   2.388
 5807TIP3    H141616   3.202   0.143   2.106
 5807TIP3    H241617   3.169   0.063   2.481
 5808TIP3   OH241618   3.340   0.187   1.224
 5808TIP3    H141619   3.248   0.220   1.191
 5808TIP3    H241620   3.328   0.093   1.161
 5809TIP3   OH241621   2.056   1.665   1.125
 5809TIP3    H141622   1.967   1.665   1.002
 5809TIP3    H241623   2.081   1.757   1.074
 5810TIP3   OH241624   2.231   0.214   0.339
 5810TIP3    H141625   2.295   0.150   0.240
 5810TIP3    H241626   2.289   0.268   0.504
 5811TIP3   OH241627   2.727   0.313   1.086
 5811TIP3    H141628   2.771   0.248   1.257
 5811TIP3    H241629   2.755   0.395   1.224
 5812TIP3   OH241630   2.926   1.784   0.531
 5812TIP3    H141631   3.024   1.804   0.537
 5812TIP3    H241632   2.923   1.740   0.270
 5813TIP3   OH241633   3.592   1.706   1.500
 5813TIP3    H141634   3.583   1.617   1.371
 5813TIP3    H241635   3.573   1.766   1.278
 5814TIP3   OH241636   2.115   0.123   5.079
 5814TIP3    H141637   2.106   0.037   4.950
 5814TIP3    H241638   2.209   0.118   5.160
 5815TIP3   OH241639   2.364   0.116   5.376
 5815TIP3    H141640   2.451   0.146   5.280
 5815TIP3    H241641   2.369   0.022   5.283
 5816TIP3   OH241642   2.261   1.790   0.387
 5816TIP3    H141643   2.198   1.810   0.600
 5816TIP3    H241644   2.302   1.708   0.477
 5817TIP3   OH241645   3.275   0.045   5.661
 5817TIP3    H141646   3.215  -0.030   5.715
 5817TIP3    H241647   3.338  -0.002   5.481
 5818TIP3   OH241648   3.501   1.622   5.094
 5818TIP3    H141649   3.433   1.616   4.875
 5818TIP3    H241650   3.503   1.719   5.121
 5819TIP3   OH241651   4.984   1.010   2.067
 5819TIP3    H141652   4.982   1.104   2.142
 5819TIP3    H241653   4.925   1.013   1.836
 5820TIP3   OH241654   4.866   0.890   3.102
 5820TIP3    H141655   4.846   0.836   3.342
 5820TIP3    H241656   4.809   0.845   2.901
 5821TIP3   OH241657   4.078   0.889   3.384
 5821TIP3    H141658   4.081   0.810   3.552
 5821TIP3    H241659   4.120   0.953   3.567
 5822TIP3   OH241660   5.194   1.199   2.643
 5822TIP3    H141661   5.180   1.123   2.823
 5822TIP3    H241662   5.212   1.269   2.835
 5823TIP3   OH241663   4.201   1.357   3.036
 5823TIP3    H141664   4.167   1.266   2.982
 5823TIP3    H241665   4.295   1.338   2.982
 5824TIP3   OH241666   3.848   0.677   1.773
 5824TIP3    H141667   3.818   0.763   1.866
 5824TIP3    H241668   3.804   0.671   1.512
 5825TIP3   OH241669   3.894   0.927   2.484
 5825TIP3    H141670   3.942   0.844   2.553
 5825TIP3    H241671   3.957   0.975   2.316
 5826TIP3   OH241672   4.969   1.755   2.691
 5826TIP3    H141673   5.035   1.699   2.547
 5826TIP3    H241674   4.917   1.683   2.811
 5827TIP3   OH241675   4.700   1.183   3.285
 5827TIP3    H141676   4.732   1.111   3.117
 5827TIP3    H241677   4.783   1.202   3.435
 5828TIP3   OH241678   5.558   0.296   3.360
 5828TIP3    H141679   5.560   0.378   3.522
 5828TIP3    H241680   5.623   0.319   3.150
 5829TIP3   OH241681   5.061   0.627   3.414
 5829TIP3    H141682   5.076   0.532   3.462
 5829TIP3    H241683   5.012   0.627   3.162
 5830TIP3   OH241684   4.338   0.417   2.373
 5830TIP3    H141685   4.355   0.495   2.205
 5830TIP3    H241686   4.294   0.357   2.178
 5831TIP3   OH241687   5.103   0.425   1.956
 5831TIP3    H141688   5.145   0.407   2.217
 5831TIP3    H241689   5.167   0.489   1.854
 5832TIP3   OH241690   3.994   0.673   2.712
 5832TIP3    H141691   4.068   0.637   2.868
 5832TIP3    H241692   4.008   0.632   2.451
 5833TIP3   OH241693   4.485   0.828   2.550
 5833TIP3    H141694   4.566   0.779   2.628
 5833TIP3    H241695   4.454   0.770   2.334
 5834TIP3   OH241696   5.589   0.465   4.023
 5834TIP3    H141697   5.542   0.550   3.978
 5834TIP3    H241698   5.578   0.454   4.311
 5835TIP3   OH241699   4.227   0.320   3.678
 5835TIP3    H141700   4.196   0.382   3.465
 5835TIP3    H241701   4.157   0.329   3.879
 5836TIP3   OH241702   4.926   1.260   1.728
 5836TIP3    H141703   4.909   1.261   1.437
 5836TIP3    H241704   4.910   1.354   1.791
 5837TIP3   OH241705   4.466   1.075   3.639
 5837TIP3    H141706   4.405   1.144   3.744
 5837TIP3    H241707   4.531   1.130   3.489
 5838TIP3   OH241708   5.274   0.431   2.547
 5838TIP3    H141709   5.246   0.387   2.796
 5838TIP3    H241710   5.367   0.447   2.607
 5839TIP3   OH241711   4.207   0.515   3.063
 5839TIP3    H141712   4.263   0.590   3.162
 5839TIP3    H241713   4.257   0.487   2.823
 5840TIP3   OH241714   4.333   1.288   3.939
 5840TIP3    H141715   4.313   1.376   3.834
 5840TIP3    H241716   4.250   1.268   4.080
 5841TIP3   OH241717   3.905   1.229   1.209
 5841TIP3    H141718   3.907   1.286   0.966
 5841TIP3    H241719   3.917   1.294   1.422
 5842TIP3   OH241720   5.281   1.413   3.240
 5842TIP3    H141721   5.191   1.438   3.318
 5842TIP3    H241722   5.308   1.497   3.114
 5843TIP3   OH241723   5.312   0.219   3.666
 5843TIP3    H141724   5.245   0.240   3.462
 5843TIP3    H241725   5.394   0.229   3.504
 5844TIP3   OH241726   4.625   0.102   2.763
 5844TIP3    H141727   4.625   0.014   2.895
 5844TIP3    H241728   4.568   0.152   2.952
 5845TIP3   OH241729   5.128   1.583   2.304
 5845TIP3    H141730   5.138   1.504   2.139
 5845TIP3    H241731   5.203   1.637   2.196
 5846TIP3   OH241732   5.227   1.369   1.821
 5846TIP3    H141733   5.210   1.298   1.623
 5846TIP3    H241734   5.214   1.320   2.070
 5847TIP3   OH241735   5.387   1.249   4.383
 5847TIP3    H141736   5.407   1.181   4.176
 5847TIP3    H241737   5.398   1.329   4.221
 5848TIP3   OH241738   4.849   0.953   1.305
 5848TIP3    H141739   4.801   1.034   1.224
 5848TIP3    H241740   4.922   0.948   1.107
 5849TIP3   OH241741   4.897   0.786   0.405
 5849TIP3    H141742   4.976   0.821   0.546
 5849TIP3    H241743   4.933   0.700   0.312
 5850TIP3   OH241744   5.591   0.889   3.744
 5850TIP3    H141745   5.529   0.964   3.774
 5850TIP3    H241746   5.650   0.926   3.537
 5851TIP3   OH241747   5.201   0.923   1.629
 5851TIP3    H141748   5.128   0.947   1.815
 5851TIP3    H241749   5.268   0.886   1.815
 5852TIP3   OH241750   5.195   0.754   4.368
 5852TIP3    H141751   5.186   0.848   4.440
 5852TIP3    H241752   5.132   0.751   4.146
 5853TIP3   OH241753   4.327   1.018   2.169
 5853TIP3    H141754   4.293   0.991   1.905
 5853TIP3    H241755   4.392   0.948   2.226
 5854TIP3   OH241756   4.485   1.339   2.931
 5854TIP3    H141757   4.497   1.313   2.655
 5854TIP3    H241758   4.562   1.297   3.063
 5855TIP3   OH241759   4.362   0.868   3.273
 5855TIP3    H141760   4.402   0.876   3.003
 5855TIP3    H241761   4.405   0.943   3.414
 5856TIP3   OH241762   5.028   1.453   3.489
 5856TIP3    H141763   5.018   1.500   3.744
 5856TIP3    H241764   5.011   1.361   3.579
 5857TIP3   OH241765   4.476   1.321   4.635
 5857TIP3    H141766   4.403   1.374   4.755
 5857TIP3    H241767   4.442   1.310   4.359
 5858TIP3   OH241768   5.084   0.879   0.915
 5858TIP3    H141769   5.128   0.893   1.179
 5858TIP3    H241770   5.143   0.934   0.744
 5859TIP3   OH241771   4.146   0.989   4.131
 5859TIP3    H141772   4.187   1.051   4.317
 5859TIP3    H241773   4.125   0.916   4.320
 5860TIP3   OH241774   4.840   1.536   1.749
 5860TIP3    H141775   4.847   1.566   2.022
 5860TIP3    H241776   4.792   1.608   1.614
 5861TIP3   OH241777   4.299   1.493   4.884
 5861TIP3    H141778   4.293   1.528   4.608
 5861TIP3    H241779   4.206   1.491   4.965
 5862TIP3   OH241780   5.465   0.099   0.882
 5862TIP3    H141781   5.393   0.146   1.023
 5862TIP3    H241782   5.489   0.165   0.681
 5863TIP3   OH241783   4.238   0.919   1.467
 5863TIP3    H141784   4.193   0.987   1.308
 5863TIP3    H241785   4.197   0.837   1.377
 5864TIP3   OH241786   5.563   1.500   0.402
 5864TIP3    H141787   5.585   1.595   0.447
 5864TIP3    H241788   5.646   1.454   0.462
 5865TIP3   OH241789   3.862   1.188   4.101
 5865TIP3    H141790   3.803   1.172   3.873
 5865TIP3    H241791   3.887   1.095   4.164
 5866TIP3   OH241792   3.850   1.430   3.117
 5866TIP3    H141793   3.943   1.406   3.153
 5866TIP3    H241794   3.843   1.508   3.285
 5867TIP3   OH241795   5.676   1.498   4.854
 5867TIP3    H141796   5.625   1.415   4.830
 5867TIP3    H241797   5.602   1.564   4.881
 5868TIP3   OH241798   4.731   1.437   4.545
 5868TIP3    H141799   4.753   1.518   4.692
 5868TIP3    H241800   4.643   1.411   4.647
 5869TIP3   OH241801   4.768   1.824   1.374
 5869TIP3    H141802   4.802   1.839   1.104
 5869TIP3    H241803   4.792   1.909   1.503
 5870TIP3   OH241804   4.168   1.696   1.995
 5870TIP3    H141805   4.193   1.666   2.268
 5870TIP3    H241806   4.079   1.658   1.977
 5871TIP3   OH241807   5.068   1.805   0.633
 5871TIP3    H141808   5.117   1.728   0.522
 5871TIP3    H241809   5.107   1.814   0.894
 5872TIP3   OH241810   5.058   1.744   1.467
 5872TIP3    H141811   4.963   1.739   1.509
 5872TIP3    H241812   5.089   1.663   1.602
 5873TIP3   OH241813   5.333   0.631   5.010
 5873TIP3    H141814   5.292   0.676   4.779
 5873TIP3    H241815   5.343   0.540   4.905
 5874TIP3   OH241816   4.098   1.294   4.344
 5874TIP3    H141817   4.098   1.255   4.614
 5874TIP3    H241818   4.011   1.261   4.248
 5875TIP3   OH241819   4.383   0.213   3.090
 5875TIP3    H141820   4.300   0.231   2.943
 5875TIP3    H241821   4.366   0.265   3.330
 5876TIP3   OH241822   4.764   0.177   4.350
 5876TIP3    H141823   4.816   0.096   4.317
 5876TIP3    H241824   4.686   0.151   4.191
 5877TIP3   OH241825   5.122   0.489   4.395
 5877TIP3    H141826   5.061   0.467   4.617
 5877TIP3    H241827   5.144   0.582   4.449
 5878TIP3   OH241828   5.239   0.998   0.411
 5878TIP3    H141829   5.199   1.004   0.141
 5878TIP3    H241830   5.331   1.020   0.333
 5879TIP3   OH241831   4.755   0.370   0.378
 5879TIP3    H141832   4.733   0.322   0.624
 5879TIP3    H241833   4.707   0.320   0.177
 5880TIP3   OH241834   4.362   0.634   3.636
 5880TIP3    H141835   4.271   0.629   3.747
 5880TIP3    H241836   4.366   0.728   3.543
 5881TIP3   OH241837   4.361   0.651   1.965
 5881TIP3    H141838   4.264   0.639   1.941
 5881TIP3    H241839   4.394   0.632   1.692
 5882TIP3   OH241840   4.949   0.706   1.659
 5882TIP3    H141841   4.900   0.784   1.557
 5882TIP3    H241842   5.001   0.685   1.422
 5883TIP3   OH241843   4.801   0.733   5.025
 5883TIP3    H141844   4.755   0.651   5.112
 5883TIP3    H241845   4.873   0.740   5.220
 5884TIP3   OH241846   5.005   0.632   2.541
 5884TIP3    H141847   5.017   0.713   2.382
 5884TIP3    H241848   5.017   0.566   2.331
 5885TIP3   OH241849   4.106   0.633   3.915
 5885TIP3    H141850   4.117   0.684   4.164
 5885TIP3    H241851   4.071   0.552   4.044
 5886TIP3   OH241852   4.429   0.417   0.090
 5886TIP3    H141853   4.395   0.400   0.363
 5886TIP3    H241854   4.352   0.460  -0.033
 5887TIP3   OH241855   3.814   0.413   2.250
 5887TIP3    H141856   3.883   0.388   2.442
 5887TIP3    H241857   3.853   0.393   1.989
 5888TIP3   OH241858   3.906   0.445   0.969
 5888TIP3    H141859   3.980   0.487   0.825
 5888TIP3    H241860   3.848   0.523   1.008
 5889TIP3   OH241861   4.909   0.792   3.846
 5889TIP3    H141862   4.973   0.734   3.708
 5889TIP3    H241863   4.856   0.727   4.005
 5890TIP3   OH241864   4.636   0.404   2.316
 5890TIP3    H141865   4.545   0.371   2.346
 5890TIP3    H241866   4.677   0.372   2.565
 5891TIP3   OH241867   4.096   0.576   1.944
 5891TIP3    H141868   4.005   0.596   1.851
 5891TIP3    H241869   4.115   0.487   1.839
 5892TIP3   OH241870   4.466   0.577   1.269
 5892TIP3    H141871   4.563   0.583   1.296
 5892TIP3    H241872   4.443   0.640   1.050
 5893TIP3   OH241873   5.081   0.314   3.249
 5893TIP3    H141874   5.013   0.316   3.459
 5893TIP3    H241875   5.031   0.278   3.027
 5894TIP3   OH241876   4.349   0.711   0.645
 5894TIP3    H141877   4.283   0.653   0.519
 5894TIP3    H241878   4.412   0.725   0.429
 5895TIP3   OH241879   5.354   1.902   5.205
 5895TIP3    H141880   5.394   1.953   4.989
 5895TIP3    H241881   5.434   1.881   5.361
 5896TIP3   OH241882   4.118   1.132   5.028
 5896TIP3    H141883   4.196   1.157   5.184
 5896TIP3    H241884   4.058   1.094   5.229
 5897TIP3   OH241885   4.737   0.683   2.814
 5897TIP3    H141886   4.811   0.645   2.661
 5897TIP3    H241887   4.725   0.615   3.015
 5898TIP3   OH241888   4.210   0.307   1.755
 5898TIP3    H141889   4.159   0.237   1.899
 5898TIP3    H241890   4.273   0.251   1.614
 5899TIP3   OH241891   4.594   0.485   3.537
 5899TIP3    H141892   4.528   0.557   3.537
 5899TIP3    H241893   4.667   0.530   3.675
 5900TIP3   OH241894   4.666   1.154   1.161
 5900TIP3    H141895   4.597   1.091   1.071
 5900TIP3    H241896   4.632   1.172   1.434
 5901TIP3   OH241897   5.420   1.095   3.756
 5901TIP3    H141898   5.463   1.146   3.537
 5901TIP3    H241899   5.337   1.071   3.621
 5902TIP3   OH241900   5.000   0.409   0.666
 5902TIP3    H141901   4.914   0.439   0.558
 5902TIP3    H241902   5.050   0.494   0.705
 5903TIP3   OH241903   4.795   1.174   4.560
 5903TIP3    H141904   4.757   1.159   4.824
 5903TIP3    H241905   4.781   1.270   4.533
 5904TIP3   OH241906   5.137   0.607   0.957
 5904TIP3    H141907   5.205   0.592   1.161
 5904TIP3    H241908   5.158   0.698   0.876
 5905TIP3   OH241909   4.186   1.098   2.805
 5905TIP3    H141910   4.230   1.075   2.550
 5905TIP3    H241911   4.196   1.016   2.961
 5906TIP3   OH241912   4.871   1.296   0.939
 5906TIP3    H141913   4.832   1.386   0.978
 5906TIP3    H241914   4.791   1.239   0.966
 5907TIP3   OH241915   3.844   0.938   4.515
 5907TIP3    H141916   3.893   0.863   4.638
 5907TIP3    H241917   3.785   0.894   4.326
 5908TIP3   OH241918   4.554   0.873   4.986
 5908TIP3    H141919   4.496   0.812   4.833
 5908TIP3    H241920   4.636   0.820   4.998
 5909TIP3   OH241921   5.069   1.400   4.476
 5909TIP3    H141922   4.978   1.428   4.515
 5909TIP3    H241923   5.116   1.424   4.725
 5910TIP3   OH241924   5.606   0.646   1.059
 5910TIP3    H141925   5.538   0.623   0.855
 5910TIP3    H241926   5.617   0.740   0.993
 5911TIP3   OH241927   5.611   1.214   4.812
 5911TIP3    H141928   5.522   1.228   4.695
 5911TIP3    H241929   5.665   1.216   4.566
 5912TIP3   OH241930   5.451   1.470   1.134
 5912TIP3    H141931   5.363   1.429   1.140
 5912TIP3    H241932   5.472   1.476   0.846
 5913TIP3   OH241933   5.161   0.990   3.192
 5913TIP3    H141934   5.069   0.973   3.120
 5913TIP3    H241935   5.207   0.920   3.048
 5914TIP3   OH241936   4.409   1.408   2.112
 5914TIP3    H141937   4.454   1.490   2.034
 5914TIP3    H241938   4.319   1.425   2.016
 5915TIP3   OH241939   4.004   0.909   0.330
 5915TIP3    H141940   4.055   0.966   0.513
 5915TIP3    H241941   3.914   0.917   0.447
 5916TIP3   OH241942   4.544   1.180   1.890
 5916TIP3    H141943   4.494   1.264   1.920
 5916TIP3    H241944   4.503   1.125   2.094
 5917TIP3   OH241945   4.602   1.604   4.008
 5917TIP3    H141946   4.662   1.668   3.882
 5917TIP3    H241947   4.662   1.557   4.191
 5918TIP3   OH241948   4.450   1.667   1.833
 5918TIP3    H141949   4.354   1.677   1.869
 5918TIP3    H241950   4.478   1.760   1.881
 5919TIP3   OH241951   4.915   1.195   3.762
 5919TIP3    H141952   4.874   1.172   4.020
 5919TIP3    H241953   4.957   1.111   3.687
 5920TIP3   OH241954   5.194   1.312   0.423
 5920TIP3    H141955   5.220   1.269   0.678
 5920TIP3    H241956   5.099   1.296   0.444
 5921TIP3   OH241957   5.230   1.689   4.494
 5921TIP3    H141958   5.164   1.618   4.464
 5921TIP3    H241959   5.239   1.726   4.221
 5922TIP3   OH241960   5.637   1.753   0.564
 5922TIP3    H141961   5.706   1.816   0.477
 5922TIP3    H241962   5.578   1.815   0.717
 5923TIP3   OH241963   4.056   0.401   4.353
 5923TIP3    H141964   3.997   0.461   4.506
 5923TIP3    H241965   4.016   0.315   4.392
 5924TIP3   OH241966   5.266   1.173   1.110
 5924TIP3    H141967   5.252   1.077   1.107
 5924TIP3    H241968   5.363   1.174   1.116
 5925TIP3   OH241969   4.012   1.561   3.816
 5925TIP3    H141970   4.069   1.483   3.831
 5925TIP3    H241971   4.053   1.616   4.020
 5926TIP3   OH241972   4.450   1.362   0.741
 5926TIP3    H141973   4.531   1.325   0.861
 5926TIP3    H241974   4.461   1.457   0.822
 5927TIP3   OH241975   4.113   1.088   0.888
 5927TIP3    H141976   4.038   1.136   1.017
 5927TIP3    H241977   4.164   1.163   0.777
 5928TIP3   OH241978   4.921   0.359   3.981
 5928TIP3    H141979   4.996   0.368   4.167
 5928TIP3    H241980   4.862   0.301   4.143
 5929TIP3   OH241981   4.988   0.291   1.386
 5929TIP3    H141982   4.988   0.356   1.164
 5929TIP3    H241983   5.041   0.335   1.596
 5930TIP3   OH241984   4.753   1.548   0.879
 5930TIP3    H141985   4.671   1.573   1.014
 5930TIP3    H241986   4.786   1.636   0.801
 5931TIP3   OH241987   4.733   0.511   1.539
 5931TIP3    H141988   4.816   0.559   1.575
 5931TIP3    H241989   4.705   0.493   1.815
 5932TIP3   OH241990   4.784   0.616   4.314
 5932TIP3    H141991   4.802   0.665   4.566
 5932TIP3    H241992   4.804   0.524   4.374
 5933TIP3   OH241993   4.776   0.210   1.782
 5933TIP3    H141994   4.758   0.276   1.989
 5933TIP3    H241995   4.858   0.246   1.656
 5934TIP3   OH241996   4.488   1.625   1.002
 5934TIP3    H141997   4.513   1.712   0.879
 5934TIP3    H241998   4.458   1.655   1.266
 5935TIP3   OH241999   4.350   0.382   0.852
 5935TIP3    H142000   4.368   0.445   1.071
 5935TIP3    H242001   4.427   0.324   0.894
 5936TIP3   OH242002   5.366   0.395   4.545
 5936TIP3    H142003   5.270   0.416   4.521
 5936TIP3    H242004   5.386   0.368   4.272
 5937TIP3   OH242005   5.243   0.739   2.802
 5937TIP3    H142006   5.180   0.668   2.859
 5937TIP3    H242007   5.321   0.703   2.943
 5938TIP3   OH242008   4.193   1.330   0.564
 5938TIP3    H142009   4.286   1.351   0.642
 5938TIP3    H242010   4.208   1.312   0.279
 5939TIP3   OH242011   4.027   0.636   0.441
 5939TIP3    H142012   4.038   0.733   0.423
 5939TIP3    H242013   3.956   0.619   0.252
 5940TIP3   OH242014   5.343   1.690   3.192
 5940TIP3    H142015   5.332   1.754   2.973
 5940TIP3    H242016   5.440   1.694   3.213
 5941TIP3   OH242017   4.107   0.167   2.904
 5941TIP3    H142018   4.088   0.147   2.622
 5941TIP3    H242019   4.090   0.077   3.006
 5942TIP3   OH242020   3.958   1.473   1.722
 5942TIP3    H142021   3.889   1.538   1.782
 5942TIP3    H242022   4.002   1.519   1.500
 5943TIP3   OH242023   3.903   1.751   5.100
 5943TIP3    H142024   3.983   1.738   5.259
 5943TIP3    H242025   3.873   1.659   5.055
 5944TIP3   OH242026   4.783   1.568  -0.033
 5944TIP3    H142027   4.714   1.506   0.045
 5944TIP3    H242028   4.859   1.532   0.108
 5945TIP3   OH242029   5.000   1.521   5.286
 5945TIP3    H142030   4.969   1.429   5.337
 5945TIP3    H242031   5.098   1.507   5.304
 5946TIP3   OH242032   5.187   1.576   0.324
 5946TIP3    H142033   5.213   1.482   0.321
 5946TIP3    H242034   5.238   1.619   0.108
 5947TIP3   OH242035   3.860   1.146   5.499
 5947TIP3    H142036   3.852   1.049   5.466
 5947TIP3    H242037   3.819   1.180   5.250
 5948TIP3   OH242038   4.382   1.115   0.144
 5948TIP3    H142039   4.360   1.099   0.423
 5948TIP3    H242040   4.456   1.177   0.180
 5949TIP3   OH242041   4.562   1.137   5.145
 5949TIP3    H142042   4.538   1.198   4.923
 5949TIP3    H242043   4.555   1.047   5.019
 5950TIP3   OH242044   5.141   1.119   4.497
 5950TIP3    H142045   5.227   1.166   4.512
 5950TIP3    H242046   5.081   1.196   4.494
 5951TIP3   OH242047   3.966   0.880   5.460
 5951TIP3    H142048   4.013   0.848   5.217
 5951TIP3    H242049   4.035   0.883   5.661
 5952TIP3   OH242050   4.478   0.980   0.873
 5952TIP3    H142051   4.402   0.941   1.014
 5952TIP3    H242052   4.502   0.911   0.678
 5953TIP3   OH242053   4.420   0.744   4.434
 5953TIP3    H142054   4.326   0.768   4.467
 5953TIP3    H242055   4.449   0.789   4.188
 5954TIP3   OH242056   4.595   0.808   0.282
 5954TIP3    H142057   4.622   0.773   0.024
 5954TIP3    H242058   4.682   0.805   0.423
 5955TIP3   OH242059   4.922   1.033   5.487
 5955TIP3    H142060   4.989   1.000   5.301
 5955TIP3    H242061   4.914   0.960   5.682
 5956TIP3   OH242062   5.471   1.008  29.991
 5956TIP3    H142063   5.542   0.959  29.853
 5956TIP3    H242064   5.513   1.096  29.970
 5957TIP3   OH242065   4.449   0.500   4.728
 5957TIP3    H142066   4.457   0.434   4.509
 5957TIP3    H242067   4.468   0.584   4.581
 5958TIP3   OH242068   4.457   0.342   4.080
 5958TIP3    H142069   4.509   0.378   3.858
 5958TIP3    H242070   4.365   0.360   3.993
 5959TIP3   OH242071   4.624   0.881   3.951
 5959TIP3    H142072   4.711   0.915   4.014
 5959TIP3    H242073   4.571   0.961   3.897
 5960TIP3   OH242074   5.046   0.638   5.532
 5960TIP3    H142075   5.080   0.546   5.544
 5960TIP3    H242076   5.106   0.676   5.328
 5961TIP3   OH242077   5.210   0.946   5.094
 5961TIP3    H142078   5.173   1.006   4.887
 5961TIP3    H242079   5.305   0.960   5.055
 5962TIP3   OH242080   4.277   0.597   5.334
 5962TIP3    H142081   4.187   0.604   5.214
 5962TIP3    H242082   4.329   0.580   5.091
 5963TIP3   OH242083   4.520   0.092   4.029
 5963TIP3    H142084   4.503   0.189   4.065
 5963TIP3    H242085   4.429   0.065   3.966
 5964TIP3   OH242086   4.659   0.521   5.271
 5964TIP3    H142087   4.628   0.500   5.541
 5964TIP3    H242088   4.581   0.495   5.112
 5965TIP3   OH242089   4.955   0.416   4.986
 5965TIP3    H142090   4.861   0.412   5.058
 5965TIP3    H242091   4.995   0.358   5.187
 5966TIP3   OH242092   5.127   0.324   5.622
 5966TIP3    H142093   5.108   0.227   5.616
 5966TIP3    H242094   5.100   0.347   5.898
 5967TIP3   OH242095   4.057   0.406   5.409
 5967TIP3    H142096   4.116   0.353   5.247
 5967TIP3    H242097   4.047   0.356   5.655
 5968TIP3   OH242098   4.529   0.089   4.866
 5968TIP3    H142099   4.570   0.003   4.926
 5968TIP3    H242100   4.538   0.093   4.575
 5969TIP3   OH242101   4.601   0.163   5.637
 5969TIP3    H142102   4.579   0.139   5.361
 5969TIP3    H242103   4.550   0.245   5.676
 5970TIP3   OH242104   4.542   1.849   0.588
 5970TIP3    H142105   4.639   1.832   0.600
 5970TIP3    H242106   4.533   1.870   0.306
 5971TIP3   OH242107   3.923   1.345   0.483
 5971TIP3    H142108   4.021   1.341   0.495
 5971TIP3    H242109   3.900   1.296   0.240
 5972TIP3   OH242110   3.781   1.839   1.899
 5972TIP3    H142111   3.709   1.783   1.785
 5972TIP3    H242112   3.813   1.780   2.115
 5973TIP3   OH242113   3.887   1.670   2.457
 5973TIP3    H142114   3.813   1.612   2.532
 5973TIP3    H242115   3.933   1.679   2.715
 5974TIP3   OH242116   5.613   1.746   3.240
 5974TIP3    H142117   5.641   1.742   3.519
 5974TIP3    H242118   5.691   1.785   3.114
 5975TIP3   OH242119   5.574   1.720   4.107
 5975TIP3    H142120   5.532   1.636   4.020
 5975TIP3    H242121   5.600   1.695   4.377
 5976TIP3   OH242122   5.541   1.122   1.191
 5976TIP3    H142123   5.624   1.170   1.251
 5976TIP3    H242124   5.535   1.067   1.434
 5977TIP3   OH242125   5.573   0.958   1.902
 5977TIP3    H142126   5.497   0.898   1.947
 5977TIP3    H242127   5.609   0.965   2.172
 5978TIP3   OH242128   5.563   1.209   3.198
 5978TIP3    H142129   5.629   1.137   3.171
 5978TIP3    H242130   5.604   1.283   3.054
 5979TIP3   OH242131   5.436   1.484   3.933
 5979TIP3    H142132   5.370   1.517   4.122
 5979TIP3    H242133   5.380   1.451   3.714
 5980TIP3   OH242134   5.640   0.922   0.651
 5980TIP3    H142135   5.562   0.948   0.495
 5980TIP3    H242136   5.637   0.993   0.852
 5981TIP3   OH242137   5.420   0.638   0.468
 5981TIP3    H142138   5.401   0.706   0.270
 5981TIP3    H242139   5.431   0.562   0.291
 5982TIP3   OH242140   5.381   0.786   2.091
 5982TIP3    H142141   5.360   0.697   1.998
 5982TIP3    H242142   5.346   0.784   2.364
 5983TIP3   OH242143   3.859   1.012   3.261
 5983TIP3    H142144   3.861   0.985   2.979
 5983TIP3    H242145   3.949   0.980   3.342
 5984TIP3   OH242146   5.490   0.962   4.830
 5984TIP3    H142147   5.532   0.894   5.001
 5984TIP3    H242148   5.548   1.040   4.860
 5985TIP3   OH242149   5.571   0.742   5.220
 5985TIP3    H142150   5.487   0.708   5.103
 5985TIP3    H242151   5.638   0.681   5.109
 5986TIP3   OH242152   5.382   0.381   0.030
 5986TIP3    H142153   5.457   0.341   0.177
 5986TIP3    H242154   5.311   0.317   0.087
 5987TIP3   OH242155   5.337   0.565   1.509
 5987TIP3    H142156   5.360   0.473   1.587
 5987TIP3    H242157   5.421   0.590   1.380
 5988TIP3   OH242158   5.429   0.598   3.234
 5988TIP3    H142159   5.526   0.622   3.246
 5988TIP3    H242160   5.405   0.605   3.516
 5989TIP3   OH242161   5.430   0.684   3.978
 5989TIP3    H142162   5.343   0.702   4.092
 5989TIP3    H242163   5.463   0.774   3.906
 5990TIP3   OH242164   3.855   0.531   4.947
 5990TIP3    H142165   3.933   0.512   5.118
 5990TIP3    H242166   3.801   0.452   5.007
 5991TIP3   OH242167   5.682   0.099   5.550
 5991TIP3    H142168   5.769   0.096   5.409
 5991TIP3    H242169   5.646   0.174   5.397
 5992TIP3   OH242170   5.411   0.311   1.653
 5992TIP3    H142171   5.445   0.252   1.866
 5992TIP3    H242172   5.346   0.253   1.521
 5993TIP3   OH242173   3.951   0.373   2.991
 5993TIP3    H142174   3.990   0.284   3.027
 5993TIP3    H242175   4.034   0.424   2.991
 5994TIP3   OH242176   3.790   0.670   3.213
 5994TIP3    H142177   3.848   0.660   2.976
 5994TIP3    H242178   3.856   0.703   3.399
 5995TIP3   OH242179   5.589   0.330   5.100
 5995TIP3    H142180   5.499   0.359   5.169
 5995TIP3    H242181   5.570   0.273   4.866
 5996TIP3   OH242182   5.602   0.293   0.465
 5996TIP3    H142183   5.649   0.250   0.243
 5996TIP3    H242184   5.663   0.366   0.528
 5997TIP3   OH242185   3.806   0.265   1.521
 5997TIP3    H142186   3.716   0.299   1.470
 5997TIP3    H242187   3.854   0.312   1.308
 5998TIP3   OH242188   5.292   1.763   2.016
 5998TIP3    H142189   5.366   1.749   1.827
 5998TIP3    H242190   5.334   1.816   2.226
 5999TIP3   OH242191   3.844   0.177   3.882
 5999TIP3    H142192   3.781   0.186   4.104
 5999TIP3    H242193   3.807   0.246   3.708
 6000TIP3   OH242194   4.042   1.439   5.217
 6000TIP3    H142195   4.000   1.439   4.956
 6000TIP3    H242196   3.971   1.401   5.379
 6001TIP3   OH242197   4.341   1.593   4.107
 6001TIP3    H142198   4.342   1.686   4.020
 6001TIP3    H242199   4.438   1.578   4.104
 6002TIP3   OH242200   4.753   1.701   4.887
 6002TIP3    H142201   4.770   1.683   5.169
 6002TIP3    H242202   4.840   1.739   4.806
 6003TIP3   OH242203   4.979   1.858   4.704
 6003TIP3    H142204   5.053   1.806   4.590
 6003TIP3    H242205   5.020   1.889   4.956
 6004TIP3   OH242206   5.523   0.162   4.425
 6004TIP3    H142207   5.438   0.192   4.320
 6004TIP3    H242208   5.505   0.066   4.443
 6005TIP3   OH242209   4.075   1.893   4.029
 6005TIP3    H142210   4.005   1.948   3.906
 6005TIP3    H242211   4.062   1.913   4.311
 6006TIP3   OH242212   4.322   1.848   3.717
 6006TIP3    H142213   4.232   1.860   3.831
 6006TIP3    H242214   4.316   1.908   3.486
 6007TIP3   OH242215   4.768   1.810   3.519
 6007TIP3    H142216   4.737   1.879   3.339
 6007TIP3    H242217   4.808   1.867   3.726
 6008TIP3   OH242218   4.987   1.688   3.942
 6008TIP3    H142219   4.934   1.715   3.708
 6008TIP3    H242220   5.068   1.739   3.888
 6009TIP3   OH242221   5.271   1.834   3.828
 6009TIP3    H142222   5.287   1.928   3.768
 6009TIP3    H242223   5.298   1.792   3.576
 6010TIP3   OH242224   4.039   1.735   3.132
 6010TIP3    H142225   4.009   1.670   3.330
 6010TIP3    H242226   4.124   1.694   3.045
 6011TIP3   OH242227   4.239   1.613   2.733
 6011TIP3    H142228   4.239   1.520   2.835
 6011TIP3    H242229   4.327   1.643   2.829
 6012TIP3   OH242230   4.477   1.636   3.048
 6012TIP3    H142231   4.510   1.546   2.994
 6012TIP3    H242232   4.485   1.637   3.339
 6013TIP3   OH242233   4.836   0.272   2.694
 6013TIP3    H142234   4.777   0.194   2.721
 6013TIP3    H242235   4.900   0.238   2.499
 6014TIP3   OH242236   5.319   0.125   2.736
 6014TIP3    H142237   5.386   0.142   2.529
 6014TIP3    H242238   5.235   0.152   2.610
 6015TIP3   OH242239   5.551   0.184   2.229
 6015TIP3    H142240   5.608   0.150   2.016
 6015TIP3    H242241   5.597   0.269   2.292
 6016TIP3   OH242242   4.064   0.129   2.106
 6016TIP3    H142243   4.002   0.160   1.899
 6016TIP3    H242244   4.061   0.031   2.058
 6017TIP3   OH242245   3.971   0.128   0.981
 6017TIP3    H142246   4.004   0.167   0.732
 6017TIP3    H242247   3.878   0.157   0.975
 6018TIP3   OH242248   4.529   0.121   2.004
 6018TIP3    H142249   4.606   0.164   1.878
 6018TIP3    H242250   4.558   0.122   2.286
 6019TIP3   OH242251   5.067   0.153   2.388
 6019TIP3    H142252   5.093   0.142   2.112
 6019TIP3    H242253   5.056   0.060   2.472
 6020TIP3   OH242254   5.227   0.184   1.227
 6020TIP3    H142255   5.135   0.217   1.203
 6020TIP3    H242256   5.217   0.089   1.173
 6021TIP3   OH242257   3.957   1.675   1.152
 6021TIP3    H142258   3.870   1.650   1.041
 6021TIP3    H242259   3.961   1.766   1.047
 6022TIP3   OH242260   4.098   0.216   0.330
 6022TIP3    H142261   4.181   0.167   0.303
 6022TIP3    H242262   4.129   0.302   0.423
 6023TIP3   OH242263   4.613   0.300   1.083
 6023TIP3    H142264   4.664   0.240   1.251
 6023TIP3    H242265   4.632   0.383   1.221
 6024TIP3   OH242266   4.810   1.783   0.519
 6024TIP3    H142267   4.906   1.808   0.546
 6024TIP3    H242268   4.816   1.734   0.267
 6025TIP3   OH242269   5.474   1.711   1.476
 6025TIP3    H142270   5.472   1.620   1.362
 6025TIP3    H242271   5.445   1.765   1.248
 6026TIP3   OH242272   4.011   0.100   5.085
 6026TIP3    H142273   4.014   0.003   5.049
 6026TIP3    H242274   4.095   0.116   5.229
 6027TIP3   OH242275   4.265   0.123   5.442
 6027TIP3    H142276   4.343   0.164   5.322
 6027TIP3    H242277   4.273   0.030   5.343
 6028TIP3   OH242278   4.125   1.768   0.375
 6028TIP3    H142279   4.082   1.797   0.621
 6028TIP3    H242280   4.183   1.698   0.462
 6029TIP3   OH242281   5.069   0.070   5.502
 6029TIP3    H142282   5.029  -0.016   5.568
 6029TIP3    H242283   5.138   0.040   5.316
 6030TIP3   OH242284   5.470   1.664   4.968
 6030TIP3    H142285   5.418   1.586   5.058
 6030TIP3    H242286   5.394   1.720   4.893
 6031TIP3   OH242287   6.868   0.996   2.067
 6031TIP3    H142288   6.861   1.087   2.175
 6031TIP3    H242289   6.798   1.000   1.863
 6032TIP3   OH242290   6.737   0.895   3.078
 6032TIP3    H142291   6.753   0.840   3.318
 6032TIP3    H242292   6.682   0.838   2.904
 6033TIP3   OH242293   5.969   0.910   3.504
 6033TIP3    H142294   5.956   0.834   3.684
 6033TIP3    H242295   6.040   0.957   3.642
 6034TIP3   OH242296   7.107   1.214   2.670
 6034TIP3    H142297   7.115   1.139   2.850
 6034TIP3    H242298   7.100   1.288   2.856
 6035TIP3   OH242299   6.069   1.361   2.970
 6035TIP3    H142300   6.035   1.270   2.937
 6035TIP3    H242301   6.164   1.338   2.949
 6036TIP3   OH242302   5.746   0.684   1.737
 6036TIP3    H142303   5.697   0.756   1.863
 6036TIP3    H242304   5.694   0.673   1.494
 6037TIP3   OH242305   5.788   0.937   2.448
 6037TIP3    H142306   5.833   0.850   2.496
 6037TIP3    H242307   5.847   0.981   2.262
 6038TIP3   OH242308   6.833   1.749   2.601
 6038TIP3    H142309   6.901   1.699   2.442
 6038TIP3    H242310   6.801   1.674   2.757
 6039TIP3   OH242311   6.565   1.211   3.348
 6039TIP3    H142312   6.585   1.143   3.147
 6039TIP3    H242313   6.653   1.219   3.480
 6040TIP3   OH242314   7.440   0.356   3.288
 6040TIP3    H142315   7.459   0.426   3.489
 6040TIP3    H242316   7.491   0.389   3.063
 6041TIP3   OH242317   6.920   0.612   3.381
 6041TIP3    H142318   6.973   0.530   3.384
 6041TIP3    H242319   6.899   0.616   3.096
 6042TIP3   OH242320   6.229   0.417   2.382
 6042TIP3    H142321   6.238   0.499   2.217
 6042TIP3    H242322   6.183   0.358   2.190
 6043TIP3   OH242323   6.996   0.441   1.959
 6043TIP3    H142324   7.043   0.420   2.214
 6043TIP3    H242325   7.058   0.502   1.833
 6044TIP3   OH242326   5.879   0.686   2.730
 6044TIP3    H142327   5.952   0.656   2.898
 6044TIP3    H242328   5.895   0.637   2.484
 6045TIP3   OH242329   6.372   0.821   2.556
 6045TIP3    H142330   6.451   0.772   2.646
 6045TIP3    H242331   6.344   0.766   2.328
 6046TIP3   OH242332   7.497   0.468   4.017
 6046TIP3    H142333   7.429   0.539   4.047
 6046TIP3    H242334   7.505   0.440   4.293
 6047TIP3   OH242335   6.126   0.333   3.654
 6047TIP3    H142336   6.089   0.392   3.447
 6047TIP3    H242337   6.054   0.330   3.855
 6048TIP3   OH242338   6.800   1.251   1.731
 6048TIP3    H142339   6.801   1.255   1.440
 6048TIP3    H242340   6.770   1.342   1.794
 6049TIP3   OH242341   6.346   1.089   3.615
 6049TIP3    H142342   6.290   1.166   3.702
 6049TIP3    H242343   6.422   1.137   3.495
 6050TIP3   OH242344   7.151   0.397   2.595
 6050TIP3    H142345   7.102   0.353   2.808
 6050TIP3    H242346   7.243   0.389   2.688
 6051TIP3   OH242347   6.088   0.517   3.036
 6051TIP3    H142348   6.148   0.582   3.162
 6051TIP3    H242349   6.139   0.490   2.799
 6052TIP3   OH242350   6.210   1.294   3.915
 6052TIP3    H142351   6.203   1.380   3.783
 6052TIP3    H242352   6.124   1.290   4.059
 6053TIP3   OH242353   5.794   1.220   1.230
 6053TIP3    H142354   5.781   1.275   0.990
 6053TIP3    H242355   5.798   1.288   1.440
 6054TIP3   OH242356   7.152   1.424   3.231
 6054TIP3    H142357   7.061   1.439   3.330
 6054TIP3    H242358   7.172   1.513   3.135
 6055TIP3   OH242359   7.217   0.208   3.744
 6055TIP3    H142360   7.155   0.239   3.537
 6055TIP3    H242361   7.287   0.177   3.567
 6056TIP3   OH242362   6.509   0.107   2.766
 6056TIP3    H142363   6.508   0.018   2.883
 6056TIP3    H242364   6.454   0.155   2.961
 6057TIP3   OH242365   6.981   1.584   2.202
 6057TIP3    H142366   7.002   1.498   2.070
 6057TIP3    H242367   7.069   1.629   2.178
 6058TIP3   OH242368   7.078   1.374   1.812
 6058TIP3    H142369   7.076   1.299   1.626
 6058TIP3    H242370   7.123   1.336   2.043
 6059TIP3   OH242371   7.247   1.236   4.419
 6059TIP3    H142372   7.256   1.169   4.200
 6059TIP3    H242373   7.261   1.318   4.269
 6060TIP3   OH242374   6.720   0.943   1.290
 6060TIP3    H142375   6.675   1.029   1.251
 6060TIP3    H242376   6.795   0.948   1.107
 6061TIP3   OH242377   6.775   0.791   0.378
 6061TIP3    H142378   6.854   0.827   0.516
 6061TIP3    H242379   6.805   0.700   0.312
 6062TIP3   OH242380   7.419   0.881   3.732
 6062TIP3    H142381   7.357   0.957   3.708
 6062TIP3    H242382   7.487   0.903   3.525
 6063TIP3   OH242383   7.078   0.937   1.596
 6063TIP3    H142384   7.007   0.964   1.788
 6063TIP3    H242385   7.139   0.888   1.776
 6064TIP3   OH242386   7.055   0.783   4.350
 6064TIP3    H142387   7.027   0.873   4.434
 6064TIP3    H242388   7.003   0.778   4.107
 6065TIP3   OH242389   6.236   1.021   2.166
 6065TIP3    H142390   6.193   0.999   1.905
 6065TIP3    H242391   6.286   0.940   2.223
 6066TIP3   OH242392   6.365   1.341   2.955
 6066TIP3    H142393   6.379   1.325   2.673
 6066TIP3    H242394   6.444   1.299   3.081
 6067TIP3   OH242395   6.245   0.881   3.270
 6067TIP3    H142396   6.283   0.880   2.997
 6067TIP3    H242397   6.292   0.958   3.390
 6068TIP3   OH242398   6.908   1.463   3.465
 6068TIP3    H142399   6.899   1.540   3.642
 6068TIP3    H242400   6.869   1.393   3.633
 6069TIP3   OH242401   6.380   1.327   4.515
 6069TIP3    H142402   6.309   1.376   4.656
 6069TIP3    H242403   6.331   1.299   4.272
 6070TIP3   OH242404   6.959   0.885   0.876
 6070TIP3    H142405   6.996   0.892   1.146
 6070TIP3    H242406   7.018   0.947   0.729
 6071TIP3   OH242407   6.067   0.935   4.329
 6071TIP3    H142408   6.092   1.016   4.461
 6071TIP3    H242409   5.991   0.906   4.494
 6072TIP3   OH242410   6.728   1.533   1.743
 6072TIP3    H142411   6.771   1.567   1.983
 6072TIP3    H242412   6.688   1.612   1.629
 6073TIP3   OH242413   6.198   1.490   4.881
 6073TIP3    H142414   6.184   1.528   4.611
 6073TIP3    H242415   6.105   1.465   4.947
 6074TIP3   OH242416   7.300   0.131   0.702
 6074TIP3    H142417   7.258   0.151   0.957
 6074TIP3    H242418   7.355   0.210   0.666
 6075TIP3   OH242419   6.098   0.930   1.497
 6075TIP3    H142420   6.069   0.995   1.296
 6075TIP3    H242421   6.063   0.847   1.389
 6076TIP3   OH242422   7.460   1.509   0.480
 6076TIP3    H142423   7.502   1.597   0.498
 6076TIP3    H242424   7.535   1.448   0.519
 6077TIP3   OH242425   5.762   1.171   4.164
 6077TIP3    H142426   5.724   1.159   3.900
 6077TIP3    H242427   5.788   1.078   4.230
 6078TIP3   OH242428   5.739   1.438   3.003
 6078TIP3    H142429   5.833   1.420   3.054
 6078TIP3    H242430   5.719   1.503   3.207
 6079TIP3   OH242431   7.537   1.515   4.836
 6079TIP3    H142432   7.545   1.421   4.782
 6079TIP3    H242433   7.447   1.517   4.950
 6080TIP3   OH242434   6.627   1.441   4.554
 6080TIP3    H142435   6.632   1.514   4.746
 6080TIP3    H242436   6.532   1.415   4.551
 6081TIP3   OH242437   6.683   1.822   1.374
 6081TIP3    H142438   6.697   1.861   1.107
 6081TIP3    H242439   6.675   1.904   1.533
 6082TIP3   OH242440   6.044   1.694   2.031
 6082TIP3    H142441   6.076   1.666   2.298
 6082TIP3    H242442   5.955   1.652   2.025
 6083TIP3   OH242443   6.972   1.806   0.525
 6083TIP3    H142444   6.996   1.711   0.474
 6083TIP3    H242445   6.976   1.809   0.816
 6084TIP3   OH242446   6.946   1.739   1.368
 6084TIP3    H142447   6.850   1.745   1.431
 6084TIP3    H242448   6.978   1.674   1.563
 6085TIP3   OH242449   7.210   0.653   4.977
 6085TIP3    H142450   7.174   0.688   4.725
 6085TIP3    H242451   7.280   0.593   4.887
 6086TIP3   OH242452   5.987   1.290   4.359
 6086TIP3    H142453   5.982   1.258   4.641
 6086TIP3    H242454   5.899   1.264   4.266
 6087TIP3   OH242455   6.275   0.212   3.117
 6087TIP3    H142456   6.198   0.235   2.949
 6087TIP3    H242457   6.255   0.268   3.351
 6088TIP3   OH242458   6.652   0.161   4.395
 6088TIP3    H142459   6.712   0.085   4.353
 6088TIP3    H242460   6.595   0.149   4.158
 6089TIP3   OH242461   7.017   0.487   4.341
 6089TIP3    H142462   6.964   0.461   4.575
 6089TIP3    H242463   7.039   0.579   4.407
 6090TIP3   OH242464   7.114   1.018   0.366
 6090TIP3    H142465   7.068   1.025   0.105
 6090TIP3    H242466   7.206   1.017   0.258
 6091TIP3   OH242467   6.649   0.368   0.417
 6091TIP3    H142468   6.606   0.328   0.654
 6091TIP3    H242469   6.604   0.327   0.195
 6092TIP3   OH242470   6.250   0.641   3.561
 6092TIP3    H142471   6.170   0.641   3.726
 6092TIP3    H242472   6.252   0.736   3.474
 6093TIP3   OH242473   6.244   0.647   1.974
 6093TIP3    H142474   6.148   0.630   1.950
 6093TIP3    H242475   6.278   0.628   1.704
 6094TIP3   OH242476   6.832   0.707   1.626
 6094TIP3    H142477   6.791   0.788   1.515
 6094TIP3    H242478   6.889   0.678   1.404
 6095TIP3   OH242479   6.694   0.741   5.019
 6095TIP3    H142480   6.647   0.658   5.094
 6095TIP3    H242481   6.771   0.734   5.199
 6096TIP3   OH242482   6.914   0.654   2.487
 6096TIP3    H142483   6.889   0.740   2.364
 6096TIP3    H242484   6.915   0.598   2.247
 6097TIP3   OH242485   5.989   0.646   3.927
 6097TIP3    H142486   6.043   0.686   4.137
 6097TIP3    H242487   5.960   0.562   4.044
 6098TIP3   OH242488   6.321   0.416   0.117
 6098TIP3    H142489   6.282   0.403   0.381
 6098TIP3    H242490   6.249   0.464  -0.024
 6099TIP3   OH242491   5.699   0.412   2.247
 6099TIP3    H142492   5.775   0.389   2.415
 6099TIP3    H242493   5.726   0.380   1.983
 6100TIP3   OH242494   5.793   0.444   0.942
 6100TIP3    H142495   5.870   0.488   0.822
 6100TIP3    H242496   5.734   0.520   0.993
 6101TIP3   OH242497   6.814   0.802   3.822
 6101TIP3    H142498   6.869   0.739   3.660
 6101TIP3    H242499   6.756   0.737   3.960
 6102TIP3   OH242500   6.519   0.395   2.310
 6102TIP3    H142501   6.426   0.367   2.325
 6102TIP3    H242502   6.549   0.376   2.583
 6103TIP3   OH242503   5.979   0.573   1.977
 6103TIP3    H142504   5.892   0.599   1.863
 6103TIP3    H242505   5.995   0.485   1.863
 6104TIP3   OH242506   6.345   0.579   1.275
 6104TIP3    H142507   6.442   0.585   1.308
 6104TIP3    H242508   6.322   0.639   1.047
 6105TIP3   OH242509   6.972   0.307   3.240
 6105TIP3    H142510   6.910   0.321   3.462
 6105TIP3    H242511   6.909   0.268   3.051
 6106TIP3   OH242512   6.226   0.713   0.681
 6106TIP3    H142513   6.141   0.683   0.573
 6106TIP3    H242514   6.283   0.720   0.444
 6107TIP3   OH242515   7.245   1.859   5.250
 6107TIP3    H142516   7.285   1.906   5.019
 6107TIP3    H242517   7.312   1.877   5.457
 6108TIP3   OH242518   5.999   1.147   5.079
 6108TIP3    H142519   6.076   1.164   5.253
 6108TIP3    H242520   5.936   1.109   5.265
 6109TIP3   OH242521   6.636   0.668   2.796
 6109TIP3    H142522   6.705   0.618   2.658
 6109TIP3    H242523   6.618   0.608   3.012
 6110TIP3   OH242524   6.095   0.306   1.785
 6110TIP3    H142525   6.045   0.235   1.923
 6110TIP3    H242526   6.140   0.258   1.569
 6111TIP3   OH242527   6.481   0.505   3.558
 6111TIP3    H142528   6.403   0.565   3.585
 6111TIP3    H242529   6.551   0.556   3.684
 6112TIP3   OH242530   6.542   1.159   1.155
 6112TIP3    H142531   6.473   1.095   1.065
 6112TIP3    H242532   6.507   1.175   1.428
 6113TIP3   OH242533   7.256   1.093   3.771
 6113TIP3    H142534   7.310   1.140   3.570
 6113TIP3    H242535   7.172   1.077   3.630
 6114TIP3   OH242536   6.897   0.402   0.714
 6114TIP3    H142537   6.813   0.433   0.591
 6114TIP3    H242538   6.945   0.486   0.753
 6115TIP3   OH242539   6.648   1.167   4.452
 6115TIP3    H142540   6.643   1.135   4.725
 6115TIP3    H242541   6.642   1.263   4.500
 6116TIP3   OH242542   7.011   0.620   1.026
 6116TIP3    H142543   7.097   0.606   1.164
 6116TIP3    H242544   7.024   0.708   0.906
 6117TIP3   OH242545   6.075   1.089   2.853
 6117TIP3    H142546   6.140   1.075   2.640
 6117TIP3    H242547   6.081   1.008   3.012
 6118TIP3   OH242548   6.768   1.285   0.849
 6118TIP3    H142549   6.729   1.375   0.873
 6118TIP3    H242550   6.687   1.231   0.879
 6119TIP3   OH242551   5.767   0.897   4.404
 6119TIP3    H142552   5.743   0.842   4.638
 6119TIP3    H242553   5.706   0.863   4.200
 6120TIP3   OH242554   6.452   0.877   4.995
 6120TIP3    H142555   6.409   0.823   4.791
 6120TIP3    H242556   6.544   0.842   4.989
 6121TIP3   OH242557   6.946   1.405   4.515
 6121TIP3    H142558   6.857   1.419   4.404
 6121TIP3    H242559   6.934   1.450   4.773
 6122TIP3   OH242560   7.470   0.643   1.035
 6122TIP3    H142561   7.421   0.611   0.798
 6122TIP3    H242562   7.483   0.735   0.948
 6123TIP3   OH242563   7.487   1.196   4.755
 6123TIP3    H142564   7.403   1.229   4.641
 6123TIP3    H242565   7.540   1.183   4.512
 6124TIP3   OH242566   7.326   1.472   1.200
 6124TIP3    H142567   7.240   1.431   1.158
 6124TIP3    H242568   7.366   1.470   0.936
 6125TIP3   OH242569   7.062   1.003   3.222
 6125TIP3    H142570   6.968   1.005   3.153
 6125TIP3    H242571   7.091   0.923   3.069
 6126TIP3   OH242572   6.282   1.422   2.091
 6126TIP3    H142573   6.312   1.511   2.001
 6126TIP3    H242574   6.187   1.430   2.046
 6127TIP3   OH242575   5.895   0.897   0.321
 6127TIP3    H142576   5.946   0.961   0.483
 6127TIP3    H242577   5.805   0.907   0.435
 6128TIP3   OH242578   6.436   1.195   1.929
 6128TIP3    H142579   6.378   1.275   1.962
 6128TIP3    H242580   6.387   1.128   2.088
 6129TIP3   OH242581   6.485   1.604   3.969
 6129TIP3    H142582   6.547   1.674   3.879
 6129TIP3    H242583   6.544   1.556   4.158
 6130TIP3   OH242584   6.309   1.673   1.764
 6130TIP3    H142585   6.216   1.696   1.827
 6130TIP3    H242586   6.354   1.756   1.848
 6131TIP3   OH242587   6.797   1.194   3.759
 6131TIP3    H142588   6.746   1.166   3.996
 6131TIP3    H242589   6.846   1.113   3.705
 6132TIP3   OH242590   7.065   1.329   0.441
 6132TIP3    H142591   7.103   1.294   0.690
 6132TIP3    H242592   6.979   1.284   0.453
 6133TIP3   OH242593   7.108   1.650   4.458
 6133TIP3    H142594   7.022   1.607   4.422
 6133TIP3    H242595   7.117   1.706   4.218
 6134TIP3   OH242596   7.546   1.763   0.456
 6134TIP3    H142597   7.618   1.827   0.468
 6134TIP3    H242598   7.474   1.808   0.606
 6135TIP3   OH242599   5.942   0.365   4.227
 6135TIP3    H142600   5.851   0.390   4.161
 6135TIP3    H242601   5.930   0.282   4.371
 6136TIP3   OH242602   7.162   1.178   1.101
 6136TIP3    H142603   7.133   1.087   1.140
 6136TIP3    H242604   7.259   1.166   1.101
 6137TIP3   OH242605   5.896   1.570   3.777
 6137TIP3    H142606   5.960   1.499   3.804
 6137TIP3    H242607   5.901   1.610   4.041
 6138TIP3   OH242608   6.334   1.365   0.762
 6138TIP3    H142609   6.418   1.334   0.870
 6138TIP3    H242610   6.341   1.461   0.831
 6139TIP3   OH242611   5.996   1.093   0.822
 6139TIP3    H142612   5.924   1.141   0.966
 6139TIP3    H242613   6.051   1.168   0.735
 6140TIP3   OH242614   6.778   0.357   3.999
 6140TIP3    H142615   6.863   0.375   4.128
 6140TIP3    H242616   6.735   0.297   4.194
 6141TIP3   OH242617   6.853   0.295   1.431
 6141TIP3    H142618   6.859   0.348   1.182
 6141TIP3    H242619   6.915   0.343   1.608
 6142TIP3   OH242620   6.643   1.536   0.828
 6142TIP3    H142621   6.576   1.548   1.035
 6142TIP3    H242622   6.670   1.628   0.795
 6143TIP3   OH242623   6.606   0.533   1.575
 6143TIP3    H142624   6.694   0.575   1.587
 6143TIP3    H242625   6.588   0.508   1.854
 6144TIP3   OH242626   6.673   0.632   4.278
 6144TIP3    H142627   6.694   0.664   4.551
 6144TIP3    H242628   6.707   0.541   4.260
 6145TIP3   OH242629   6.644   0.202   1.791
 6145TIP3    H142630   6.632   0.273   1.986
 6145TIP3    H242631   6.730   0.229   1.668
 6146TIP3   OH242632   6.370   1.621   0.981
 6146TIP3    H142633   6.399   1.706   0.858
 6146TIP3    H242634   6.341   1.650   1.248
 6147TIP3   OH242635   6.216   0.381   0.885
 6147TIP3    H142636   6.233   0.448   1.095
 6147TIP3    H242637   6.297   0.329   0.924
 6148TIP3   OH242638   7.261   0.398   4.503
 6148TIP3    H142639   7.171   0.436   4.494
 6148TIP3    H242640   7.260   0.349   4.251
 6149TIP3   OH242641   7.127   0.778   2.793
 6149TIP3    H142642   7.048   0.727   2.721
 6149TIP3    H242643   7.179   0.707   2.928
 6150TIP3   OH242644   6.072   1.339   0.579
 6150TIP3    H142645   6.164   1.357   0.678
 6150TIP3    H242646   6.091   1.329   0.294
 6151TIP3   OH242647   5.912   0.631   0.456
 6151TIP3    H142648   5.926   0.728   0.426
 6151TIP3    H242649   5.844   0.616   0.252
 6152TIP3   OH242650   7.259   1.687   3.234
 6152TIP3    H142651   7.238   1.761   3.045
 6152TIP3    H242652   7.355   1.698   3.261
 6153TIP3   OH242653   5.994   0.163   2.898
 6153TIP3    H142654   5.969   0.144   2.619
 6153TIP3    H242655   5.978   0.073   3.000
 6154TIP3   OH242656   5.847   1.490   1.764
 6154TIP3    H142657   5.768   1.546   1.773
 6154TIP3    H242658   5.884   1.523   1.512
 6155TIP3   OH242659   5.802   1.768   5.058
 6155TIP3    H142660   5.896   1.752   5.112
 6155TIP3    H242661   5.766   1.677   5.055
 6156TIP3   OH242662   6.268   1.651   5.550
 6156TIP3    H142663   6.353   1.618   5.649
 6156TIP3    H242664   6.265   1.609   5.286
 6157TIP3   OH242665   6.685   1.583  -0.036
 6157TIP3    H142666   6.602   1.542   0.039
 6157TIP3    H242667   6.747   1.529   0.120
 6158TIP3   OH242668   6.895   1.524   5.256
 6158TIP3    H142669   6.860   1.436   5.349
 6158TIP3    H242670   6.983   1.522   5.382
 6159TIP3   OH242671   7.054   1.581   0.171
 6159TIP3    H142672   7.057   1.488   0.267
 6159TIP3    H242673   7.144   1.595   0.066
 6160TIP3   OH242674   5.756   1.118   5.445
 6160TIP3    H142675   5.739   1.024   5.382
 6160TIP3    H242676   5.719   1.164   5.208
 6161TIP3   OH242677   6.278   1.102   0.162
 6161TIP3    H142678   6.251   1.089   0.438
 6161TIP3    H242679   6.352   1.164   0.201
 6162TIP3   OH242680   6.441   1.144   5.097
 6162TIP3    H142681   6.427   1.195   4.848
 6162TIP3    H242682   6.427   1.050   5.013
 6163TIP3   OH242683   7.011   1.112   4.527
 6163TIP3    H142684   7.102   1.149   4.557
 6163TIP3    H242685   6.962   1.196   4.530
 6164TIP3   OH242686   5.921   0.847   5.289
 6164TIP3    H142687   5.977   0.769   5.325
 6164TIP3    H242688   5.955   0.907   5.499
 6165TIP3   OH242689   6.357   0.972   0.861
 6165TIP3    H142690   6.281   0.925   0.975
 6165TIP3    H242691   6.392   0.905   0.672
 6166TIP3   OH242692   6.248   0.749   4.305
 6166TIP3    H142693   6.186   0.823   4.353
 6166TIP3    H242694   6.318   0.799   4.167
 6167TIP3   OH242695   6.486   0.800   0.285
 6167TIP3    H142696   6.509   0.771   0.015
 6167TIP3    H242697   6.574   0.801   0.411
 6168TIP3   OH242698   6.794   1.051   5.460
 6168TIP3    H142699   6.876   1.009   5.361
 6168TIP3    H242700   6.746   0.973   5.556
 6169TIP3   OH242701   7.345   0.994  29.970
 6169TIP3    H142702   7.387   0.914  29.859
 6169TIP3    H242703   7.419   1.059  29.934
 6170TIP3   OH242704   6.340   0.529   4.689
 6170TIP3    H142705   6.349   0.464   4.470
 6170TIP3    H242706   6.332   0.612   4.530
 6171TIP3   OH242707   6.357   0.345   4.071
 6171TIP3    H142708   6.416   0.391   3.879
 6171TIP3    H242709   6.271   0.357   3.936
 6172TIP3   OH242710   6.473   0.889   4.053
 6172TIP3    H142711   6.569   0.902   4.029
 6172TIP3    H242712   6.437   0.968   3.915
 6173TIP3   OH242713   6.947   0.634   5.505
 6173TIP3    H142714   6.966   0.540   5.475
 6173TIP3    H242715   7.025   0.674   5.376
 6174TIP3   OH242716   7.075   0.964   5.184
 6174TIP3    H142717   7.049   1.010   4.935
 6174TIP3    H242718   7.167   0.937   5.115
 6175TIP3   OH242719   6.161   0.607   5.340
 6175TIP3    H142720   6.088   0.542   5.301
 6175TIP3    H242721   6.221   0.582   5.121
 6176TIP3   OH242722   6.444   0.098   3.921
 6176TIP3    H142723   6.423   0.190   4.011
 6176TIP3    H242724   6.352   0.068   3.909
 6177TIP3   OH242725   6.568   0.508   5.214
 6177TIP3    H142726   6.523   0.486   5.466
 6177TIP3    H242727   6.495   0.490   5.028
 6178TIP3   OH242728   6.852   0.416   4.965
 6178TIP3    H142729   6.756   0.412   5.022
 6178TIP3    H242730   6.887   0.355   5.172
 6179TIP3   OH242731   7.006   0.317   5.616
 6179TIP3    H142732   6.992   0.219   5.619
 6179TIP3    H242733   6.972   0.341   5.883
 6180TIP3   OH242734   5.957   0.430   5.373
 6180TIP3    H142735   5.943   0.357   5.187
 6180TIP3    H242736   5.937   0.386   5.631
 6181TIP3   OH242737   6.413   0.091   4.845
 6181TIP3    H142738   6.410  -0.006   4.896
 6181TIP3    H242739   6.490   0.103   4.671
 6182TIP3   OH242740   6.499   0.188   5.607
 6182TIP3    H142741   6.478   0.154   5.340
 6182TIP3    H242742   6.435   0.261   5.634
 6183TIP3   OH242743   6.412   1.858   0.630
 6183TIP3    H142744   6.509   1.869   0.639
 6183TIP3    H242745   6.387   1.915   0.408
 6184TIP3   OH242746   5.800   1.341   0.483
 6184TIP3    H142747   5.898   1.340   0.519
 6184TIP3    H242748   5.789   1.288   0.240
 6185TIP3   OH242749   5.671   1.839   1.863
 6185TIP3    H142750   5.596   1.786   1.761
 6185TIP3    H242751   5.703   1.784   2.085
 6186TIP3   OH242752   5.758   1.672   2.460
 6186TIP3    H142753   5.698   1.601   2.550
 6186TIP3    H242754   5.820   1.677   2.688
 6187TIP3   OH242755   7.559   1.728   3.390
 6187TIP3    H142756   7.554   1.739   3.678
 6187TIP3    H242757   7.559   1.821   3.312
 6188TIP3   OH242758   7.458   1.710   4.257
 6188TIP3    H142759   7.411   1.634   4.134
 6188TIP3    H242760   7.500   1.666   4.485
 6189TIP3   OH242761   7.319   1.270   5.697
 6189TIP3    H142762   7.230   1.284   5.814
 6189TIP3    H242763   7.356   1.360   5.712
 6190TIP3   OH242764   7.441   1.117   1.188
 6190TIP3    H142765   7.525   1.163   1.221
 6190TIP3    H242766   7.446   1.048   1.395
 6191TIP3   OH242767   7.468   0.921   1.803
 6191TIP3    H142768   7.374   0.895   1.821
 6191TIP3    H242769   7.497   0.905   2.076
 6192TIP3   OH242770   7.454   1.195   3.339
 6192TIP3    H142771   7.537   1.163   3.216
 6192TIP3    H242772   7.460   1.289   3.261
 6193TIP3   OH242773   7.313   1.482   3.990
 6193TIP3    H142774   7.235   1.524   4.107
 6193TIP3    H242775   7.285   1.468   3.711
 6194TIP3   OH242776   7.499   0.927   0.615
 6194TIP3    H142777   7.426   0.951   0.438
 6194TIP3    H242778   7.497   1.005   0.792
 6195TIP3   OH242779   7.345   0.635   0.360
 6195TIP3    H142780   7.288   0.679   0.162
 6195TIP3    H242781   7.338   0.542   0.273
 6196TIP3   OH242782   7.249   0.791   2.037
 6196TIP3    H142783   7.260   0.697   1.968
 6196TIP3    H242784   7.228   0.789   2.325
 6197TIP3   OH242785   5.752   1.017   3.231
 6197TIP3    H142786   5.763   0.990   2.949
 6197TIP3    H242787   5.842   0.997   3.336
 6198TIP3   OH242788   7.340   0.969   4.929
 6198TIP3    H142789   7.407   0.901   4.854
 6198TIP3    H242790   7.388   1.052   4.863
 6199TIP3   OH242791   7.488   0.757   4.911
 6199TIP3    H142792   7.409   0.750   5.088
 6199TIP3    H242793   7.531   0.672   4.974
 6200TIP3   OH242794   7.248   0.385   0.036
 6200TIP3    H142795   7.323   0.337   0.153
 6200TIP3    H242796   7.177   0.321   0.087
 6201TIP3   OH242797   7.253   0.558   1.434
 6201TIP3    H142798   7.283   0.471   1.533
 6201TIP3    H242799   7.337   0.588   1.308
 6202TIP3   OH242800   7.249   0.586   3.192
 6202TIP3    H142801   7.341   0.582   3.087
 6202TIP3    H242802   7.266   0.578   3.480
 6203TIP3   OH242803   7.302   0.656   3.978
 6203TIP3    H142804   7.209   0.684   3.993
 6203TIP3    H242805   7.347   0.741   3.915
 6204TIP3   OH242806   5.742   0.540   4.911
 6204TIP3    H142807   5.820   0.529   5.079
 6204TIP3    H242808   5.691   0.459   4.983
 6205TIP3   OH242809   7.579   0.069   5.607
 6205TIP3    H142810   7.666   0.079   5.481
 6205TIP3    H242811   7.526   0.128   5.433
 6206TIP3   OH242812   7.297   0.299   1.602
 6206TIP3    H142813   7.311   0.240   1.836
 6206TIP3    H242814   7.208   0.267   1.512
 6207TIP3   OH242815   5.836   0.374   3.012
 6207TIP3    H142816   5.879   0.288   3.054
 6207TIP3    H242817   5.914   0.432   3.000
 6208TIP3   OH242818   5.684   0.662   3.243
 6208TIP3    H142819   5.745   0.636   3.027
 6208TIP3    H242820   5.743   0.717   3.402
 6209TIP3   OH242821   7.465   0.254   5.136
 6209TIP3    H142822   7.388   0.309   5.223
 6209TIP3    H242823   7.438   0.233   4.860
 6210TIP3   OH242824   7.491   0.310   0.468
 6210TIP3    H142825   7.510   0.233   0.306
 6210TIP3    H242826   7.569   0.366   0.423
 6211TIP3   OH242827   5.689   0.274   1.536
 6211TIP3    H142828   5.597   0.299   1.476
 6211TIP3    H242829   5.734   0.316   1.308
 6212TIP3   OH242830   7.181   1.748   2.046
 6212TIP3    H142831   7.238   1.734   1.809
 6212TIP3    H242832   7.243   1.791   2.223
 6213TIP3   OH242833   5.735   0.170   3.891
 6213TIP3    H142834   5.673   0.183   4.113
 6213TIP3    H242835   5.693   0.226   3.684
 6214TIP3   OH242836   5.941   1.446   5.130
 6214TIP3    H142837   5.851   1.464   5.025
 6214TIP3    H242838   5.926   1.412   5.397
 6215TIP3   OH242839   6.220   1.602   4.128
 6215TIP3    H142840   6.219   1.693   4.020
 6215TIP3    H242841   6.315   1.581   4.101
 6216TIP3   OH242842   6.631   1.709   4.878
 6216TIP3    H142843   6.641   1.687   5.160
 6216TIP3    H242844   6.721   1.743   4.818
 6217TIP3   OH242845   6.857   1.856   4.776
 6217TIP3    H142846   6.938   1.823   4.656
 6217TIP3    H242847   6.889   1.893   5.034
 6218TIP3   OH242848   7.375   0.143   4.479
 6218TIP3    H142849   7.288   0.167   4.377
 6218TIP3    H242850   7.365   0.046   4.497
 6219TIP3   OH242851   5.950   1.881   4.062
 6219TIP3    H142852   5.890   1.950   3.957
 6219TIP3    H242853   5.937   1.892   4.347
 6220TIP3   OH242854   6.190   1.845   3.726
 6220TIP3    H142855   6.096   1.861   3.804
 6220TIP3    H242856   6.200   1.906   3.501
 6221TIP3   OH242857   6.679   1.810   3.513
 6221TIP3    H142858   6.614   1.852   3.339
 6221TIP3    H242859   6.690   1.880   3.717
 6222TIP3   OH242860   6.869   1.676   3.951
 6222TIP3    H142861   6.802   1.713   3.768
 6222TIP3    H242862   6.943   1.739   3.912
 6223TIP3   OH242863   7.127   1.808   3.825
 6223TIP3    H142864   7.147   1.900   3.765
 6223TIP3    H242865   7.172   1.765   3.594
 6224TIP3   OH242866   5.916   1.726   3.120
 6224TIP3    H142867   5.901   1.669   3.357
 6224TIP3    H242868   6.008   1.698   3.045
 6225TIP3   OH242869   6.138   1.631   2.778
 6225TIP3    H142870   6.127   1.535   2.829
 6225TIP3    H242871   6.227   1.643   2.895
 6226TIP3   OH242872   6.372   1.630   3.156
 6226TIP3    H142873   6.407   1.540   3.120
 6226TIP3    H242874   6.379   1.641   3.447
 6227TIP3   OH242875   6.714   0.297   2.805
 6227TIP3    H142876   6.664   0.213   2.814
 6227TIP3    H242877   6.777   0.275   2.589
 6228TIP3   OH242878   7.193   0.116   2.781
 6228TIP3    H142879   7.243   0.133   2.535
 6228TIP3    H242880   7.111   0.075   2.682
 6229TIP3   OH242881   7.374   0.114   2.148
 6229TIP3    H142882   7.446   0.057   2.058
 6229TIP3    H242883   7.421   0.180   2.316
 6230TIP3   OH242884   5.942   0.127   2.103
 6230TIP3    H142885   5.890   0.145   1.863
 6230TIP3    H242886   5.949   0.029   2.082
 6231TIP3   OH242887   5.865   0.127   1.038
 6231TIP3    H142888   5.889   0.168   0.780
 6231TIP3    H242889   5.769   0.142   1.044
 6232TIP3   OH242890   6.404   0.126   2.016
 6232TIP3    H142891   6.484   0.159   1.881
 6232TIP3    H242892   6.433   0.138   2.295
 6233TIP3   OH242893   6.927   0.166   2.340
 6233TIP3    H142894   6.983   0.180   2.103
 6233TIP3    H242895   6.935   0.070   2.382
 6234TIP3   OH242896   7.087   0.183   1.257
 6234TIP3    H142897   6.994   0.210   1.224
 6234TIP3    H242898   7.086   0.093   1.149
 6235TIP3   OH242899   5.819   1.661   1.119
 6235TIP3    H142900   5.732   1.661   0.981
 6235TIP3    H242901   5.838   1.755   1.095
 6236TIP3   OH242902   5.984   0.205   0.354
 6236TIP3    H142903   6.065   0.157   0.291
 6236TIP3    H242904   6.018   0.290   0.447
 6237TIP3   OH242905   6.499   0.315   1.128
 6237TIP3    H142906   6.541   0.248   1.293
 6237TIP3    H242907   6.530   0.394   1.275
 6238TIP3   OH242908   6.703   1.798   0.516
 6238TIP3    H142909   6.800   1.810   0.480
 6238TIP3    H242910   6.683   1.740   0.288
 6239TIP3   OH242911   7.356   1.727   1.467
 6239TIP3    H142912   7.343   1.637   1.356
 6239TIP3    H242913   7.361   1.784   1.227
 6240TIP3   OH242914   5.895   0.124   5.076
 6240TIP3    H142915   5.903   0.038   4.947
 6240TIP3    H242916   5.982   0.131   5.211
 6241TIP3   OH242917   6.131   0.108   5.448
 6241TIP3    H142918   6.221   0.145   5.454
 6241TIP3    H242919   6.152   0.020   5.322
 6242TIP3   OH242920   6.035   1.790   0.390
 6242TIP3    H142921   5.971   1.812   0.597
 6242TIP3    H242922   6.067   1.702   0.462
 6243TIP3   OH242923   6.969   0.063   5.460
 6243TIP3    H142924   6.948  -0.033   5.487
 6243TIP3    H242925   7.048   0.058   5.298
 6244TIP3   OH242926   7.286   1.574   4.992
 6244TIP3    H142927   7.221   1.585   4.776
 6244TIP3    H242928   7.291   1.667   5.082
 6245TIP3   OH242929   7.564   0.664   1.773
 6245TIP3    H142930   7.559   0.761   1.767
 6245TIP3    H242931   7.528   0.644   1.506
 6246TIP3   OH242932   7.581   1.134   4.047
 6246TIP3    H142933   7.532   1.127   3.789
 6246TIP3    H242934   7.598   1.039   4.110
 6247TIP3   OH242935   7.548   1.429   3.093
 6247TIP3    H142936   7.642   1.426   3.000
 6247TIP3    H242937   7.551   1.502   3.282
 6248TIP3   OH242938   7.534   0.345   2.277
 6248TIP3    H142939   7.620   0.388   2.343
 6248TIP3    H242940   7.536   0.357   1.986
 6249TIP3   OH242941   7.599   0.893   4.326
 6249TIP3    H142942   7.577   0.840   4.566
 6249TIP3    H242943   7.525   0.865   4.149
 6250TIP3   OH242944   7.626   1.069   5.337
 6250TIP3    H142945   7.569   1.041   5.559
 6250TIP3    H242946   7.562   1.113   5.157
 6251TIP3   OH242947   7.514   1.853   1.989
 6251TIP3    H142948   7.456   1.805   1.797
 6251TIP3    H242949   7.536   1.776   2.163
 6252TIP3   OH242950   7.560   1.631   2.448
 6252TIP3    H142951   7.526   1.541   2.487
 6252TIP3    H242952   7.601   1.645   2.709
 6253TIP3   OH242953   7.614   0.962   3.264
 6253TIP3    H142954   7.620   0.948   2.979
 6253TIP3    H242955   7.703   1.000   3.309
 6254TIP3   OH242956   7.532   0.506   5.004
 6254TIP3    H142957   7.625   0.535   5.034
 6254TIP3    H242958   7.532   0.410   5.043
 6255TIP3   OH242959   7.503   0.626   3.006
 6255TIP3    H142960   7.598   0.609   2.970
 6255TIP3    H242961   7.514   0.690   3.225
 6256TIP3   OH242962   7.558   0.317   1.425
 6256TIP3    H142963   7.461   0.309   1.455
 6256TIP3    H242964   7.566   0.318   1.134
 6257TIP3   OH242965   7.527   0.188   3.849
 6257TIP3    H142966   7.469   0.192   4.089
 6257TIP3    H242967   7.489   0.258   3.675
 6258TIP3   OH242968   1.235   2.898   2.085
 6258TIP3    H142969   1.231   2.990   2.184
 6258TIP3    H242970   1.162   2.899   1.890
 6259TIP3   OH242971   1.103   2.765   3.057
 6259TIP3    H142972   1.084   2.709   3.291
 6259TIP3    H242973   1.040   2.732   2.853
 6260TIP3   OH242974   0.342   2.777   3.486
 6260TIP3    H142975   0.338   2.694   3.633
 6260TIP3    H242976   0.397   2.830   3.666
 6261TIP3   OH242977   1.411   3.091   2.664
 6261TIP3    H142978   1.397   3.017   2.850
 6261TIP3    H242979   1.437   3.162   2.844
 6262TIP3   OH242980   0.364   3.227   2.997
 6262TIP3    H142981   0.343   3.132   2.940
 6262TIP3    H242982   0.460   3.219   3.015
 6263TIP3   OH242983   0.151   2.579   1.680
 6263TIP3    H142984   0.122   2.635   1.899
 6263TIP3    H242985   0.067   2.529   1.641
 6264TIP3   OH242986   0.117   2.788   2.463
 6264TIP3    H142987   0.169   2.711   2.559
 6264TIP3    H242988   0.183   2.833   2.298
 6265TIP3   OH242989   1.196   3.651   2.733
 6265TIP3    H142990   1.255   3.590   2.580
 6265TIP3    H242991   1.135   3.586   2.841
 6266TIP3   OH242992   0.920   3.021   3.333
 6266TIP3    H142993   0.957   3.000   3.075
 6266TIP3    H242994   0.998   3.062   3.465
 6267TIP3   OH242995   1.780   2.189   3.387
 6267TIP3    H142996   1.795   2.248   3.618
 6267TIP3    H242997   1.858   2.210   3.225
 6268TIP3   OH242998   1.292   2.487   3.387
 6268TIP3    H142999   1.297   2.391   3.432
 6268TIP3    H243000   1.269   2.484   3.102
 6269TIP3   OH243001   0.586   2.285   2.445
 6269TIP3    H143002   0.604   2.364   2.277
 6269TIP3    H243003   0.543   2.228   2.247
 6270TIP3   OH243004   1.324   2.309   2.007
 6270TIP3    H143005   1.371   2.280   2.253
 6270TIP3    H243006   1.389   2.369   1.893
 6271TIP3   OH243007   0.281   2.569   2.640
 6271TIP3    H143008   0.330   2.506   2.811
 6271TIP3    H243009   0.288   2.521   2.385
 6272TIP3   OH243010   0.666   2.696   2.532
 6272TIP3    H143011   0.755   2.667   2.610
 6272TIP3    H243012   0.644   2.624   2.340
 6273TIP3   OH243013   1.803   2.339   4.053
 6273TIP3    H143014   1.763   2.423   3.948
 6273TIP3    H243015   1.835   2.372   4.308
 6274TIP3   OH243016   0.463   2.193   3.681
 6274TIP3    H143017   0.441   2.244   3.441
 6274TIP3    H243018   0.401   2.235   3.876
 6275TIP3   OH243019   1.154   3.157   1.719
 6275TIP3    H143020   1.144   3.149   1.428
 6275TIP3    H243021   1.119   3.248   1.761
 6276TIP3   OH243022   0.693   2.967   3.732
 6276TIP3    H143023   0.637   3.044   3.801
 6276TIP3    H243024   0.767   3.009   3.585
 6277TIP3   OH243025   1.498   2.274   2.616
 6277TIP3    H143026   1.494   2.193   2.769
 6277TIP3    H243027   1.581   2.314   2.712
 6278TIP3   OH243028   0.418   2.386   3.075
 6278TIP3    H143029   0.477   2.451   3.210
 6278TIP3    H243030   0.476   2.356   2.853
 6279TIP3   OH243031   0.561   3.195   3.948
 6279TIP3    H143032   0.537   3.277   3.813
 6279TIP3    H243033   0.476   3.173   4.083
 6280TIP3   OH243034   0.104   3.120   1.215
 6280TIP3    H143035   0.116   3.160   0.948
 6280TIP3    H243036   0.144   3.185   1.398
 6281TIP3   OH243037   1.514   3.297   3.225
 6281TIP3    H143038   1.421   3.313   3.303
 6281TIP3    H243039   1.535   3.386   3.126
 6282TIP3   OH243040   1.501   2.152   3.618
 6282TIP3    H143041   1.428   2.187   3.453
 6282TIP3    H243042   1.579   2.171   3.453
 6283TIP3   OH243043   0.826   1.943   2.838
 6283TIP3    H143044   0.795   1.854   2.901
 6283TIP3    H243045   0.754   1.997   2.961
 6284TIP3   OH243046   1.342   3.480   2.280
 6284TIP3    H143047   1.355   3.397   2.133
 6284TIP3    H243048   1.425   3.526   2.196
 6285TIP3   OH243049   1.451   3.265   1.821
 6285TIP3    H143050   1.443   3.193   1.626
 6285TIP3    H243051   1.441   3.213   2.064
 6286TIP3   OH243052   1.609   3.126   4.374
 6286TIP3    H143053   1.631   3.057   4.173
 6286TIP3    H243054   1.616   3.206   4.206
 6287TIP3   OH243055   1.085   2.853   1.302
 6287TIP3    H143056   1.026   2.928   1.227
 6287TIP3    H243057   1.162   2.867   1.128
 6288TIP3   OH243058   1.112   2.684   0.435
 6288TIP3    H143059   1.180   2.728   0.606
 6288TIP3    H243060   1.160   2.600   0.387
 6289TIP3   OH243061   1.815   2.776   3.747
 6289TIP3    H143062   1.744   2.843   3.756
 6289TIP3    H243063   1.875   2.818   3.552
 6290TIP3   OH243064   1.437   2.807   1.599
 6290TIP3    H143065   1.370   2.849   1.779
 6290TIP3    H243066   1.502   2.773   1.797
 6291TIP3   OH243067   1.446   2.650   4.335
 6291TIP3    H143068   1.435   2.741   4.440
 6291TIP3    H243069   1.385   2.652   4.107
 6292TIP3   OH243070   0.567   2.915   2.175
 6292TIP3    H143071   0.521   2.879   1.938
 6292TIP3    H243072   0.592   2.833   2.319
 6293TIP3   OH243073   0.714   3.212   2.934
 6293TIP3    H143074   0.729   3.208   2.646
 6293TIP3    H243075   0.787   3.159   3.039
 6294TIP3   OH243076   0.643   2.748   3.312
 6294TIP3    H143077   0.657   2.760   3.021
 6294TIP3    H243078   0.651   2.837   3.429
 6295TIP3   OH243079   1.260   3.337   3.462
 6295TIP3    H143080   1.241   3.404   3.666
 6295TIP3    H243081   1.208   3.262   3.564
 6296TIP3   OH243082   0.709   3.225   4.617
 6296TIP3    H143083   0.630   3.265   4.743
 6296TIP3    H243084   0.676   3.212   4.341
 6297TIP3   OH243085   1.307   2.779   0.903
 6297TIP3    H143086   1.354   2.783   1.164
 6297TIP3    H243087   1.372   2.826   0.729
 6298TIP3   OH243088   0.455   2.835   4.317
 6298TIP3    H143089   0.448   2.919   4.470
 6298TIP3    H243090   0.364   2.804   4.317
 6299TIP3   OH243091   1.069   3.425   1.746
 6299TIP3    H143092   1.102   3.460   1.995
 6299TIP3    H243093   1.020   3.498   1.626
 6300TIP3   OH243094   0.523   3.398   4.884
 6300TIP3    H143095   0.510   3.418   4.599
 6300TIP3    H243096   0.429   3.385   4.965
 6301TIP3   OH243097   1.707   1.919   0.957
 6301TIP3    H143098   1.609   1.914   0.999
 6301TIP3    H243099   1.715   2.011   0.867
 6302TIP3   OH243100   0.436   2.778   1.512
 6302TIP3    H143101   0.414   2.843   1.302
 6302TIP3    H243102   0.423   2.693   1.383
 6303TIP3   OH243103   1.793   3.389   0.420
 6303TIP3    H143104   1.824   3.482   0.441
 6303TIP3    H243105   1.877   3.340   0.462
 6304TIP3   OH243106   0.176   3.012   4.134
 6304TIP3    H143107   0.082   3.016   4.047
 6304TIP3    H243108   0.185   2.920   4.224
 6305TIP3   OH243109   0.132   3.355   3.015
 6305TIP3    H143110   0.206   3.289   3.036
 6305TIP3    H243111   0.145   3.404   3.264
 6306TIP3   OH243112   1.887   3.384   4.902
 6306TIP3    H143113   1.874   3.290   4.839
 6306TIP3    H243114   1.798   3.404   5.010
 6307TIP3   OH243115   0.956   3.327   4.545
 6307TIP3    H143116   0.970   3.406   4.713
 6307TIP3    H243117   0.862   3.302   4.596
 6308TIP3   OH243118   1.004   3.703   1.371
 6308TIP3    H143119   1.030   3.722   1.095
 6308TIP3    H243120   1.021   3.789   1.503
 6309TIP3   OH243121   0.406   3.564   1.998
 6309TIP3    H143122   0.431   3.551   2.283
 6309TIP3    H243123   0.309   3.565   2.028
 6310TIP3   OH243124   1.305   3.689   0.600
 6310TIP3    H143125   1.356   3.615   0.480
 6310TIP3    H243126   1.337   3.688   0.870
 6311TIP3   OH243127   1.287   3.635   1.467
 6311TIP3    H143128   1.190   3.630   1.488
 6311TIP3    H243129   1.314   3.547   1.560
 6312TIP3   OH243130   1.559   2.514   5.022
 6312TIP3    H143131   1.528   2.565   4.788
 6312TIP3    H243132   1.577   2.428   4.893
 6313TIP3   OH243133   0.317   3.227   4.338
 6313TIP3    H143134   0.329   3.197   4.614
 6313TIP3    H243135   0.259   3.154   4.242
 6314TIP3   OH243136   0.602   2.051   3.138
 6314TIP3    H143137   0.517   2.056   2.991
 6314TIP3    H243138   0.574   2.089   3.393
 6315TIP3   OH243139   1.059   1.973   4.113
 6315TIP3    H143140   1.090   1.928   4.356
 6315TIP3    H243141   0.961   1.970   4.140
 6316TIP3   OH243142   1.348   2.404   4.464
 6316TIP3    H143143   1.312   2.379   4.728
 6316TIP3    H243144   1.378   2.496   4.497
 6317TIP3   OH243145   1.471   2.890   0.417
 6317TIP3    H143146   1.435   2.893   0.141
 6317TIP3    H243147   1.565   2.908   0.348
 6318TIP3   OH243148   1.032   2.257   0.441
 6318TIP3    H143149   0.984   2.221   0.678
 6318TIP3    H243150   0.979   2.218   0.234
 6319TIP3   OH243151   0.591   2.506   3.588
 6319TIP3    H143152   0.507   2.518   3.735
 6319TIP3    H243153   0.610   2.598   3.495
 6320TIP3   OH243154   0.611   2.503   1.992
 6320TIP3    H143155   0.512   2.505   1.959
 6320TIP3    H243156   0.640   2.485   1.719
 6321TIP3   OH243157   1.160   2.617   1.710
 6321TIP3    H143158   1.126   2.694   1.554
 6321TIP3    H243159   1.221   2.577   1.515
 6322TIP3   OH243160   1.019   2.622   5.100
 6322TIP3    H143161   0.981   2.539   5.220
 6322TIP3    H243162   1.106   2.621   5.229
 6323TIP3   OH243163   1.251   2.537   2.505
 6323TIP3    H143164   1.233   2.622   2.367
 6323TIP3    H243165   1.258   2.479   2.268
 6324TIP3   OH243166   0.350   2.515   3.960
 6324TIP3    H143167   0.323   2.559   4.203
 6324TIP3    H243168   0.322   2.423   4.014
 6325TIP3   OH243169   0.661   2.221   0.129
 6325TIP3    H143170   0.646   2.241   0.408
 6325TIP3    H243171   0.601   2.280  -0.015
 6326TIP3   OH243172   0.129   2.302   2.208
 6326TIP3    H143173   0.162   2.250   2.439
 6326TIP3    H243174   0.132   2.240   1.986
 6327TIP3   OH243175   0.114   2.325   0.816
 6327TIP3    H143176   0.187   2.367   0.672
 6327TIP3    H243177   0.059   2.402   0.867
 6328TIP3   OH243178   1.127   2.635   3.828
 6328TIP3    H143179   1.202   2.595   3.684
 6328TIP3    H243180   1.097   2.561   3.996
 6329TIP3   OH243181   0.872   2.273   2.304
 6329TIP3    H143182   0.782   2.286   2.406
 6329TIP3    H243183   0.918   2.235   2.532
 6330TIP3   OH243184   0.355   2.446   1.947
 6330TIP3    H143185   0.274   2.472   1.791
 6330TIP3    H243186   0.349   2.347   1.926
 6331TIP3   OH243187   0.689   2.431   1.212
 6331TIP3    H143188   0.780   2.462   1.260
 6331TIP3    H243189   0.651   2.503   1.047
 6332TIP3   OH243190   1.276   2.214   3.270
 6332TIP3    H143191   1.216   2.201   3.498
 6332TIP3    H243192   1.237   2.158   3.063
 6333TIP3   OH243193   0.596   2.594   0.627
 6333TIP3    H143194   0.520   2.556   0.480
 6333TIP3    H243195   0.663   2.607   0.417
 6334TIP3   OH243196   1.578   3.789   5.217
 6334TIP3    H143197   1.603   3.839   4.980
 6334TIP3    H243198   1.661   3.796   5.364
 6335TIP3   OH243199   0.422   3.038   4.917
 6335TIP3    H143200   0.484   3.045   5.142
 6335TIP3    H243201   0.343   3.000   5.046
 6336TIP3   OH243202   0.941   2.549   2.772
 6336TIP3    H143203   1.029   2.537   2.652
 6336TIP3    H243204   0.928   2.462   2.892
 6337TIP3   OH243205   0.408   2.188   1.839
 6337TIP3    H143206   0.354   2.111   1.926
 6337TIP3    H243207   0.415   2.172   1.554
 6338TIP3   OH243208   0.824   2.379   3.561
 6338TIP3    H143209   0.742   2.432   3.540
 6338TIP3    H243210   0.885   2.441   3.684
 6339TIP3   OH243211   0.901   3.043   1.155
 6339TIP3    H143212   0.825   2.996   1.029
 6339TIP3    H243213   0.863   3.055   1.425
 6340TIP3   OH243214   1.625   2.968   3.759
 6340TIP3    H143215   1.679   3.023   3.570
 6340TIP3    H243216   1.546   2.954   3.594
 6341TIP3   OH243217   1.284   2.310   0.585
 6341TIP3    H143218   1.186   2.304   0.552
 6341TIP3    H243219   1.296   2.399   0.702
 6342TIP3   OH243220   1.007   3.056   4.518
 6342TIP3    H143221   0.965   3.047   4.776
 6342TIP3    H243222   1.002   3.153   4.482
 6343TIP3   OH243223   1.342   2.515   1.056
 6343TIP3    H143224   1.422   2.489   1.206
 6343TIP3    H243225   1.370   2.601   0.945
 6344TIP3   OH243226   0.416   2.974   2.823
 6344TIP3    H143227   0.457   2.968   2.559
 6344TIP3    H243228   0.448   2.893   2.955
 6345TIP3   OH243229   1.125   3.176   0.885
 6345TIP3    H143230   1.082   3.264   0.900
 6345TIP3    H243231   1.048   3.117   0.927
 6346TIP3   OH243232   0.190   2.742   4.344
 6346TIP3    H143233   0.184   2.741   4.635
 6346TIP3    H243234   0.094   2.739   4.281
 6347TIP3   OH243235   0.800   2.771   4.998
 6347TIP3    H143236   0.732   2.705   4.935
 6347TIP3    H243237   0.869   2.719   5.133
 6348TIP3   OH243238   1.299   3.294   4.569
 6348TIP3    H143239   1.218   3.302   4.419
 6348TIP3    H243240   1.271   3.334   4.827
 6349TIP3   OH243241   1.844   2.515   1.029
 6349TIP3    H143242   1.771   2.493   0.843
 6349TIP3    H243243   1.842   2.613   1.002
 6350TIP3   OH243244   1.853   3.091   4.773
 6350TIP3    H143245   1.766   3.113   4.653
 6350TIP3    H243246   1.912   3.089   4.536
 6351TIP3   OH243247   1.689   3.358   1.173
 6351TIP3    H143248   1.603   3.313   1.167
 6351TIP3    H243249   1.712   3.363   0.885
 6352TIP3   OH243250   1.378   2.883   3.189
 6352TIP3    H143251   1.287   2.859   3.117
 6352TIP3    H243252   1.425   2.807   3.069
 6353TIP3   OH243253   0.619   3.306   2.103
 6353TIP3    H143254   0.649   3.391   1.989
 6353TIP3    H243255   0.526   3.304   2.025
 6354TIP3   OH243256   0.243   2.764   0.471
 6354TIP3    H143257   0.296   2.836   0.585
 6354TIP3    H243258   0.153   2.788   0.543
 6355TIP3   OH243259   0.767   3.081   1.905
 6355TIP3    H143260   0.711   3.161   1.926
 6355TIP3    H243261   0.713   3.014   2.043
 6356TIP3   OH243262   0.845   3.477   3.927
 6356TIP3    H143263   0.899   3.552   3.825
 6356TIP3    H243264   0.905   3.437   4.125
 6357TIP3   OH243265   0.672   3.556   1.797
 6357TIP3    H143266   0.576   3.559   1.851
 6357TIP3    H243267   0.698   3.648   1.848
 6358TIP3   OH243268   1.135   3.103   3.738
 6358TIP3    H143269   1.108   3.061   3.990
 6358TIP3    H243270   1.204   3.043   3.636
 6359TIP3   OH243271   1.433   3.194   0.444
 6359TIP3    H143272   1.439   3.149   0.705
 6359TIP3    H243273   1.337   3.190   0.417
 6360TIP3   OH243274   1.473   3.539   4.431
 6360TIP3    H143275   1.387   3.494   4.437
 6360TIP3    H243276   1.469   3.597   4.194
 6361TIP3   OH243277   1.871   3.646   0.555
 6361TIP3    H143278   1.937   3.714   0.483
 6361TIP3    H243279   1.808   3.703   0.711
 6362TIP3   OH243280   0.285   2.282   4.269
 6362TIP3    H143281   0.257   2.330   4.512
 6362TIP3    H243282   0.276   2.190   4.350
 6363TIP3   OH243283   1.501   3.062   1.137
 6363TIP3    H143284   1.493   2.966   1.101
 6363TIP3    H243285   1.596   3.073   1.089
 6364TIP3   OH243286   0.249   3.467   3.723
 6364TIP3    H143287   0.311   3.394   3.771
 6364TIP3    H243288   0.223   3.488   3.993
 6365TIP3   OH243289   0.676   3.249   0.720
 6365TIP3    H143290   0.758   3.212   0.831
 6365TIP3    H243291   0.684   3.343   0.807
 6366TIP3   OH243292   0.354   2.978   0.909
 6366TIP3    H143293   0.275   3.023   1.014
 6366TIP3    H243294   0.402   3.051   0.783
 6367TIP3   OH243295   1.146   2.244   4.044
 6367TIP3    H143296   1.229   2.261   4.188
 6367TIP3    H243297   1.120   2.154   4.128
 6368TIP3   OH243298   1.235   2.171   1.371
 6368TIP3    H143299   1.258   2.235   1.161
 6368TIP3    H243300   1.282   2.210   1.605
 6369TIP3   OH243301   0.991   3.424   0.831
 6369TIP3    H143302   0.905   3.448   0.948
 6369TIP3    H243303   1.033   3.511   0.801
 6370TIP3   OH243304   0.958   2.392   1.620
 6370TIP3    H143305   1.016   2.468   1.674
 6370TIP3    H243306   0.922   2.370   1.884
 6371TIP3   OH243307   1.031   2.458   4.374
 6371TIP3    H143308   1.060   2.429   4.641
 6371TIP3    H243309   1.067   2.381   4.218
 6372TIP3   OH243310   1.017   2.065   1.746
 6372TIP3    H143311   0.977   2.145   1.866
 6372TIP3    H243312   1.099   2.106   1.629
 6373TIP3   OH243313   0.719   3.505   0.948
 6373TIP3    H143314   0.733   3.594   0.828
 6373TIP3    H243315   0.699   3.531   1.224
 6374TIP3   OH243316   0.565   2.192   0.969
 6374TIP3    H143317   0.584   2.277   1.104
 6374TIP3    H243318   0.647   2.143   1.029
 6375TIP3   OH243319   1.597   2.285   4.602
 6375TIP3    H143320   1.503   2.287   4.521
 6375TIP3    H243321   1.640   2.282   4.338
 6376TIP3   OH243322   1.482   2.641   2.787
 6376TIP3    H143323   1.403   2.585   2.742
 6376TIP3    H243324   1.543   2.579   2.922
 6377TIP3   OH243325   0.418   3.235   0.471
 6377TIP3    H143326   0.499   3.262   0.612
 6377TIP3    H243327   0.458   3.169   0.291
 6378TIP3   OH243328   0.322   2.498   0.447
 6378TIP3    H143329   0.313   2.592   0.528
 6378TIP3    H243330   0.247   2.498   0.255
 6379TIP3   OH243331   1.575   3.588   3.237
 6379TIP3    H143332   1.579   3.644   3.000
 6379TIP3    H243333   1.671   3.582   3.297
 6380TIP3   OH243334   0.340   1.994   2.928
 6380TIP3    H143335   0.332   1.972   2.640
 6380TIP3    H243336   0.313   1.907   3.045
 6381TIP3   OH243337   0.213   3.343   1.596
 6381TIP3    H143338   0.134   3.391   1.677
 6381TIP3    H243339   0.265   3.412   1.467
 6382TIP3   OH243340   0.168   3.661   5.115
 6382TIP3    H143341   0.229   3.664   5.346
 6382TIP3    H243342   0.134   3.572   5.157
 6383TIP3   OH243343   0.626   3.571   5.511
 6383TIP3    H143344   0.706   3.527   5.607
 6383TIP3    H243345   0.602   3.518   5.277
 6384TIP3   OH243346   1.013   3.466  -0.051
 6384TIP3    H143347   0.952   3.404   0.072
 6384TIP3    H243348   1.096   3.441   0.078
 6385TIP3   OH243349   1.240   3.408   5.262
 6385TIP3    H143350   1.205   3.321   5.355
 6385TIP3    H243351   1.327   3.409   5.400
 6386TIP3   OH243352   1.416   3.456   0.315
 6386TIP3    H143353   1.442   3.363   0.354
 6386TIP3    H243354   1.477   3.491   0.114
 6387TIP3   OH243355   0.204   3.052   5.550
 6387TIP3    H143356   0.247   2.970   5.637
 6387TIP3    H243357   0.119   3.016   5.436
 6388TIP3   OH243358   0.612   3.015   0.249
 6388TIP3    H143359   0.622   2.977   0.519
 6388TIP3    H243360   0.700   3.052   0.213
 6389TIP3   OH243361   0.792   3.045   5.178
 6389TIP3    H143362   0.778   3.096   4.926
 6389TIP3    H243363   0.796   2.951   5.097
 6390TIP3   OH243364   1.363   3.003   4.515
 6390TIP3    H143365   1.449   3.049   4.500
 6390TIP3    H243366   1.310   3.081   4.590
 6391TIP3   OH243367   0.239   2.737   5.316
 6391TIP3    H143368   0.314   2.676   5.337
 6391TIP3    H243369   0.219   2.755   5.601
 6392TIP3   OH243370   0.705   2.879   0.867
 6392TIP3    H143371   0.642   2.821   1.005
 6392TIP3    H243372   0.747   2.816   0.678
 6393TIP3   OH243373   0.640   2.646   4.365
 6393TIP3    H143374   0.564   2.696   4.476
 6393TIP3    H243375   0.645   2.693   4.113
 6394TIP3   OH243376   0.837   2.695   0.252
 6394TIP3    H143377   0.855   2.667  -0.021
 6394TIP3    H243378   0.928   2.692   0.366
 6395TIP3   OH243379   1.142   2.923   5.394
 6395TIP3    H143380   1.211   2.871   5.253
 6395TIP3    H243381   1.105   2.857   5.574
 6396TIP3   OH243382   1.708   2.907  30.054
 6396TIP3    H143383   1.768   2.870  29.856
 6396TIP3    H243384   1.743   2.998  30.063
 6397TIP3   OH243385   0.687   2.407   4.650
 6397TIP3    H143386   0.695   2.336   4.446
 6397TIP3    H243387   0.675   2.488   4.485
 6398TIP3   OH243388   0.705   2.210   4.089
 6398TIP3    H143389   0.736   2.251   3.837
 6398TIP3    H243390   0.609   2.197   4.041
 6399TIP3   OH243391   0.867   2.788   3.981
 6399TIP3    H143392   0.932   2.833   3.816
 6399TIP3    H243393   0.791   2.849   3.942
 6400TIP3   OH243394   1.314   2.515   5.610
 6400TIP3    H143395   1.325   2.419   5.628
 6400TIP3    H243396   1.400   2.543   5.496
 6401TIP3   OH243397   1.428   2.839   5.094
 6401TIP3    H143398   1.398   2.895   4.869
 6401TIP3    H243399   1.523   2.835   5.034
 6402TIP3   OH243400   0.452   2.528   5.121
 6402TIP3    H143401   0.410   2.443   5.181
 6402TIP3    H243402   0.529   2.496   4.971
 6403TIP3   OH243403   0.784   1.954   4.167
 6403TIP3    H143404   0.760   2.049   4.143
 6403TIP3    H243405   0.720   1.913   3.984
 6404TIP3   OH243406   0.887   2.399   5.319
 6404TIP3    H143407   0.835   2.358   5.535
 6404TIP3    H243408   0.829   2.378   5.091
 6405TIP3   OH243409   1.166   2.315   5.025
 6405TIP3    H143410   1.086   2.277   5.142
 6405TIP3    H243411   1.233   2.267   5.187
 6406TIP3   OH243412   1.318   2.169   5.535
 6406TIP3    H143413   1.322   2.072   5.556
 6406TIP3    H243414   1.308   2.197   5.817
 6407TIP3   OH243415   0.300   2.282   5.349
 6407TIP3    H143416   0.328   2.196   5.241
 6407TIP3    H243417   0.269   2.256   5.619
 6408TIP3   OH243418   0.783   1.898   5.043
 6408TIP3    H143419   0.867   1.849   5.028
 6408TIP3    H243420   0.766   1.908   4.758
 6409TIP3   OH243421   0.813   2.088   5.640
 6409TIP3    H143422   0.799   2.008   5.472
 6409TIP3    H243423   0.741   2.150   5.559
 6410TIP3   OH243424   0.766   3.745   0.636
 6410TIP3    H143425   0.862   3.752   0.660
 6410TIP3    H243426   0.748   3.783   0.375
 6411TIP3   OH243427   0.160   3.178   0.417
 6411TIP3    H143428   0.253   3.210   0.423
 6411TIP3    H243429   0.166   3.105   0.228
 6412TIP3   OH243430   0.092   3.714   1.791
 6412TIP3    H143431   0.002   3.747   1.848
 6412TIP3    H243432   0.111   3.664   2.037
 6413TIP3   OH243433   0.175   3.561   2.451
 6413TIP3    H143434   0.172   3.467   2.523
 6413TIP3    H243435   0.205   3.601   2.700
 6414TIP3   OH243436   1.855   3.620   3.267
 6414TIP3    H143437   1.881   3.636   3.543
 6414TIP3    H243438   1.914   3.680   3.126
 6415TIP3   OH243439   1.794   3.588   4.152
 6415TIP3    H143440   1.753   3.512   4.008
 6415TIP3    H243441   1.820   3.542   4.398
 6416TIP3   OH243442   1.670   3.163   5.616
 6416TIP3    H143443   1.574   3.169   5.667
 6416TIP3    H243444   1.704   3.241   5.766
 6417TIP3   OH243445   1.767   3.017   1.143
 6417TIP3    H143446   1.855   3.053   1.218
 6417TIP3    H243447   1.741   2.969   1.383
 6418TIP3   OH243448   1.824   2.822   1.857
 6418TIP3    H143449   1.737   2.782   1.932
 6418TIP3    H243450   1.869   2.825   2.118
 6419TIP3   OH243451   1.784   3.096   3.249
 6419TIP3    H143452   1.850   3.028   3.180
 6419TIP3    H243453   1.821   3.175   3.123
 6420TIP3   OH243454   1.653   3.367   3.951
 6420TIP3    H143455   1.586   3.408   4.125
 6420TIP3    H243456   1.601   3.344   3.711
 6421TIP3   OH243457   1.871   2.801   0.696
 6421TIP3    H143458   1.805   2.825   0.492
 6421TIP3    H243459   1.862   2.877   0.876
 6422TIP3   OH243460   1.632   2.492   0.477
 6422TIP3    H143461   1.614   2.560   0.276
 6422TIP3    H243462   1.673   2.425   0.306
 6423TIP3   OH243463   1.608   2.678   2.082
 6423TIP3    H143464   1.596   2.585   2.013
 6423TIP3    H243465   1.579   2.677   2.361
 6424TIP3   OH243466   0.155   2.950   3.102
 6424TIP3    H143467   0.156   2.891   2.865
 6424TIP3    H243468   0.241   2.925   3.225
 6425TIP3   OH243469   1.715   2.862   4.896
 6425TIP3    H143470   1.759   2.775   4.932
 6425TIP3    H243471   1.786   2.926   4.824
 6426TIP3   OH243472   1.818   2.615   4.986
 6426TIP3    H143473   1.732   2.586   5.097
 6426TIP3    H243474   1.878   2.539   5.037
 6427TIP3   OH243475   1.612   2.263  -0.030
 6427TIP3    H143476   1.668   2.221   0.171
 6427TIP3    H243477   1.524   2.239   0.057
 6428TIP3   OH243478   1.554   2.429   1.506
 6428TIP3    H143479   1.576   2.336   1.575
 6428TIP3    H243480   1.641   2.454   1.401
 6429TIP3   OH243481   1.656   2.466   3.159
 6429TIP3    H143482   1.753   2.484   3.177
 6429TIP3    H243483   1.629   2.479   3.435
 6430TIP3   OH243484   1.661   2.554   3.939
 6430TIP3    H143485   1.586   2.587   4.095
 6430TIP3    H243486   1.710   2.637   3.867
 6431TIP3   OH243487   0.120   2.378   4.830
 6431TIP3    H143488   0.192   2.400   5.016
 6431TIP3    H243489   0.121   2.280   4.842
 6432TIP3   OH243490   1.863   1.958   5.493
 6432TIP3    H143491   1.914   1.896   5.325
 6432TIP3    H243492   1.859   2.039   5.322
 6433TIP3   OH243493   1.644   2.175   1.602
 6433TIP3    H143494   1.682   2.128   1.836
 6433TIP3    H243495   1.594   2.102   1.476
 6434TIP3   OH243496   0.189   2.221   2.994
 6434TIP3    H143497   0.244   2.140   3.030
 6434TIP3    H243498   0.251   2.293   3.051
 6435TIP3   OH243499   0.091   2.527   3.234
 6435TIP3    H143500   0.161   2.527   3.033
 6435TIP3    H243501   0.107   2.609   3.378
 6436TIP3   OH243502   1.784   2.161   5.040
 6436TIP3    H143503   1.714   2.225   4.971
 6436TIP3    H243504   1.791   2.119   4.776
 6437TIP3   OH243505   1.823   2.180   0.519
 6437TIP3    H143506   1.867   2.133   0.303
 6437TIP3    H243507   1.895   2.241   0.600
 6438TIP3   OH243508   0.101   2.162   1.431
 6438TIP3    H143509   0.004   2.166   1.434
 6438TIP3    H243510   0.114   2.208   1.173
 6439TIP3   OH243511   1.531   3.637   2.037
 6439TIP3    H143512   1.604   3.618   1.851
 6439TIP3    H243513   1.570   3.698   2.232
 6440TIP3   OH243514   0.074   1.984   3.930
 6440TIP3    H143515  -0.007   2.007   4.074
 6440TIP3    H243516   0.062   2.031   3.681
 6441TIP3   OH243517   0.270   3.340   5.139
 6441TIP3    H143518   0.185   3.329   5.004
 6441TIP3    H243519   0.264   3.286   5.379
 6442TIP3   OH243520   0.574   3.483   4.098
 6442TIP3    H143521   0.574   3.573   3.978
 6442TIP3    H243522   0.669   3.464   4.107
 6443TIP3   OH243523   0.979   3.592   4.863
 6443TIP3    H143524   0.986   3.567   5.148
 6443TIP3    H243525   1.065   3.638   4.824
 6444TIP3   OH243526   1.196   3.747   4.749
 6444TIP3    H143527   1.272   3.705   4.620
 6444TIP3    H243528   1.236   3.783   4.998
 6445TIP3   OH243529   1.724   1.962   4.410
 6445TIP3    H143530   1.640   1.987   4.284
 6445TIP3    H243531   1.736   1.872   4.299
 6446TIP3   OH243532   0.327   3.799   4.044
 6446TIP3    H143533   0.239   3.829   3.948
 6446TIP3    H243534   0.306   3.780   4.323
 6447TIP3   OH243535   0.563   3.729   3.726
 6447TIP3    H143536   0.469   3.746   3.807
 6447TIP3    H243537   0.567   3.791   3.501
 6448TIP3   OH243538   1.002   3.689   3.546
 6448TIP3    H143539   0.974   3.751   3.342
 6448TIP3    H243540   1.041   3.753   3.738
 6449TIP3   OH243541   1.226   3.563   3.930
 6449TIP3    H143542   1.160   3.599   3.741
 6449TIP3    H243543   1.301   3.621   3.861
 6450TIP3   OH243544   1.473   3.732   3.825
 6450TIP3    H143545   1.488   3.822   3.717
 6450TIP3    H243546   1.516   3.680   3.609
 6451TIP3   OH243547   0.290   3.649   3.141
 6451TIP3    H143548   0.265   3.598   3.384
 6451TIP3    H243549   0.373   3.603   3.060
 6452TIP3   OH243550   0.483   3.516   2.769
 6452TIP3    H143551   0.462   3.422   2.802
 6452TIP3    H243552   0.571   3.518   2.895
 6453TIP3   OH243553   0.713   3.491   3.210
 6453TIP3    H143554   0.752   3.404   3.159
 6453TIP3    H243555   0.731   3.495   3.501
 6454TIP3   OH243556   1.045   2.080   2.745
 6454TIP3    H143557   0.964   2.025   2.790
 6454TIP3    H243558   1.074   2.045   2.490
 6455TIP3   OH243559   1.592   1.892   2.694
 6455TIP3    H143560   1.656   1.954   2.562
 6455TIP3    H243561   1.506   1.927   2.592
 6456TIP3   OH243562   1.755   2.033   2.220
 6456TIP3    H143563   1.818   1.975   2.073
 6456TIP3    H243564   1.813   2.110   2.286
 6457TIP3   OH243565   0.331   1.946   2.088
 6457TIP3    H143566   0.247   1.933   1.938
 6457TIP3    H243567   0.377   1.862   2.028
 6458TIP3   OH243568   0.138   1.974   0.702
 6458TIP3    H143569   0.205   2.032   0.570
 6458TIP3    H243570   0.141   2.006   0.975
 6459TIP3   OH243571   0.745   1.903   2.055
 6459TIP3    H143572   0.811   1.948   1.896
 6459TIP3    H243573   0.774   1.923   2.328
 6460TIP3   OH243574   1.346   1.953   2.409
 6460TIP3    H143575   1.294   1.963   2.169
 6460TIP3    H243576   1.293   1.885   2.553
 6461TIP3   OH243577   1.469   1.947   1.251
 6461TIP3    H143578   1.392   2.003   1.212
 6461TIP3    H243579   1.431   1.877   1.419
 6462TIP3   OH243580   0.200   3.601   0.939
 6462TIP3    H143581   0.108   3.582   1.017
 6462TIP3    H243582   0.198   3.698   0.969
 6463TIP3   OH243583   0.362   2.098   0.414
 6463TIP3    H143584   0.422   2.032   0.294
 6463TIP3    H243585   0.424   2.138   0.603
 6464TIP3   OH243586   0.886   2.159   1.056
 6464TIP3    H143587   0.918   2.097   1.260
 6464TIP3    H243588   0.887   2.244   1.206
 6465TIP3   OH243589   1.046   3.672   0.534
 6465TIP3    H143590   1.143   3.692   0.528
 6465TIP3    H243591   1.038   3.631   0.273
 6466TIP3   OH243592   1.712   3.600   1.500
 6466TIP3    H143593   1.698   3.510   1.392
 6466TIP3    H243594   1.686   3.656   1.272
 6467TIP3   OH243595   0.248   2.023   4.947
 6467TIP3    H143596   0.204   1.935   4.953
 6467TIP3    H243597   0.332   2.005   5.082
 6468TIP3   OH243598   0.486   1.975   5.463
 6468TIP3    H143599   0.578   1.956   5.376
 6468TIP3    H243600   0.460   1.889   5.577
 6469TIP3   OH243601   0.461   3.694   0.417
 6469TIP3    H143602   0.390   3.658   0.585
 6469TIP3    H243603   0.530   3.627   0.441
 6470TIP3   OH243604   1.367   1.896   5.493
 6470TIP3    H143605   1.391   1.803   5.538
 6470TIP3    H243606   1.448   1.923   5.343
 6471TIP3   OH243607   1.651   3.495   4.998
 6471TIP3    H143608   1.578   3.495   4.800
 6471TIP3    H243609   1.635   3.579   5.133
 6472TIP3   OH243610   3.115   2.901   2.091
 6472TIP3    H143611   3.111   2.990   2.214
 6472TIP3    H243612   3.040   2.908   1.908
 6473TIP3   OH243613   3.001   2.775   3.036
 6473TIP3    H143614   3.000   2.739   3.312
 6473TIP3    H243615   2.930   2.725   2.904
 6474TIP3   OH243616   2.180   2.771   3.513
 6474TIP3    H143617   2.189   2.707   3.729
 6474TIP3    H243618   2.266   2.815   3.519
 6475TIP3   OH243619   3.301   3.087   2.634
 6475TIP3    H143620   3.283   3.013   2.817
 6475TIP3    H243621   3.334   3.154   2.820
 6476TIP3   OH243622   2.314   3.242   3.030
 6476TIP3    H143623   2.278   3.152   2.985
 6476TIP3    H243624   2.407   3.223   2.967
 6477TIP3   OH243625   1.971   2.572   1.746
 6477TIP3    H143626   1.936   2.662   1.794
 6477TIP3    H243627   1.946   2.560   1.464
 6478TIP3   OH243628   2.024   2.809   2.502
 6478TIP3    H143629   2.067   2.721   2.529
 6478TIP3    H243630   2.085   2.860   2.337
 6479TIP3   OH243631   3.066   3.640   2.604
 6479TIP3    H143632   3.137   3.581   2.496
 6479TIP3    H243633   3.019   3.573   2.757
 6480TIP3   OH243634   2.804   3.046   3.339
 6480TIP3    H143635   2.833   3.008   3.087
 6480TIP3    H243636   2.892   3.074   3.444
 6481TIP3   OH243637   3.658   2.188   3.357
 6481TIP3    H143638   3.660   2.243   3.600
 6481TIP3    H243639   3.740   2.219   3.231
 6482TIP3   OH243640   3.156   2.495   3.417
 6482TIP3    H143641   3.183   2.402   3.384
 6482TIP3    H243642   3.121   2.510   3.147
 6483TIP3   OH243643   2.452   2.269   2.394
 6483TIP3    H143644   2.465   2.351   2.235
 6483TIP3    H243645   2.403   2.217   2.193
 6484TIP3   OH243646   3.205   2.306   1.992
 6484TIP3    H143647   3.250   2.272   2.235
 6484TIP3    H243648   3.269   2.372   1.902
 6485TIP3   OH243649   2.092   2.554   2.682
 6485TIP3    H143650   2.152   2.505   2.856
 6485TIP3    H243651   2.123   2.522   2.421
 6486TIP3   OH243652   2.595   2.698   2.553
 6486TIP3    H143653   2.686   2.666   2.580
 6486TIP3    H243654   2.550   2.617   2.454
 6487TIP3   OH243655   3.678   2.336   4.023
 6487TIP3    H143656   3.644   2.426   3.954
 6487TIP3    H243657   3.711   2.356   4.290
 6488TIP3   OH243658   2.363   2.200   3.654
 6488TIP3    H143659   2.311   2.240   3.435
 6488TIP3    H243660   2.298   2.209   3.870
 6489TIP3   OH243661   3.040   3.156   1.728
 6489TIP3    H143662   3.031   3.145   1.440
 6489TIP3    H243663   3.020   3.252   1.758
 6490TIP3   OH243664   2.559   2.970   3.642
 6490TIP3    H143665   2.507   3.048   3.729
 6490TIP3    H243666   2.635   3.013   3.501
 6491TIP3   OH243667   3.379   2.261   2.598
 6491TIP3    H143668   3.390   2.179   2.745
 6491TIP3    H243669   3.466   2.300   2.631
 6492TIP3   OH243670   2.301   2.386   3.021
 6492TIP3    H143671   2.358   2.452   3.150
 6492TIP3    H243672   2.360   2.354   2.802
 6493TIP3   OH243673   2.440   3.190   3.948
 6493TIP3    H143674   2.430   3.269   3.783
 6493TIP3    H243675   2.350   3.186   4.068
 6494TIP3   OH243676   2.026   3.115   1.197
 6494TIP3    H143677   2.033   3.177   0.966
 6494TIP3    H243678   2.038   3.176   1.422
 6495TIP3   OH243679   3.400   3.296   3.261
 6495TIP3    H143680   3.306   3.318   3.315
 6495TIP3    H243681   3.426   3.380   3.138
 6496TIP3   OH243682   3.385   2.154   3.618
 6496TIP3    H143683   3.317   2.195   3.447
 6496TIP3    H243684   3.464   2.169   3.450
 6497TIP3   OH243685   2.709   1.946   2.895
 6497TIP3    H143686   2.682   1.853   2.868
 6497TIP3    H243687   2.620   1.986   2.952
 6498TIP3   OH243688   3.240   3.471   2.289
 6498TIP3    H143689   3.255   3.390   2.127
 6498TIP3    H243690   3.316   3.526   2.193
 6499TIP3   OH243691   3.347   3.255   1.821
 6499TIP3    H143692   3.340   3.186   1.611
 6499TIP3    H243693   3.341   3.199   2.058
 6500TIP3   OH243694   3.495   3.135   4.389
 6500TIP3    H143695   3.512   3.066   4.182
 6500TIP3    H243696   3.508   3.215   4.227
 6501TIP3   OH243697   2.950   2.822   1.284
 6501TIP3    H143698   2.902   2.904   1.209
 6501TIP3    H243699   3.035   2.829   1.134
 6502TIP3   OH243700   3.011   2.689   0.414
 6502TIP3    H143701   3.085   2.728   0.573
 6502TIP3    H243702   3.047   2.598   0.378
 6503TIP3   OH243703   3.698   2.774   3.726
 6503TIP3    H143704   3.637   2.849   3.765
 6503TIP3    H243705   3.763   2.816   3.549
 6504TIP3   OH243706   3.322   2.815   1.629
 6504TIP3    H143707   3.254   2.853   1.812
 6504TIP3    H243708   3.385   2.774   1.818
 6505TIP3   OH243709   3.327   2.667   4.308
 6505TIP3    H143710   3.300   2.752   4.422
 6505TIP3    H243711   3.267   2.666   4.080
 6506TIP3   OH243712   2.456   2.891   2.169
 6506TIP3    H143713   2.435   2.868   1.887
 6506TIP3    H243714   2.511   2.815   2.250
 6507TIP3   OH243715   2.599   3.217   2.952
 6507TIP3    H143716   2.610   3.198   2.667
 6507TIP3    H243717   2.674   3.170   3.078
 6508TIP3   OH243718   2.469   2.761   3.252
 6508TIP3    H143719   2.509   2.754   2.982
 6508TIP3    H243720   2.517   2.838   3.369
 6509TIP3   OH243721   3.147   3.340   3.468
 6509TIP3    H143722   3.122   3.394   3.696
 6509TIP3    H243723   3.127   3.250   3.564
 6510TIP3   OH243724   2.605   3.222   4.602
 6510TIP3    H143725   2.532   3.266   4.749
 6510TIP3    H243726   2.559   3.209   4.344
 6511TIP3   OH243727   3.191   2.790   0.933
 6511TIP3    H143728   3.237   2.792   1.194
 6511TIP3    H243729   3.256   2.836   0.756
 6512TIP3   OH243730   2.296   2.808   4.410
 6512TIP3    H143731   2.301   2.904   4.443
 6512TIP3    H243732   2.205   2.793   4.503
 6513TIP3   OH243733   2.958   3.421   1.746
 6513TIP3    H143734   2.964   3.446   2.025
 6513TIP3    H243735   2.908   3.494   1.629
 6514TIP3   OH243736   2.422   3.393   4.875
 6514TIP3    H143737   2.407   3.434   4.608
 6514TIP3    H243738   2.330   3.375   4.953
 6515TIP3   OH243739   3.557   1.885   0.864
 6515TIP3    H143740   3.468   1.895   0.987
 6515TIP3    H243741   3.568   1.975   0.759
 6516TIP3   OH243742   2.355   2.776   1.467
 6516TIP3    H143743   2.311   2.849   1.323
 6516TIP3    H243744   2.319   2.698   1.338
 6517TIP3   OH243745   3.679   3.390   0.399
 6517TIP3    H143746   3.705   3.483   0.435
 6517TIP3    H243747   3.762   3.343   0.456
 6518TIP3   OH243748   1.991   3.062   4.110
 6518TIP3    H143749   1.946   3.072   3.852
 6518TIP3    H243750   2.020   2.968   4.092
 6519TIP3   OH243751   1.953   3.317   3.069
 6519TIP3    H143752   2.050   3.311   3.054
 6519TIP3    H243753   1.943   3.398   3.225
 6520TIP3   OH243754   3.766   3.374   4.836
 6520TIP3    H143755   3.751   3.281   4.767
 6520TIP3    H243756   3.684   3.390   4.995
 6521TIP3   OH243757   2.856   3.330   4.542
 6521TIP3    H143758   2.863   3.419   4.662
 6521TIP3    H243759   2.765   3.301   4.605
 6522TIP3   OH243760   2.897   3.699   1.368
 6522TIP3    H143761   2.913   3.720   1.086
 6522TIP3    H243762   2.909   3.787   1.494
 6523TIP3   OH243763   2.281   3.577   2.010
 6523TIP3    H143764   2.307   3.554   2.286
 6523TIP3    H243765   2.191   3.541   2.001
 6524TIP3   OH243766   3.193   3.681   0.657
 6524TIP3    H143767   3.245   3.612   0.516
 6524TIP3    H243768   3.208   3.651   0.936
 6525TIP3   OH243769   3.171   3.630   1.464
 6525TIP3    H143770   3.074   3.637   1.500
 6525TIP3    H243771   3.189   3.541   1.563
 6526TIP3   OH243772   3.415   2.505   5.064
 6526TIP3    H143773   3.443   2.573   4.875
 6526TIP3    H243774   3.460   2.426   4.962
 6527TIP3   OH243775   2.210   3.180   4.365
 6527TIP3    H143776   2.207   3.147   4.641
 6527TIP3    H243777   2.122   3.149   4.266
 6528TIP3   OH243778   2.470   2.031   3.105
 6528TIP3    H143779   2.378   2.026   3.012
 6528TIP3    H243780   2.458   2.090   3.336
 6529TIP3   OH243781   2.953   1.979   4.077
 6529TIP3    H143782   2.979   1.913   4.278
 6529TIP3    H243783   2.856   1.982   4.119
 6530TIP3   OH243784   3.234   2.412   4.491
 6530TIP3    H143785   3.221   2.419   4.782
 6530TIP3    H243786   3.276   2.500   4.437
 6531TIP3   OH243787   3.355   2.885   0.408
 6531TIP3    H143788   3.318   2.894   0.135
 6531TIP3    H243789   3.448   2.906   0.351
 6532TIP3   OH243790   2.918   2.261   0.402
 6532TIP3    H143791   2.868   2.240   0.648
 6532TIP3    H243792   2.849   2.238   0.210
 6533TIP3   OH243793   2.490   2.516   3.573
 6533TIP3    H143794   2.403   2.510   3.708
 6533TIP3    H243795   2.480   2.604   3.447
 6534TIP3   OH243796   2.472   2.491   1.977
 6534TIP3    H143797   2.377   2.508   1.923
 6534TIP3    H243798   2.512   2.494   1.707
 6535TIP3   OH243799   3.052   2.619   1.722
 6535TIP3    H143800   3.008   2.690   1.566
 6535TIP3    H243801   3.106   2.579   1.512
 6536TIP3   OH243802   2.915   2.611   5.040
 6536TIP3    H143803   2.876   2.530   5.160
 6536TIP3    H243804   2.987   2.629   5.232
 6537TIP3   OH243805   3.123   2.538   2.529
 6537TIP3    H143806   3.124   2.625   2.394
 6537TIP3    H243807   3.124   2.481   2.292
 6538TIP3   OH243808   2.251   2.516   3.915
 6538TIP3    H143809   2.242   2.560   4.176
 6538TIP3    H243810   2.208   2.429   3.966
 6539TIP3   OH243811   2.582   2.279   0.177
 6539TIP3    H143812   2.535   2.243   0.411
 6539TIP3    H243813   2.510   2.307   0.003
 6540TIP3   OH243814   1.915   2.247   2.289
 6540TIP3    H143815   1.987   2.251   2.484
 6540TIP3    H243816   1.962   2.243   2.034
 6541TIP3   OH243817   2.033   2.316   0.864
 6541TIP3    H143818   2.114   2.360   0.759
 6541TIP3    H243819   1.976   2.395   0.879
 6542TIP3   OH243820   3.037   2.697   3.786
 6542TIP3    H143821   3.093   2.628   3.666
 6542TIP3    H243822   2.981   2.644   3.966
 6543TIP3   OH243823   2.759   2.280   2.322
 6543TIP3    H143824   2.664   2.275   2.376
 6543TIP3    H243825   2.800   2.230   2.538
 6544TIP3   OH243826   2.195   2.442   2.007
 6544TIP3    H143827   2.117   2.470   1.848
 6544TIP3    H243828   2.223   2.358   1.890
 6545TIP3   OH243829   2.597   2.455   1.257
 6545TIP3    H143830   2.693   2.467   1.263
 6545TIP3    H243831   2.563   2.517   1.053
 6546TIP3   OH243832   3.152   2.222   3.222
 6546TIP3    H143833   3.063   2.202   3.315
 6546TIP3    H243834   3.152   2.171   2.973
 6547TIP3   OH243835   2.434   2.579   0.675
 6547TIP3    H143836   2.351   2.554   0.546
 6547TIP3    H243837   2.495   2.571   0.450
 6548TIP3   OH243838   3.475   3.791   5.226
 6548TIP3    H143839   3.499   3.827   4.962
 6548TIP3    H243840   3.557   3.812   5.367
 6549TIP3   OH243841   2.227   3.036   5.076
 6549TIP3    H143842   2.304   3.038   5.253
 6549TIP3    H243843   2.151   3.020   5.259
 6550TIP3   OH243844   2.844   2.551   2.865
 6550TIP3    H143845   2.917   2.544   2.673
 6550TIP3    H243846   2.822   2.457   2.904
 6551TIP3   OH243847   2.299   2.166   1.785
 6551TIP3    H143848   2.238   2.102   1.914
 6551TIP3    H243849   2.343   2.105   1.599
 6552TIP3   OH243850   2.713   2.369   3.618
 6552TIP3    H143851   2.633   2.423   3.564
 6552TIP3    H243852   2.781   2.435   3.600
 6553TIP3   OH243853   2.782   3.040   1.167
 6553TIP3    H143854   2.709   2.986   1.053
 6553TIP3    H243855   2.745   3.057   1.434
 6554TIP3   OH243856   3.513   2.969   3.762
 6554TIP3    H143857   3.565   3.028   3.582
 6554TIP3    H243858   3.435   2.952   3.597
 6555TIP3   OH243859   3.169   2.310   0.609
 6555TIP3    H143860   3.073   2.306   0.567
 6555TIP3    H243861   3.181   2.402   0.702
 6556TIP3   OH243862   2.898   3.057   4.518
 6556TIP3    H143863   2.871   3.051   4.797
 6556TIP3    H243864   2.879   3.151   4.473
 6557TIP3   OH243865   3.226   2.525   1.059
 6557TIP3    H143866   3.306   2.497   1.203
 6557TIP3    H243867   3.252   2.612   0.951
 6558TIP3   OH243868   2.300   2.972   2.823
 6558TIP3    H143869   2.341   2.953   2.562
 6558TIP3    H243870   2.322   2.894   2.979
 6559TIP3   OH243871   2.998   3.181   0.918
 6559TIP3    H143872   2.961   3.271   0.948
 6559TIP3    H243873   2.919   3.125   0.969
 6560TIP3   OH243874   2.006   2.788   4.323
 6560TIP3    H143875   1.972   2.746   4.566
 6560TIP3    H243876   1.940   2.757   4.122
 6561TIP3   OH243877   2.680   2.771   4.941
 6561TIP3    H143878   2.607   2.708   4.902
 6561TIP3    H243879   2.760   2.716   4.980
 6562TIP3   OH243880   3.176   3.292   4.545
 6562TIP3    H143881   3.096   3.315   4.398
 6562TIP3    H243882   3.152   3.332   4.806
 6563TIP3   OH243883   3.726   2.514   1.059
 6563TIP3    H143884   3.654   2.490   0.870
 6563TIP3    H243885   3.731   2.610   0.999
 6564TIP3   OH243886   3.737   3.090   4.758
 6564TIP3    H143887   3.647   3.109   4.656
 6564TIP3    H243888   3.791   3.093   4.512
 6565TIP3   OH243889   3.569   3.357   1.131
 6565TIP3    H143890   3.484   3.313   1.146
 6565TIP3    H243891   3.589   3.357   0.843
 6566TIP3   OH243892   3.271   2.875   3.186
 6566TIP3    H143893   3.178   2.850   3.135
 6566TIP3    H243894   3.316   2.806   3.030
 6567TIP3   OH243895   2.513   3.308   2.115
 6567TIP3    H143896   2.535   3.400   2.034
 6567TIP3    H243897   2.421   3.305   2.025
 6568TIP3   OH243898   2.126   2.770   0.342
 6568TIP3    H143899   2.180   2.825   0.522
 6568TIP3    H243900   2.038   2.780   0.465
 6569TIP3   OH243901   2.656   3.068   1.908
 6569TIP3    H143902   2.611   3.154   1.944
 6569TIP3    H243903   2.608   3.011   2.097
 6570TIP3   OH243904   2.716   3.482   3.978
 6570TIP3    H143905   2.776   3.547   3.852
 6570TIP3    H243906   2.778   3.430   4.146
 6571TIP3   OH243907   2.543   3.552   1.770
 6571TIP3    H143908   2.449   3.572   1.836
 6571TIP3    H243909   2.584   3.637   1.854
 6572TIP3   OH243910   3.028   3.093   3.747
 6572TIP3    H143911   2.991   3.068   4.011
 6572TIP3    H243912   3.077   3.012   3.678
 6573TIP3   OH243913   3.313   3.198   0.456
 6573TIP3    H143914   3.309   3.156   0.720
 6573TIP3    H243915   3.219   3.193   0.387
 6574TIP3   OH243916   3.365   3.545   4.458
 6574TIP3    H143917   3.276   3.507   4.473
 6574TIP3    H243918   3.360   3.605   4.224
 6575TIP3   OH243919   3.755   3.639   0.573
 6575TIP3    H143920   3.820   3.705   0.477
 6575TIP3    H243921   3.694   3.700   0.717
 6576TIP3   OH243922   2.180   2.267   4.275
 6576TIP3    H143923   2.116   2.323   4.419
 6576TIP3    H243924   2.185   2.192   4.458
 6577TIP3   OH243925   3.379   3.079   1.161
 6577TIP3    H143926   3.365   2.984   1.134
 6577TIP3    H243927   3.474   3.083   1.092
 6578TIP3   OH243928   2.122   3.454   3.789
 6578TIP3    H143929   2.189   3.385   3.813
 6578TIP3    H243930   2.129   3.497   4.047
 6579TIP3   OH243931   2.564   3.245   0.756
 6579TIP3    H143932   2.645   3.212   0.876
 6579TIP3    H243933   2.572   3.342   0.813
 6580TIP3   OH243934   2.233   2.965   0.900
 6580TIP3    H143935   2.154   3.010   1.011
 6580TIP3    H243936   2.283   3.041   0.789
 6581TIP3   OH243937   3.039   2.249   4.092
 6581TIP3    H143938   3.123   2.291   4.011
 6581TIP3    H243939   3.024   2.178   3.900
 6582TIP3   OH243940   3.120   2.160   1.362
 6582TIP3    H143941   3.139   2.223   1.149
 6582TIP3    H243942   3.165   2.203   1.590
 6583TIP3   OH243943   2.877   3.422   0.843
 6583TIP3    H143944   2.797   3.430   1.005
 6583TIP3    H243945   2.889   3.516   0.762
 6584TIP3   OH243946   2.849   2.388   1.629
 6584TIP3    H143947   2.894   2.472   1.680
 6584TIP3    H243948   2.811   2.362   1.890
 6585TIP3   OH243949   2.931   2.498   4.245
 6585TIP3    H143950   2.982   2.515   4.491
 6585TIP3    H243951   2.967   2.409   4.179
 6586TIP3   OH243952   2.902   2.066   1.770
 6586TIP3    H143953   2.866   2.143   1.908
 6586TIP3    H243954   2.982   2.107   1.647
 6587TIP3   OH243955   2.603   3.499   0.975
 6587TIP3    H143956   2.624   3.585   0.849
 6587TIP3    H243957   2.576   3.526   1.248
 6588TIP3   OH243958   2.467   2.195   0.921
 6588TIP3    H143959   2.460   2.277   1.074
 6588TIP3    H243960   2.560   2.173   0.978
 6589TIP3   OH243961   3.477   2.280   4.584
 6589TIP3    H143962   3.388   2.308   4.497
 6589TIP3    H243963   3.526   2.270   4.329
 6590TIP3   OH243964   3.363   2.639   2.775
 6590TIP3    H143965   3.286   2.579   2.751
 6590TIP3    H243966   3.427   2.585   2.928
 6591TIP3   OH243967   2.308   3.210   0.570
 6591TIP3    H143968   2.398   3.232   0.663
 6591TIP3    H243969   2.323   3.207   0.282
 6592TIP3   OH243970   2.143   2.505   0.390
 6592TIP3    H143971   2.147   2.603   0.390
 6592TIP3    H243972   2.073   2.487   0.195
 6593TIP3   OH243973   3.468   3.574   3.231
 6593TIP3    H143974   3.465   3.633   2.994
 6593TIP3    H243975   3.566   3.575   3.264
 6594TIP3   OH243976   2.213   1.983   2.952
 6594TIP3    H143977   2.210   1.972   2.658
 6594TIP3    H243978   2.186   1.892   3.036
 6595TIP3   OH243979   2.079   3.370   1.755
 6595TIP3    H143980   2.000   3.426   1.764
 6595TIP3    H243981   2.117   3.404   1.509
 6596TIP3   OH243982   2.016   3.649   5.109
 6596TIP3    H143983   2.077   3.636   5.337
 6596TIP3    H243984   1.980   3.559   5.076
 6597TIP3   OH243985   2.503   3.540   5.568
 6597TIP3    H143986   2.587   3.498   5.646
 6597TIP3    H243987   2.486   3.499   5.310
 6598TIP3   OH243988   2.897   3.458  -0.060
 6598TIP3    H143989   2.831   3.394   0.033
 6598TIP3    H243990   2.974   3.426   0.087
 6599TIP3   OH243991   3.131   3.407   5.259
 6599TIP3    H143992   3.093   3.320   5.346
 6599TIP3    H243993   3.217   3.407   5.394
 6600TIP3   OH243994   3.321   3.460   0.372
 6600TIP3    H143995   3.342   3.365   0.363
 6600TIP3    H243996   3.366   3.496   0.138
 6601TIP3   OH243997   1.982   3.035   5.463
 6601TIP3    H143998   1.944   2.946   5.490
 6601TIP3    H243999   1.939   3.064   5.211
 6602TIP3   OH244000   2.501   2.973   0.180
 6602TIP3    H144001   2.509   2.937   0.453
 6602TIP3    H244002   2.575   3.036   0.195
 6603TIP3   OH244003   2.687   3.035   5.190
 6603TIP3    H144004   2.670   3.088   4.950
 6603TIP3    H244005   2.699   2.943   5.088
 6604TIP3   OH244006   3.246   3.019   4.542
 6604TIP3    H144007   3.331   3.070   4.551
 6604TIP3    H244008   3.184   3.094   4.554
 6605TIP3   OH244009   2.125   2.724   5.370
 6605TIP3    H144010   2.202   2.664   5.379
 6605TIP3    H244011   2.142   2.783   5.598
 6606TIP3   OH244012   2.590   2.866   0.861
 6606TIP3    H144013   2.518   2.811   0.978
 6606TIP3    H244014   2.627   2.805   0.660
 6607TIP3   OH244015   2.501   2.655   4.368
 6607TIP3    H144016   2.420   2.705   4.437
 6607TIP3    H244017   2.521   2.701   4.119
 6608TIP3   OH244018   2.721   2.693   0.267
 6608TIP3    H144019   2.737   2.657   0.003
 6608TIP3    H244020   2.811   2.688   0.387
 6609TIP3   OH244021   3.033   2.886   5.439
 6609TIP3    H144022   3.116   2.856   5.319
 6609TIP3    H244023   3.015   2.814   5.631
 6610TIP3   OH244024   3.596   2.886  30.042
 6610TIP3    H144025   3.638   2.852  29.802
 6610TIP3    H244026   3.628   2.979  30.018
 6611TIP3   OH244027   2.559   2.391   4.638
 6611TIP3    H144028   2.576   2.311   4.470
 6611TIP3    H244029   2.463   2.399   4.602
 6612TIP3   OH244030   2.593   2.195   4.083
 6612TIP3    H144031   2.638   2.246   3.867
 6612TIP3    H244032   2.501   2.194   3.978
 6613TIP3   OH244033   2.729   2.775   3.993
 6613TIP3    H144034   2.806   2.831   3.933
 6613TIP3    H244035   2.660   2.844   3.975
 6614TIP3   OH244036   3.154   2.537   5.568
 6614TIP3    H144037   3.184   2.445   5.553
 6614TIP3    H244038   3.239   2.584   5.547
 6615TIP3   OH244039   3.330   2.843   5.106
 6615TIP3    H144040   3.292   2.898   4.890
 6615TIP3    H244041   3.425   2.841   5.034
 6616TIP3   OH244042   2.391   2.488   5.352
 6616TIP3    H144043   2.307   2.437   5.331
 6616TIP3    H244044   2.448   2.442   5.160
 6617TIP3   OH244045   2.680   1.943   4.089
 6617TIP3    H144046   2.644   2.033   4.107
 6617TIP3    H244047   2.606   1.897   3.963
 6618TIP3   OH244048   2.783   2.388   5.259
 6618TIP3    H144049   2.755   2.364   5.529
 6618TIP3    H244050   2.711   2.350   5.103
 6619TIP3   OH244051   3.036   2.301   5.034
 6619TIP3    H144052   2.948   2.331   5.127
 6619TIP3    H244053   3.073   2.261   5.280
 6620TIP3   OH244054   3.202   2.156   5.442
 6620TIP3    H144055   3.219   2.063   5.520
 6620TIP3    H244056   3.188   2.197   5.709
 6621TIP3   OH244057   2.196   2.299   5.337
 6621TIP3    H144058   2.188   2.210   5.211
 6621TIP3    H244059   2.200   2.277   5.625
 6622TIP3   OH244060   2.659   1.920   4.962
 6622TIP3    H144061   2.725   1.850   5.001
 6622TIP3    H244062   2.657   1.923   4.668
 6623TIP3   OH244063   2.701   2.051   5.664
 6623TIP3    H144064   2.675   2.007   5.409
 6623TIP3    H244065   2.638   2.127   5.658
 6624TIP3   OH244066   2.641   3.736   0.633
 6624TIP3    H144067   2.738   3.736   0.648
 6624TIP3    H244068   2.623   3.777   0.375
 6625TIP3   OH244069   2.036   3.243   0.465
 6625TIP3    H144070   2.133   3.225   0.483
 6625TIP3    H244071   2.007   3.187   0.243
 6626TIP3   OH244072   1.914   3.722   1.872
 6626TIP3    H144073   1.835   3.675   1.767
 6626TIP3    H244074   1.940   3.662   2.094
 6627TIP3   OH244075   1.993   3.553   2.457
 6627TIP3    H144076   1.938   3.476   2.532
 6627TIP3    H244077   2.050   3.566   2.691
 6628TIP3   OH244078   3.733   3.625   3.261
 6628TIP3    H144079   3.766   3.634   3.534
 6628TIP3    H244080   3.808   3.661   3.114
 6629TIP3   OH244081   3.687   3.584   4.182
 6629TIP3    H144082   3.645   3.514   4.017
 6629TIP3    H244083   3.708   3.531   4.419
 6630TIP3   OH244084   3.537   3.171   5.640
 6630TIP3    H144085   3.454   3.175   5.799
 6630TIP3    H244086   3.587   3.243   5.772
 6631TIP3   OH244087   3.642   3.011   1.140
 6631TIP3    H144088   3.729   3.047   1.224
 6631TIP3    H244089   3.620   2.952   1.365
 6632TIP3   OH244090   3.695   2.826   1.863
 6632TIP3    H144091   3.611   2.778   1.914
 6632TIP3    H244092   3.727   2.843   2.133
 6633TIP3   OH244093   3.667   3.101   3.249
 6633TIP3    H144094   3.729   3.031   3.162
 6633TIP3    H244095   3.703   3.179   3.114
 6634TIP3   OH244096   3.544   3.366   3.957
 6634TIP3    H144097   3.474   3.408   4.119
 6634TIP3    H244098   3.493   3.339   3.717
 6635TIP3   OH244099   3.754   2.801   0.672
 6635TIP3    H144100   3.684   2.820   0.474
 6635TIP3    H244101   3.744   2.878   0.846
 6636TIP3   OH244102   3.531   2.471   0.486
 6636TIP3    H144103   3.497   2.525   0.264
 6636TIP3    H244104   3.598   2.420   0.339
 6637TIP3   OH244105   3.495   2.669   2.076
 6637TIP3    H144106   3.472   2.578   2.001
 6637TIP3    H244107   3.461   2.670   2.352
 6638TIP3   OH244108   1.977   2.902   3.243
 6638TIP3    H144109   1.985   2.870   2.964
 6638TIP3    H244110   2.061   2.864   3.348
 6639TIP3   OH244111   3.605   2.857   4.899
 6639TIP3    H144112   3.642   2.766   4.893
 6639TIP3    H244113   3.679   2.919   4.836
 6640TIP3   OH244114   3.675   2.585   4.881
 6640TIP3    H144115   3.639   2.559   5.145
 6640TIP3    H244116   3.752   2.524   4.878
 6641TIP3   OH244117   3.507   2.248  -0.063
 6641TIP3    H144118   3.562   2.217   0.162
 6641TIP3    H244119   3.418   2.242   0.051
 6642TIP3   OH244120   3.436   2.435   1.524
 6642TIP3    H144121   3.458   2.341   1.569
 6642TIP3    H244122   3.522   2.464   1.419
 6643TIP3   OH244123   3.545   2.482   3.165
 6643TIP3    H144124   3.642   2.496   3.216
 6643TIP3    H244125   3.516   2.486   3.444
 6644TIP3   OH244126   3.548   2.560   3.942
 6644TIP3    H144127   3.469   2.590   4.092
 6644TIP3    H244128   3.594   2.647   3.894
 6645TIP3   OH244129   1.971   2.388   5.004
 6645TIP3    H144130   2.054   2.387   5.160
 6645TIP3    H244131   1.922   2.314   5.124
 6646TIP3   OH244132   3.740   1.900   5.610
 6646TIP3    H144133   3.787   1.837   5.430
 6646TIP3    H244134   3.744   1.979   5.439
 6647TIP3   OH244135   3.527   2.186   1.548
 6647TIP3    H144136   3.565   2.150   1.791
 6647TIP3    H244137   3.474   2.110   1.452
 6648TIP3   OH244138   2.074   2.220   3.102
 6648TIP3    H144139   2.113   2.131   3.090
 6648TIP3    H244140   2.147   2.279   3.021
 6649TIP3   OH244141   1.917   2.535   3.276
 6649TIP3    H144142   1.969   2.506   3.045
 6649TIP3    H244143   1.966   2.615   3.345
 6650TIP3   OH244144   3.723   2.143   5.196
 6650TIP3    H144145   3.651   2.181   5.361
 6650TIP3    H244146   3.680   2.128   4.938
 6651TIP3   OH244147   3.714   2.184   0.492
 6651TIP3    H144148   3.760   2.146   0.264
 6651TIP3    H244149   3.785   2.239   0.609
 6652TIP3   OH244150   1.935   2.149   1.446
 6652TIP3    H144151   1.845   2.182   1.485
 6652TIP3    H244152   1.960   2.192   1.194
 6653TIP3   OH244153   3.415   3.648   2.061
 6653TIP3    H144154   3.488   3.633   1.869
 6653TIP3    H244155   3.449   3.715   2.244
 6654TIP3   OH244156   1.946   2.007   3.930
 6654TIP3    H144157   1.876   1.979   4.116
 6654TIP3    H244158   1.902   2.081   3.792
 6655TIP3   OH244159   2.168   3.329   5.133
 6655TIP3    H144160   2.085   3.369   5.034
 6655TIP3    H244161   2.147   3.298   5.397
 6656TIP3   OH244162   2.450   3.479   4.101
 6656TIP3    H144163   2.455   3.570   3.999
 6656TIP3    H244164   2.545   3.458   4.116
 6657TIP3   OH244165   2.862   3.601   4.896
 6657TIP3    H144166   2.882   3.571   5.166
 6657TIP3    H244167   2.952   3.634   4.821
 6658TIP3   OH244168   3.098   3.719   4.749
 6658TIP3    H144169   3.155   3.713   4.512
 6658TIP3    H244170   3.138   3.789   4.911
 6659TIP3   OH244171   3.618   1.960   4.488
 6659TIP3    H144172   3.545   1.996   4.332
 6659TIP3    H244173   3.634   1.873   4.362
 6660TIP3   OH244174   2.183   3.773   4.026
 6660TIP3    H144175   2.106   3.824   3.927
 6660TIP3    H244176   2.176   3.792   4.311
 6661TIP3   OH244177   2.424   3.726   3.741
 6661TIP3    H144178   2.332   3.743   3.837
 6661TIP3    H244179   2.428   3.788   3.516
 6662TIP3   OH244180   2.891   3.690   3.528
 6662TIP3    H144181   2.851   3.747   3.327
 6662TIP3    H244182   2.918   3.756   3.729
 6663TIP3   OH244183   3.110   3.573   3.969
 6663TIP3    H144184   3.046   3.610   3.777
 6663TIP3    H244185   3.191   3.614   3.864
 6664TIP3   OH244186   3.371   3.714   3.846
 6664TIP3    H144187   3.382   3.800   3.708
 6664TIP3    H244188   3.405   3.656   3.627
 6665TIP3   OH244189   2.145   3.613   3.126
 6665TIP3    H144190   2.118   3.561   3.366
 6665TIP3    H244191   2.235   3.576   3.072
 6666TIP3   OH244192   2.364   3.511   2.751
 6666TIP3    H144193   2.355   3.415   2.817
 6666TIP3    H244194   2.452   3.530   2.874
 6667TIP3   OH244195   2.599   3.518   3.123
 6667TIP3    H144196   2.626   3.428   3.048
 6667TIP3    H244197   2.613   3.515   3.414
 6668TIP3   OH244198   2.951   2.098   2.766
 6668TIP3    H144199   2.881   2.057   2.925
 6668TIP3    H244200   2.964   2.031   2.562
 6669TIP3   OH244201   3.468   1.911   2.709
 6669TIP3    H144202   3.532   1.967   2.562
 6669TIP3    H244203   3.382   1.940   2.598
 6670TIP3   OH244204   3.640   2.047   2.211
 6670TIP3    H144205   3.698   1.980   2.076
 6670TIP3    H244206   3.704   2.121   2.247
 6671TIP3   OH244207   2.193   1.943   2.109
 6671TIP3    H144208   2.109   1.932   1.968
 6671TIP3    H244209   2.232   1.853   2.076
 6672TIP3   OH244210   2.064   1.940   0.816
 6672TIP3    H144211   2.120   2.008   0.681
 6672TIP3    H244212   2.017   1.993   1.014
 6673TIP3   OH244213   2.628   1.909   2.067
 6673TIP3    H144214   2.713   1.939   1.965
 6673TIP3    H244215   2.608   1.974   2.271
 6674TIP3   OH244216   3.218   1.953   2.388
 6674TIP3    H144217   3.175   1.961   2.133
 6674TIP3    H244218   3.167   1.880   2.520
 6675TIP3   OH244219   3.346   1.949   1.275
 6675TIP3    H144220   3.272   2.009   1.230
 6675TIP3    H244221   3.305   1.875   1.425
 6676TIP3   OH244222   2.062   3.549   1.128
 6676TIP3    H144223   1.971   3.549   1.020
 6676TIP3    H244224   2.085   3.643   1.092
 6677TIP3   OH244225   2.224   2.091   0.360
 6677TIP3    H144226   2.293   2.023   0.375
 6677TIP3    H244227   2.265   2.166   0.498
 6678TIP3   OH244228   2.768   2.194   1.077
 6678TIP3    H144229   2.806   2.131   1.266
 6678TIP3    H244230   2.778   2.277   1.233
 6679TIP3   OH244231   2.930   3.670   0.546
 6679TIP3    H144232   3.026   3.694   0.567
 6679TIP3    H244233   2.932   3.626   0.285
 6680TIP3   OH244234   3.593   3.596   1.509
 6680TIP3    H144235   3.590   3.507   1.377
 6680TIP3    H244236   3.579   3.655   1.281
 6681TIP3   OH244237   2.165   2.038   4.965
 6681TIP3    H144238   2.119   1.952   4.971
 6681TIP3    H244239   2.245   2.019   5.130
 6682TIP3   OH244240   2.360   1.961   5.493
 6682TIP3    H144241   2.451   1.934   5.436
 6682TIP3    H244242   2.324   1.880   5.619
 6683TIP3   OH244243   2.259   3.672   0.384
 6683TIP3    H144244   2.200   3.699   0.603
 6683TIP3    H244245   2.308   3.597   0.489
 6684TIP3   OH244246   3.216   1.892   5.514
 6684TIP3    H144247   3.186   1.835   5.736
 6684TIP3    H244248   3.305   1.857   5.454
 6685TIP3   OH244249   3.547   3.518   5.010
 6685TIP3    H144250   3.489   3.520   4.773
 6685TIP3    H244251   3.513   3.596   5.151
 6686TIP3   OH244252   4.997   2.900   2.043
 6686TIP3    H144253   4.987   2.987   2.175
 6686TIP3    H244254   4.923   2.903   1.854
 6687TIP3   OH244255   4.884   2.773   3.063
 6687TIP3    H144256   4.883   2.739   3.339
 6687TIP3    H244257   4.814   2.719   2.940
 6688TIP3   OH244258   4.067   2.759   3.483
 6688TIP3    H144259   4.068   2.687   3.681
 6688TIP3    H244260   4.149   2.806   3.543
 6689TIP3   OH244261   5.190   3.098   2.661
 6689TIP3    H144262   5.172   3.022   2.835
 6689TIP3    H244263   5.210   3.167   2.859
 6690TIP3   OH244264   4.186   3.243   3.045
 6690TIP3    H144265   4.146   3.156   2.979
 6690TIP3    H244266   4.278   3.220   2.982
 6691TIP3   OH244267   3.864   2.575   1.770
 6691TIP3    H144268   3.824   2.662   1.824
 6691TIP3    H244269   3.821   2.552   1.515
 6692TIP3   OH244270   3.909   2.814   2.514
 6692TIP3    H144271   3.956   2.726   2.517
 6692TIP3    H244272   3.970   2.873   2.379
 6693TIP3   OH244273   4.946   3.647   2.607
 6693TIP3    H144274   5.017   3.588   2.496
 6693TIP3    H244275   4.894   3.579   2.745
 6694TIP3   OH244276   4.681   3.049   3.351
 6694TIP3    H144277   4.712   3.001   3.120
 6694TIP3    H244278   4.768   3.081   3.453
 6695TIP3   OH244279   5.557   2.199   3.348
 6695TIP3    H144280   5.563   2.257   3.585
 6695TIP3    H244281   5.641   2.223   3.216
 6696TIP3   OH244282   5.060   2.501   3.378
 6696TIP3    H144283   5.078   2.407   3.423
 6696TIP3    H244284   5.034   2.497   3.096
 6697TIP3   OH244285   4.320   2.280   2.406
 6697TIP3    H144286   4.334   2.358   2.232
 6697TIP3    H244287   4.304   2.209   2.208
 6698TIP3   OH244288   5.095   2.310   2.037
 6698TIP3    H144289   5.145   2.273   2.271
 6698TIP3    H244290   5.161   2.371   1.929
 6699TIP3   OH244291   3.983   2.553   2.679
 6699TIP3    H144292   4.045   2.535   2.898
 6699TIP3    H244293   4.007   2.484   2.487
 6700TIP3   OH244294   4.497   2.706   2.556
 6700TIP3    H144295   4.588   2.680   2.634
 6700TIP3    H244296   4.462   2.618   2.484
 6701TIP3   OH244297   5.577   2.345   4.056
 6701TIP3    H144298   5.536   2.430   3.972
 6701TIP3    H244299   5.580   2.360   4.344
 6702TIP3   OH244300   4.223   2.185   3.702
 6702TIP3    H144301   4.197   2.242   3.483
 6702TIP3    H244302   4.164   2.216   3.915
 6703TIP3   OH244303   4.915   3.163   1.695
 6703TIP3    H144304   4.900   3.168   1.407
 6703TIP3    H244305   4.899   3.256   1.773
 6704TIP3   OH244306   4.445   2.961   3.621
 6704TIP3    H144307   4.395   3.038   3.723
 6704TIP3    H244308   4.524   3.005   3.501
 6705TIP3   OH244309   5.271   2.259   2.637
 6705TIP3    H144310   5.280   2.175   2.775
 6705TIP3    H244311   5.358   2.298   2.682
 6706TIP3   OH244312   4.189   2.391   3.066
 6706TIP3    H144313   4.261   2.443   3.195
 6706TIP3    H244314   4.236   2.357   2.829
 6707TIP3   OH244315   4.327   3.184   3.948
 6707TIP3    H144316   4.312   3.260   3.774
 6707TIP3    H244317   4.237   3.177   4.077
 6708TIP3   OH244318   3.901   3.110   1.233
 6708TIP3    H144319   3.899   3.164   0.987
 6708TIP3    H244320   3.908   3.179   1.440
 6709TIP3   OH244321   5.286   3.298   3.249
 6709TIP3    H144322   5.195   3.324   3.327
 6709TIP3    H244323   5.313   3.381   3.123
 6710TIP3   OH244324   5.279   2.127   3.630
 6710TIP3    H144325   5.202   2.138   3.450
 6710TIP3    H244326   5.350   2.158   3.453
 6711TIP3   OH244327   4.585   1.942   2.841
 6711TIP3    H144328   4.557   1.852   2.913
 6711TIP3    H244329   4.501   1.990   2.916
 6712TIP3   OH244330   5.120   3.474   2.277
 6712TIP3    H144331   5.137   3.386   2.160
 6712TIP3    H244332   5.200   3.523   2.184
 6713TIP3   OH244333   5.219   3.260   1.842
 6713TIP3    H144334   5.205   3.198   1.620
 6713TIP3    H244335   5.213   3.198   2.070
 6714TIP3   OH244336   5.376   3.125   4.410
 6714TIP3    H144337   5.402   3.057   4.209
 6714TIP3    H244338   5.388   3.205   4.242
 6715TIP3   OH244339   4.844   2.840   1.278
 6715TIP3    H144340   4.790   2.922   1.251
 6715TIP3    H244341   4.918   2.852   1.089
 6716TIP3   OH244342   4.901   2.643   0.423
 6716TIP3    H144343   4.962   2.700   0.576
 6716TIP3    H244344   4.960   2.570   0.342
 6717TIP3   OH244345   5.581   2.770   3.735
 6717TIP3    H144346   5.525   2.849   3.765
 6717TIP3    H244347   5.644   2.804   3.534
 6718TIP3   OH244348   5.204   2.807   1.617
 6718TIP3    H144349   5.134   2.845   1.788
 6718TIP3    H244350   5.269   2.773   1.815
 6719TIP3   OH244351   5.180   2.674   4.302
 6719TIP3    H144352   5.176   2.767   4.389
 6719TIP3    H244353   5.121   2.677   4.071
 6720TIP3   OH244354   4.346   2.889   2.175
 6720TIP3    H144355   4.320   2.862   1.902
 6720TIP3    H244356   4.410   2.818   2.250
 6721TIP3   OH244357   4.480   3.215   2.931
 6721TIP3    H144358   4.495   3.201   2.646
 6721TIP3    H244359   4.557   3.172   3.057
 6722TIP3   OH244360   4.362   2.747   3.240
 6722TIP3    H144361   4.409   2.753   2.982
 6722TIP3    H244362   4.403   2.822   3.390
 6723TIP3   OH244363   5.035   3.343   3.453
 6723TIP3    H144364   5.005   3.396   3.681
 6723TIP3    H244365   5.016   3.252   3.540
 6724TIP3   OH244366   4.480   3.217   4.605
 6724TIP3    H144367   4.415   3.272   4.749
 6724TIP3    H244368   4.436   3.210   4.341
 6725TIP3   OH244369   5.081   2.769   0.912
 6725TIP3    H144370   5.125   2.781   1.176
 6725TIP3    H244371   5.144   2.816   0.732
 6726TIP3   OH244372   4.193   2.813   4.338
 6726TIP3    H144373   4.206   2.902   4.437
 6726TIP3    H244374   4.106   2.791   4.455
 6727TIP3   OH244375   4.840   3.439   1.737
 6727TIP3    H144376   4.867   3.467   2.004
 6727TIP3    H244377   4.799   3.519   1.623
 6728TIP3   OH244378   4.313   3.404   4.884
 6728TIP3    H144379   4.297   3.437   4.611
 6728TIP3    H244380   4.221   3.378   4.953
 6729TIP3   OH244381   5.478   1.923   0.924
 6729TIP3    H144382   5.384   1.923   1.005
 6729TIP3    H244383   5.490   2.017   0.867
 6730TIP3   OH244384   4.247   2.781   1.449
 6730TIP3    H144385   4.210   2.861   1.326
 6730TIP3    H244386   4.206   2.710   1.290
 6731TIP3   OH244387   5.561   3.396   0.435
 6731TIP3    H144388   5.594   3.488   0.456
 6731TIP3    H244389   5.642   3.343   0.450
 6732TIP3   OH244390   3.877   3.055   4.116
 6732TIP3    H144391   3.843   3.048   3.843
 6732TIP3    H244392   3.906   2.962   4.155
 6733TIP3   OH244393   3.843   3.319   3.051
 6733TIP3    H144394   3.937   3.314   3.132
 6733TIP3    H244395   3.811   3.392   3.216
 6734TIP3   OH244396   5.654   3.391   4.860
 6734TIP3    H144397   5.645   3.297   4.794
 6734TIP3    H244398   5.567   3.409   4.983
 6735TIP3   OH244399   4.732   3.327   4.530
 6735TIP3    H144400   4.745   3.410   4.671
 6735TIP3    H244401   4.637   3.304   4.581
 6736TIP3   OH244402   4.785   3.700   1.350
 6736TIP3    H144403   4.810   3.721   1.074
 6736TIP3    H244404   4.797   3.788   1.479
 6737TIP3   OH244405   4.165   3.581   2.022
 6737TIP3    H144406   4.192   3.555   2.295
 6737TIP3    H244407   4.075   3.544   2.016
 6738TIP3   OH244408   5.086   3.677   0.624
 6738TIP3    H144409   5.142   3.607   0.498
 6738TIP3    H244410   5.107   3.660   0.906
 6739TIP3   OH244411   5.059   3.634   1.455
 6739TIP3    H144412   4.962   3.640   1.479
 6739TIP3    H244413   5.074   3.543   1.545
 6740TIP3   OH244414   5.334   2.519   4.995
 6740TIP3    H144415   5.282   2.550   4.767
 6740TIP3    H244416   5.357   2.428   4.911
 6741TIP3   OH244417   4.097   3.171   4.350
 6741TIP3    H144418   4.098   3.134   4.626
 6741TIP3    H244419   4.009   3.142   4.260
 6742TIP3   OH244420   4.357   2.049   3.114
 6742TIP3    H144421   4.267   2.040   3.003
 6742TIP3    H244422   4.334   2.094   3.363
 6743TIP3   OH244423   4.840   1.987   4.080
 6743TIP3    H144424   4.879   1.935   4.299
 6743TIP3    H244425   4.744   1.981   4.146
 6744TIP3   OH244426   5.125   2.402   4.470
 6744TIP3    H144427   5.057   2.376   4.674
 6744TIP3    H244428   5.089   2.487   4.377
 6745TIP3   OH244429   5.241   2.890   0.423
 6745TIP3    H144430   5.200   2.896   0.150
 6745TIP3    H244431   5.335   2.908   0.357
 6746TIP3   OH244432   4.806   2.247   0.456
 6746TIP3    H144433   4.760   2.206   0.687
 6746TIP3    H244434   4.733   2.243   0.267
 6747TIP3   OH244435   4.367   2.504   3.546
 6747TIP3    H144436   4.289   2.506   3.723
 6747TIP3    H244437   4.369   2.600   3.474
 6748TIP3   OH244438   4.338   2.530   2.037
 6748TIP3    H144439   4.330   2.626   1.995
 6748TIP3    H244440   4.391   2.504   1.800
 6749TIP3   OH244441   4.925   2.620   1.668
 6749TIP3    H144442   4.896   2.701   1.518
 6749TIP3    H244443   4.989   2.583   1.476
 6750TIP3   OH244444   4.801   2.625   5.049
 6750TIP3    H144445   4.758   2.539   5.109
 6750TIP3    H244446   4.878   2.620   5.229
 6751TIP3   OH244447   5.026   2.543   2.514
 6751TIP3    H144448   5.011   2.628   2.382
 6751TIP3    H244449   5.020   2.484   2.280
 6752TIP3   OH244450   4.125   2.518   3.951
 6752TIP3    H144451   4.151   2.549   4.215
 6752TIP3    H244452   4.086   2.431   4.011
 6753TIP3   OH244453   4.468   2.262   0.075
 6753TIP3    H144454   4.421   2.261   0.330
 6753TIP3    H244455   4.418   2.324  -0.087
 6754TIP3   OH244456   3.803   2.269   2.274
 6754TIP3    H144457   3.855   2.257   2.520
 6754TIP3    H244458   3.811   2.366   2.244
 6755TIP3   OH244459   3.928   2.311   0.864
 6755TIP3    H144460   4.006   2.355   0.747
 6755TIP3    H244461   3.873   2.390   0.897
 6756TIP3   OH244462   4.929   2.685   3.807
 6756TIP3    H144463   4.981   2.618   3.660
 6756TIP3    H244464   4.868   2.628   3.969
 6757TIP3   OH244465   4.646   2.284   2.337
 6757TIP3    H144466   4.565   2.300   2.490
 6757TIP3    H244467   4.704   2.236   2.523
 6758TIP3   OH244468   4.058   2.379   1.926
 6758TIP3    H144469   4.007   2.458   1.842
 6758TIP3    H244470   4.149   2.412   1.956
 6759TIP3   OH244471   4.443   2.444   1.317
 6759TIP3    H144472   4.540   2.444   1.317
 6759TIP3    H244473   4.420   2.502   1.086
 6760TIP3   OH244474   5.060   2.203   3.246
 6760TIP3    H144475   4.988   2.209   3.438
 6760TIP3    H244476   5.019   2.159   3.015
 6761TIP3   OH244477   4.335   2.574   0.657
 6761TIP3    H144478   4.245   2.565   0.549
 6761TIP3    H244479   4.390   2.564   0.417
 6762TIP3   OH244480   5.369   3.772   5.223
 6762TIP3    H144481   5.411   3.801   4.971
 6762TIP3    H244482   5.437   3.800   5.409
 6763TIP3   OH244483   4.117   3.036   5.049
 6763TIP3    H144484   4.196   3.042   5.220
 6763TIP3    H244485   4.048   3.007   5.235
 6764TIP3   OH244486   4.726   2.558   2.829
 6764TIP3    H144487   4.806   2.528   2.691
 6764TIP3    H244488   4.702   2.481   2.988
 6765TIP3   OH244489   4.256   2.102   1.830
 6765TIP3    H144490   4.283   2.010   1.878
 6765TIP3    H244491   4.314   2.120   1.599
 6766TIP3   OH244492   4.599   2.376   3.582
 6766TIP3    H144493   4.520   2.433   3.591
 6766TIP3    H244494   4.664   2.431   3.720
 6767TIP3   OH244495   4.669   3.055   1.173
 6767TIP3    H144496   4.603   2.994   1.053
 6767TIP3    H244497   4.629   3.066   1.440
 6768TIP3   OH244498   5.404   2.978   3.774
 6768TIP3    H144499   5.453   3.031   3.573
 6768TIP3    H244500   5.317   2.971   3.645
 6769TIP3   OH244501   5.059   2.319   0.576
 6769TIP3    H144502   4.961   2.316   0.570
 6769TIP3    H244503   5.077   2.406   0.705
 6770TIP3   OH244504   4.765   3.057   4.449
 6770TIP3    H144505   4.769   3.029   4.725
 6770TIP3    H244506   4.757   3.154   4.482
 6771TIP3   OH244507   5.105   2.513   1.095
 6771TIP3    H144508   5.192   2.486   1.197
 6771TIP3    H244509   5.122   2.604   0.999
 6772TIP3   OH244510   4.182   2.978   2.808
 6772TIP3    H144511   4.235   2.963   2.562
 6772TIP3    H244512   4.206   2.902   2.970
 6773TIP3   OH244513   4.889   3.181   0.852
 6773TIP3    H144514   4.854   3.272   0.879
 6773TIP3    H244515   4.808   3.128   0.909
 6774TIP3   OH244516   3.900   2.775   4.374
 6774TIP3    H144517   3.878   2.741   4.641
 6774TIP3    H244518   3.831   2.734   4.212
 6775TIP3   OH244519   4.556   2.760   5.019
 6775TIP3    H144520   4.514   2.706   4.812
 6775TIP3    H244521   4.647   2.723   5.016
 6776TIP3   OH244522   5.065   3.296   4.524
 6776TIP3    H144523   4.981   3.318   4.395
 6776TIP3    H244524   5.046   3.332   4.791
 6777TIP3   OH244525   5.622   2.513   0.981
 6777TIP3    H144526   5.544   2.497   0.807
 6777TIP3    H244527   5.620   2.611   0.984
 6778TIP3   OH244528   5.623   3.101   4.779
 6778TIP3    H144529   5.532   3.110   4.671
 6778TIP3    H244530   5.678   3.096   4.533
 6779TIP3   OH244531   5.454   3.354   1.164
 6779TIP3    H144532   5.363   3.322   1.161
 6779TIP3    H244533   5.476   3.368   0.882
 6780TIP3   OH244534   5.155   2.874   3.195
 6780TIP3    H144535   5.064   2.847   3.120
 6780TIP3    H244536   5.206   2.802   3.069
 6781TIP3   OH244537   4.399   3.309   2.100
 6781TIP3    H144538   4.429   3.397   2.004
 6781TIP3    H244539   4.307   3.312   2.004
 6782TIP3   OH244540   4.011   2.765   0.351
 6782TIP3    H144541   4.064   2.832   0.489
 6782TIP3    H244542   3.923   2.775   0.474
 6783TIP3   OH244543   4.542   3.076   1.923
 6783TIP3    H144544   4.495   3.161   1.953
 6783TIP3    H244545   4.490   3.015   2.091
 6784TIP3   OH244546   4.606   3.490   3.939
 6784TIP3    H144547   4.669   3.553   3.822
 6784TIP3    H244548   4.664   3.441   4.125
 6785TIP3   OH244549   4.428   3.558   1.797
 6785TIP3    H144550   4.333   3.576   1.851
 6785TIP3    H244551   4.469   3.644   1.869
 6786TIP3   OH244552   4.913   3.084   3.729
 6786TIP3    H144553   4.869   3.058   3.981
 6786TIP3    H244554   4.961   3.002   3.669
 6787TIP3   OH244555   5.173   3.188   0.360
 6787TIP3    H144556   5.207   3.164   0.627
 6787TIP3    H244557   5.080   3.171   0.423
 6788TIP3   OH244558   5.246   3.532   4.398
 6788TIP3    H144559   5.153   3.503   4.368
 6788TIP3    H244560   5.255   3.599   4.179
 6789TIP3   OH244561   5.646   3.643   0.561
 6789TIP3    H144562   5.710   3.715   0.507
 6789TIP3    H244563   5.580   3.696   0.717
 6790TIP3   OH244564   4.064   2.271   4.341
 6790TIP3    H144565   4.023   2.325   4.551
 6790TIP3    H244566   4.033   2.182   4.416
 6791TIP3   OH244567   5.263   3.090   1.065
 6791TIP3    H144568   5.238   2.997   1.023
 6791TIP3    H244569   5.360   3.079   1.095
 6792TIP3   OH244570   4.009   3.457   3.777
 6792TIP3    H144571   4.077   3.389   3.801
 6792TIP3    H244572   4.010   3.495   4.041
 6793TIP3   OH244573   4.443   3.250   0.759
 6793TIP3    H144574   4.531   3.218   0.843
 6793TIP3    H244575   4.450   3.345   0.837
 6794TIP3   OH244576   4.119   2.967   0.888
 6794TIP3    H144577   4.047   3.017   1.014
 6794TIP3    H244578   4.170   3.041   0.771
 6795TIP3   OH244579   4.898   2.265   4.053
 6795TIP3    H144580   4.988   2.277   4.152
 6795TIP3    H244581   4.880   2.171   4.116
 6796TIP3   OH244582   5.046   2.149   1.404
 6796TIP3    H144583   5.049   2.214   1.185
 6796TIP3    H244584   5.060   2.204   1.647
 6797TIP3   OH244585   4.756   3.430   0.846
 6797TIP3    H144586   4.685   3.449   1.038
 6797TIP3    H244587   4.778   3.521   0.762
 6798TIP3   OH244588   4.723   2.388   1.617
 6798TIP3    H144589   4.783   2.464   1.641
 6798TIP3    H244590   4.698   2.368   1.893
 6799TIP3   OH244591   4.795   2.515   4.275
 6799TIP3    H144592   4.797   2.545   4.554
 6799TIP3    H244593   4.825   2.422   4.284
 6800TIP3   OH244594   4.783   2.068   1.761
 6800TIP3    H144595   4.740   2.142   1.899
 6800TIP3    H244596   4.868   2.109   1.674
 6801TIP3   OH244597   4.478   3.510   1.002
 6801TIP3    H144598   4.509   3.594   0.876
 6801TIP3    H244599   4.456   3.542   1.272
 6802TIP3   OH244600   4.346   2.206   0.960
 6802TIP3    H144601   4.368   2.289   1.098
 6802TIP3    H244602   4.434   2.166   0.927
 6803TIP3   OH244603   5.378   2.287   4.608
 6803TIP3    H144604   5.282   2.308   4.572
 6803TIP3    H244605   5.409   2.286   4.332
 6804TIP3   OH244606   5.264   2.642   2.781
 6804TIP3    H144607   5.187   2.583   2.742
 6804TIP3    H244608   5.330   2.584   2.913
 6805TIP3   OH244609   4.187   3.216   0.591
 6805TIP3    H144610   4.277   3.239   0.693
 6805TIP3    H244611   4.206   3.206   0.306
 6806TIP3   OH244612   4.049   2.501   0.474
 6806TIP3    H144613   4.043   2.599   0.465
 6806TIP3    H244614   3.985   2.476   0.267
 6807TIP3   OH244615   5.365   3.573   3.225
 6807TIP3    H144616   5.360   3.643   3.018
 6807TIP3    H244617   5.463   3.578   3.270
 6808TIP3   OH244618   4.105   1.986   2.952
 6808TIP3    H144619   4.083   1.964   2.673
 6808TIP3    H244620   4.081   1.901   3.084
 6809TIP3   OH244621   3.954   3.367   1.767
 6809TIP3    H144622   3.879   3.427   1.764
 6809TIP3    H244623   3.999   3.400   1.530
 6810TIP3   OH244624   3.911   3.650   5.136
 6810TIP3    H144625   3.990   3.634   5.301
 6810TIP3    H244626   3.884   3.559   5.064
 6811TIP3   OH244627   4.393   3.540   5.574
 6811TIP3    H144628   4.478   3.498   5.643
 6811TIP3    H244629   4.378   3.506   5.301
 6812TIP3   OH244630   4.796   3.446  -0.051
 6812TIP3    H144631   4.724   3.387   0.024
 6812TIP3    H244632   4.864   3.412   0.132
 6813TIP3   OH244633   5.008   3.401   5.244
 6813TIP3    H144634   4.979   3.312   5.349
 6813TIP3    H244635   5.095   3.406   5.376
 6814TIP3   OH244636   5.218   3.456   0.348
 6814TIP3    H144637   5.219   3.360   0.300
 6814TIP3    H244638   5.264   3.495   0.114
 6815TIP3   OH244639   3.880   3.038   5.427
 6815TIP3    H144640   3.853   2.946   5.469
 6815TIP3    H244641   3.825   3.060   5.187
 6816TIP3   OH244642   4.358   3.010   0.114
 6816TIP3    H144643   4.362   2.977   0.387
 6816TIP3    H244644   4.419   3.085   0.138
 6817TIP3   OH244645   4.567   3.033   5.115
 6817TIP3    H144646   4.546   3.090   4.881
 6817TIP3    H244647   4.558   2.942   5.010
 6818TIP3   OH244648   5.137   3.003   4.509
 6818TIP3    H144649   5.226   3.046   4.524
 6818TIP3    H244650   5.085   3.084   4.545
 6819TIP3   OH244651   3.983   2.729   5.298
 6819TIP3    H144652   4.055   2.667   5.244
 6819TIP3    H244653   4.025   2.786   5.499
 6820TIP3   OH244654   4.492   2.881   0.843
 6820TIP3    H144655   4.439   2.819   1.005
 6820TIP3    H244656   4.535   2.817   0.657
 6821TIP3   OH244657   4.378   2.628   4.383
 6821TIP3    H144658   4.311   2.698   4.407
 6821TIP3    H244659   4.447   2.673   4.230
 6822TIP3   OH244660   4.605   2.694   0.255
 6822TIP3    H144661   4.612   2.678  -0.030
 6822TIP3    H244662   4.696   2.675   0.345
 6823TIP3   OH244663   4.923   2.923   5.439
 6823TIP3    H144664   4.977   2.868   5.262
 6823TIP3    H244665   4.860   2.858   5.544
 6824TIP3   OH244666   5.481   2.893  30.099
 6824TIP3    H144667   5.495   2.854  29.838
 6824TIP3    H244668   5.511   2.986  30.057
 6825TIP3   OH244669   4.443   2.388   4.698
 6825TIP3    H144670   4.453   2.317   4.494
 6825TIP3    H244671   4.418   2.466   4.536
 6826TIP3   OH244672   4.471   2.203   4.065
 6826TIP3    H144673   4.517   2.250   3.849
 6826TIP3    H244674   4.378   2.197   3.972
 6827TIP3   OH244675   4.596   2.786   4.071
 6827TIP3    H144676   4.685   2.823   4.023
 6827TIP3    H244677   4.539   2.856   3.960
 6828TIP3   OH244678   5.048   2.534   5.607
 6828TIP3    H144679   5.073   2.443   5.556
 6828TIP3    H244680   5.132   2.580   5.556
 6829TIP3   OH244681   5.206   2.848   5.124
 6829TIP3    H144682   5.170   2.901   4.899
 6829TIP3    H244683   5.299   2.837   5.043
 6830TIP3   OH244684   4.245   2.509   5.271
 6830TIP3    H144685   4.181   2.437   5.322
 6830TIP3    H244686   4.315   2.460   5.130
 6831TIP3   OH244687   4.571   1.958   4.125
 6831TIP3    H144688   4.532   2.048   4.104
 6831TIP3    H244689   4.504   1.906   3.987
 6832TIP3   OH244690   4.670   2.398   5.232
 6832TIP3    H144691   4.643   2.368   5.499
 6832TIP3    H244692   4.591   2.378   5.064
 6833TIP3   OH244693   4.943   2.324   5.001
 6833TIP3    H144694   4.849   2.320   5.079
 6833TIP3    H244695   4.987   2.266   5.199
 6834TIP3   OH244696   5.079   2.163   5.499
 6834TIP3    H144697   5.081   2.064   5.505
 6834TIP3    H244698   5.071   2.187   5.781
 6835TIP3   OH244699   4.077   2.281   5.361
 6835TIP3    H144700   4.061   2.202   5.193
 6835TIP3    H244701   4.042   2.253   5.619
 6836TIP3   OH244702   4.557   1.923   4.977
 6836TIP3    H144703   4.617   1.847   4.962
 6836TIP3    H244704   4.562   1.953   4.698
 6837TIP3   OH244705   4.565   2.026   5.715
 6837TIP3    H144706   4.570   1.976   5.460
 6837TIP3    H244707   4.526   2.108   5.625
 6838TIP3   OH244708   4.532   3.740   0.615
 6838TIP3    H144709   4.629   3.742   0.609
 6838TIP3    H244710   4.507   3.797   0.393
 6839TIP3   OH244711   3.919   3.227   0.483
 6839TIP3    H144712   4.017   3.221   0.513
 6839TIP3    H244713   3.905   3.165   0.264
 6840TIP3   OH244714   3.799   3.722   1.854
 6840TIP3    H144715   3.718   3.677   1.758
 6840TIP3    H244716   3.821   3.666   2.085
 6841TIP3   OH244717   3.872   3.555   2.469
 6841TIP3    H144718   3.826   3.473   2.544
 6841TIP3    H244719   3.935   3.568   2.694
 6842TIP3   OH244720   5.628   3.640   3.252
 6842TIP3    H144721   5.646   3.650   3.537
 6842TIP3    H244722   5.716   3.658   3.141
 6843TIP3   OH244723   5.561   3.605   4.122
 6843TIP3    H144724   5.531   3.517   4.026
 6843TIP3    H244725   5.605   3.578   4.371
 6844TIP3   OH244726   5.438   3.147   5.655
 6844TIP3    H144727   5.346   3.160   5.733
 6844TIP3    H244728   5.473   3.239   5.670
 6845TIP3   OH244729   5.525   3.013   1.194
 6845TIP3    H144730   5.613   3.053   1.254
 6845TIP3    H244731   5.512   2.953   1.419
 6846TIP3   OH244732   5.586   2.816   1.857
 6846TIP3    H144733   5.503   2.768   1.908
 6846TIP3    H244734   5.627   2.815   2.124
 6847TIP3   OH244735   5.553   3.088   3.219
 6847TIP3    H144736   5.623   3.020   3.180
 6847TIP3    H244737   5.596   3.169   3.114
 6848TIP3   OH244738   5.429   3.363   3.966
 6848TIP3    H144739   5.361   3.415   4.110
 6848TIP3    H244740   5.383   3.337   3.717
 6849TIP3   OH244741   5.641   2.799   0.699
 6849TIP3    H144742   5.569   2.822   0.513
 6849TIP3    H244743   5.637   2.875   0.882
 6850TIP3   OH244744   5.413   2.497   0.435
 6850TIP3    H144745   5.383   2.546   0.198
 6850TIP3    H244746   5.454   2.422   0.300
 6851TIP3   OH244747   5.381   2.669   2.067
 6851TIP3    H144748   5.360   2.577   1.998
 6851TIP3    H244749   5.355   2.673   2.352
 6852TIP3   OH244750   3.868   2.910   3.261
 6852TIP3    H144751   3.869   2.879   2.982
 6852TIP3    H244752   3.953   2.869   3.339
 6853TIP3   OH244753   5.484   2.860   4.875
 6853TIP3    H144754   5.521   2.769   4.866
 6853TIP3    H244755   5.558   2.914   4.779
 6854TIP3   OH244756   5.584   2.608   4.923
 6854TIP3    H144757   5.491   2.584   4.992
 6854TIP3    H244758   5.633   2.527   4.998
 6855TIP3   OH244759   5.393   2.255  -0.036
 6855TIP3    H144760   5.450   2.214   0.168
 6855TIP3    H244761   5.305   2.248   0.081
 6856TIP3   OH244762   5.322   2.423   1.521
 6856TIP3    H144763   5.344   2.330   1.587
 6856TIP3    H244764   5.408   2.450   1.413
 6857TIP3   OH244765   5.438   2.476   3.171
 6857TIP3    H144766   5.536   2.489   3.201
 6857TIP3    H244767   5.413   2.479   3.450
 6858TIP3   OH244768   5.422   2.555   3.942
 6858TIP3    H144769   5.329   2.585   3.972
 6858TIP3    H244770   5.468   2.639   3.879
 6859TIP3   OH244771   3.852   2.375   4.971
 6859TIP3    H144772   3.933   2.380   5.133
 6859TIP3    H244773   3.800   2.308   5.118
 6860TIP3   OH244774   5.630   1.910   5.583
 6860TIP3    H144775   5.667   1.859   5.358
 6860TIP3    H244776   5.611   1.994   5.442
 6861TIP3   OH244777   5.418   2.173   1.617
 6861TIP3    H144778   5.460   2.123   1.839
 6861TIP3    H244779   5.365   2.103   1.497
 6862TIP3   OH244780   3.967   2.232   2.913
 6862TIP3    H144781   4.005   2.144   2.967
 6862TIP3    H244782   4.044   2.289   2.967
 6863TIP3   OH244783   3.804   2.533   3.249
 6863TIP3    H144784   3.863   2.514   3.021
 6863TIP3    H244785   3.843   2.617   3.342
 6864TIP3   OH244786   5.544   2.130   5.163
 6864TIP3    H144787   5.472   2.195   5.130
 6864TIP3    H244788   5.560   2.113   4.878
 6865TIP3   OH244789   5.590   2.178   0.534
 6865TIP3    H144790   5.639   2.126   0.339
 6865TIP3    H244791   5.660   2.242   0.615
 6866TIP3   OH244792   3.824   2.150   1.434
 6866TIP3    H144793   3.731   2.174   1.476
 6866TIP3    H244794   3.840   2.198   1.185
 6867TIP3   OH244795   5.299   3.650   2.046
 6867TIP3    H144796   5.371   3.632   1.857
 6867TIP3    H244797   5.342   3.702   2.259
 6868TIP3   OH244798   3.823   2.012   3.924
 6868TIP3    H144799   3.766   1.983   4.146
 6868TIP3    H244800   3.767   2.078   3.792
 6869TIP3   OH244801   4.064   3.328   5.109
 6869TIP3    H144802   3.977   3.351   4.995
 6869TIP3    H244803   4.045   3.257   5.298
 6870TIP3   OH244804   4.343   3.487   4.119
 6870TIP3    H144805   4.340   3.576   3.999
 6870TIP3    H244806   4.440   3.470   4.107
 6871TIP3   OH244807   4.751   3.605   4.845
 6871TIP3    H144808   4.765   3.573   5.118
 6871TIP3    H244809   4.843   3.630   4.770
 6872TIP3   OH244810   4.982   3.741   4.683
 6872TIP3    H144811   5.064   3.709   4.569
 6872TIP3    H244812   5.011   3.780   4.941
 6873TIP3   OH244813   5.499   1.954   4.491
 6873TIP3    H144814   5.439   1.999   4.311
 6873TIP3    H244815   5.495   1.863   4.386
 6874TIP3   OH244816   4.073   3.778   4.044
 6874TIP3    H144817   4.005   3.841   3.945
 6874TIP3    H244818   4.067   3.791   4.329
 6875TIP3   OH244819   4.306   3.723   3.735
 6875TIP3    H144820   4.216   3.750   3.828
 6875TIP3    H244821   4.317   3.781   3.504
 6876TIP3   OH244822   4.782   3.697   3.504
 6876TIP3    H144823   4.724   3.756   3.351
 6876TIP3    H244824   4.810   3.759   3.717
 6877TIP3   OH244825   4.994   3.563   3.939
 6877TIP3    H144826   4.931   3.602   3.747
 6877TIP3    H244827   5.072   3.616   3.864
 6878TIP3   OH244828   5.266   3.718   3.831
 6878TIP3    H144829   5.278   3.809   3.732
 6878TIP3    H244830   5.305   3.668   3.603
 6879TIP3   OH244831   4.027   3.611   3.117
 6879TIP3    H144832   4.007   3.556   3.357
 6879TIP3    H244833   4.118   3.580   3.051
 6880TIP3   OH244834   4.248   3.512   2.757
 6880TIP3    H144835   4.235   3.418   2.823
 6880TIP3    H244836   4.337   3.527   2.874
 6881TIP3   OH244837   4.480   3.510   3.159
 6881TIP3    H144838   4.508   3.418   3.120
 6881TIP3    H244839   4.499   3.521   3.444
 6882TIP3   OH244840   4.832   2.098   2.760
 6882TIP3    H144841   4.755   2.068   2.910
 6882TIP3    H244842   4.845   2.023   2.583
 6883TIP3   OH244843   5.361   1.901   2.688
 6883TIP3    H144844   5.428   1.958   2.559
 6883TIP3    H244845   5.278   1.938   2.574
 6884TIP3   OH244846   5.530   2.034   2.229
 6884TIP3    H144847   5.595   1.979   2.079
 6884TIP3    H244848   5.585   2.114   2.286
 6885TIP3   OH244849   4.033   1.931   2.160
 6885TIP3    H144850   3.955   1.901   2.007
 6885TIP3    H244851   4.098   1.862   2.079
 6886TIP3   OH244852   3.945   1.923   0.849
 6886TIP3    H144853   3.999   1.986   0.687
 6886TIP3    H244854   3.889   1.981   1.008
 6887TIP3   OH244855   4.488   1.927   1.998
 6887TIP3    H144856   4.571   1.918   1.851
 6887TIP3    H244857   4.520   1.938   2.271
 6888TIP3   OH244858   5.110   1.963   2.385
 6888TIP3    H144859   5.064   1.977   2.133
 6888TIP3    H244860   5.059   1.891   2.517
 6889TIP3   OH244861   5.244   1.943   1.269
 6889TIP3    H144862   5.171   2.008   1.278
 6889TIP3    H244863   5.207   1.873   1.443
 6890TIP3   OH244864   3.937   3.545   1.140
 6890TIP3    H144865   3.849   3.547   1.017
 6890TIP3    H244866   3.959   3.639   1.110
 6891TIP3   OH244867   4.104   2.062   0.405
 6891TIP3    H144868   4.182   2.008   0.339
 6891TIP3    H244869   4.143   2.146   0.492
 6892TIP3   OH244870   4.649   2.155   1.056
 6892TIP3    H144871   4.695   2.097   1.245
 6892TIP3    H244872   4.651   2.239   1.206
 6893TIP3   OH244873   4.824   3.672   0.543
 6893TIP3    H144874   4.921   3.690   0.546
 6893TIP3    H244875   4.818   3.633   0.276
 6894TIP3   OH244876   5.480   3.594   1.494
 6894TIP3    H144877   5.474   3.505   1.362
 6894TIP3    H244878   5.453   3.656   1.284
 6895TIP3   OH244879   4.037   2.031   4.932
 6895TIP3    H144880   3.993   1.945   4.929
 6895TIP3    H244881   4.117   2.016   5.094
 6896TIP3   OH244882   4.252   1.972   5.463
 6896TIP3    H144883   4.346   1.952   5.427
 6896TIP3    H244884   4.215   1.885   5.553
 6897TIP3   OH244885   4.154   3.683   0.378
 6897TIP3    H144886   4.091   3.709   0.585
 6897TIP3    H244887   4.182   3.595   0.459
 6898TIP3   OH244888   5.098   1.895   5.445
 6898TIP3    H144889   5.098   1.863   5.724
 6898TIP3    H244890   5.191   1.873   5.364
 6899TIP3   OH244891   5.418   3.508   5.007
 6899TIP3    H144892   5.351   3.503   4.794
 6899TIP3    H244893   5.402   3.598   5.112
 6900TIP3   OH244894   6.880   2.892   2.079
 6900TIP3    H144895   6.876   2.979   2.211
 6900TIP3    H244896   6.805   2.902   1.893
 6901TIP3   OH244897   6.736   2.790   3.060
 6901TIP3    H144898   6.757   2.742   3.309
 6901TIP3    H244899   6.669   2.733   2.931
 6902TIP3   OH244900   5.960   2.772   3.510
 6902TIP3    H144901   5.970   2.696   3.690
 6902TIP3    H244902   6.038   2.824   3.576
 6903TIP3   OH244903   7.129   3.112   2.679
 6903TIP3    H144904   7.114   3.034   2.847
 6903TIP3    H244905   7.121   3.184   2.874
 6904TIP3   OH244906   6.068   3.246   2.985
 6904TIP3    H144907   6.035   3.154   2.958
 6904TIP3    H244908   6.163   3.224   2.973
 6905TIP3   OH244909   5.742   2.569   1.719
 6905TIP3    H144910   5.707   2.658   1.767
 6905TIP3    H244911   5.709   2.550   1.449
 6906TIP3   OH244912   5.785   2.812   2.493
 6906TIP3    H144913   5.836   2.728   2.538
 6906TIP3    H244914   5.849   2.869   2.355
 6907TIP3   OH244915   6.820   3.628   2.688
 6907TIP3    H144916   6.883   3.571   2.541
 6907TIP3    H244917   6.766   3.560   2.811
 6908TIP3   OH244918   6.575   3.050   3.354
 6908TIP3    H144919   6.595   2.997   3.123
 6908TIP3    H244920   6.665   3.078   3.435
 6909TIP3   OH244921   7.457   2.234   3.324
 6909TIP3    H144922   7.455   2.291   3.558
 6909TIP3    H244923   7.527   2.275   3.165
 6910TIP3   OH244924   6.925   2.499   3.429
 6910TIP3    H144925   6.965   2.412   3.477
 6910TIP3    H244926   6.900   2.492   3.147
 6911TIP3   OH244927   6.217   2.278   2.385
 6911TIP3    H144928   6.231   2.361   2.232
 6911TIP3    H244929   6.174   2.224   2.178
 6912TIP3   OH244930   7.005   2.304   1.971
 6912TIP3    H144931   7.056   2.296   2.223
 6912TIP3    H244932   7.044   2.380   1.842
 6913TIP3   OH244933   5.877   2.567   2.658
 6913TIP3    H144934   5.938   2.520   2.835
 6913TIP3    H244935   5.900   2.524   2.403
 6914TIP3   OH244936   6.376   2.696   2.547
 6914TIP3    H144937   6.451   2.646   2.664
 6914TIP3    H244938   6.329   2.625   2.406
 6915TIP3   OH244939   7.443   2.313   4.176
 6915TIP3    H144940   7.400   2.393   4.062
 6915TIP3    H244941   7.517   2.353   4.320
 6916TIP3   OH244942   6.125   2.198   3.675
 6916TIP3    H144943   6.086   2.246   3.450
 6916TIP3    H244944   6.060   2.223   3.885
 6917TIP3   OH244945   6.799   3.147   1.746
 6917TIP3    H144946   6.790   3.146   1.452
 6917TIP3    H244947   6.768   3.238   1.797
 6918TIP3   OH244948   6.335   2.966   3.618
 6918TIP3    H144949   6.280   3.043   3.708
 6918TIP3    H244950   6.411   3.014   3.495
 6919TIP3   OH244951   7.135   2.267   2.655
 6919TIP3    H144952   7.115   2.193   2.835
 6919TIP3    H244953   7.231   2.264   2.631
 6920TIP3   OH244954   6.075   2.393   3.057
 6920TIP3    H144955   6.140   2.452   3.198
 6920TIP3    H244956   6.128   2.366   2.823
 6921TIP3   OH244957   6.210   3.186   3.918
 6921TIP3    H144958   6.204   3.279   3.831
 6921TIP3    H244959   6.119   3.180   4.035
 6922TIP3   OH244960   5.790   3.109   1.233
 6922TIP3    H144961   5.790   3.171   1.005
 6922TIP3    H244962   5.802   3.171   1.455
 6923TIP3   OH244963   7.155   3.315   3.240
 6923TIP3    H144964   7.063   3.330   3.330
 6923TIP3    H244965   7.174   3.404   3.138
 6924TIP3   OH244966   7.188   2.173   3.600
 6924TIP3    H144967   7.111   2.216   3.468
 6924TIP3    H244968   7.263   2.205   3.441
 6925TIP3   OH244969   6.471   1.935   2.853
 6925TIP3    H144970   6.449   1.841   2.877
 6925TIP3    H244971   6.383   1.974   2.931
 6926TIP3   OH244972   6.980   3.465   2.250
 6926TIP3    H144973   6.996   3.380   2.109
 6926TIP3    H244974   7.070   3.503   2.214
 6927TIP3   OH244975   7.094   3.265   1.815
 6927TIP3    H144976   7.083   3.198   1.608
 6927TIP3    H244977   7.131   3.213   2.037
 6928TIP3   OH244978   7.253   3.121   4.386
 6928TIP3    H144979   7.246   3.057   4.161
 6928TIP3    H244980   7.269   3.203   4.239
 6929TIP3   OH244981   6.724   2.830   1.266
 6929TIP3    H144982   6.678   2.917   1.248
 6929TIP3    H244983   6.801   2.842   1.095
 6930TIP3   OH244984   6.769   2.694   0.381
 6930TIP3    H144985   6.844   2.718   0.564
 6930TIP3    H244986   6.795   2.604   0.306
 6931TIP3   OH244987   7.416   2.754   3.768
 6931TIP3    H144988   7.358   2.831   3.717
 6931TIP3    H244989   7.487   2.770   3.570
 6932TIP3   OH244990   7.085   2.832   1.602
 6932TIP3    H144991   7.012   2.865   1.776
 6932TIP3    H244992   7.145   2.795   1.809
 6933TIP3   OH244993   7.060   2.658   4.326
 6933TIP3    H144994   7.042   2.748   4.425
 6933TIP3    H244995   6.994   2.659   4.107
 6934TIP3   OH244996   6.227   2.888   2.160
 6934TIP3    H144997   6.196   2.861   1.890
 6934TIP3    H244998   6.290   2.816   2.217
 6935TIP3   OH244999   6.359   3.226   2.922
 6935TIP3    H145000   6.370   3.210   2.637
 6935TIP3    H245001   6.439   3.185   3.042
 6936TIP3   OH245002   6.254   2.748   3.258
 6936TIP3    H145003   6.288   2.751   2.982
 6936TIP3    H245004   6.298   2.827   3.381
 6937TIP3   OH245005   6.906   3.343   3.474
 6937TIP3    H145006   6.889   3.396   3.711
 6937TIP3    H245007   6.884   3.252   3.567
 6938TIP3   OH245008   6.372   3.216   4.584
 6938TIP3    H145009   6.305   3.272   4.725
 6938TIP3    H245010   6.325   3.206   4.326
 6939TIP3   OH245011   6.959   2.767   0.891
 6939TIP3    H145012   7.003   2.776   1.155
 6939TIP3    H245013   7.014   2.831   0.729
 6940TIP3   OH245014   6.062   2.807   4.383
 6940TIP3    H145015   6.085   2.894   4.488
 6940TIP3    H245016   5.976   2.794   4.512
 6941TIP3   OH245017   6.730   3.424   1.728
 6941TIP3    H145018   6.773   3.445   1.980
 6941TIP3    H245019   6.675   3.502   1.677
 6942TIP3   OH245020   6.205   3.390   4.908
 6942TIP3    H145021   6.171   3.468   4.758
 6942TIP3    H245022   6.118   3.353   4.986
 6943TIP3   OH245023   7.332   1.890   0.813
 6943TIP3    H145024   7.237   1.907   0.882
 6943TIP3    H245025   7.370   1.978   0.861
 6944TIP3   OH245026   6.128   2.781   1.434
 6944TIP3    H145027   6.080   2.853   1.296
 6944TIP3    H245028   6.085   2.702   1.335
 6945TIP3   OH245029   7.475   3.375   0.462
 6945TIP3    H145030   7.485   3.473   0.474
 6945TIP3    H245031   7.566   3.345   0.498
 6946TIP3   OH245032   5.754   3.054   4.110
 6946TIP3    H145033   5.698   3.046   3.876
 6946TIP3    H245034   5.797   2.966   4.119
 6947TIP3   OH245035   5.733   3.307   3.093
 6947TIP3    H145036   5.828   3.293   3.069
 6947TIP3    H245037   5.731   3.384   3.267
 6948TIP3   OH245038   7.529   3.396   4.842
 6948TIP3    H145039   7.521   3.303   4.773
 6948TIP3    H245040   7.451   3.405   5.022
 6949TIP3   OH245041   6.628   3.325   4.503
 6949TIP3    H145042   6.644   3.393   4.704
 6949TIP3    H245043   6.533   3.300   4.545
 6950TIP3   OH245044   6.675   3.701   1.365
 6950TIP3    H145045   6.688   3.720   1.083
 6950TIP3    H245046   6.681   3.791   1.479
 6951TIP3   OH245047   6.048   3.567   2.049
 6951TIP3    H145048   6.076   3.551   2.331
 6951TIP3    H245049   5.960   3.526   2.046
 6952TIP3   OH245050   6.961   3.684   0.567
 6952TIP3    H145051   7.003   3.600   0.468
 6952TIP3    H245052   6.979   3.681   0.855
 6953TIP3   OH245053   6.942   3.627   1.404
 6953TIP3    H145054   6.846   3.628   1.464
 6953TIP3    H245055   6.973   3.553   1.566
 6954TIP3   OH245056   7.212   2.556   4.977
 6954TIP3    H145057   7.162   2.590   4.743
 6954TIP3    H245058   7.225   2.464   4.896
 6955TIP3   OH245059   5.976   3.176   4.302
 6955TIP3    H145060   5.975   3.162   4.593
 6955TIP3    H245061   5.886   3.148   4.230
 6956TIP3   OH245062   6.249   2.040   3.129
 6956TIP3    H145063   6.162   2.036   3.006
 6956TIP3    H245064   6.228   2.093   3.369
 6957TIP3   OH245065   6.720   1.981   4.170
 6957TIP3    H145066   6.757   1.940   4.413
 6957TIP3    H245067   6.623   1.975   4.212
 6958TIP3   OH245068   7.010   2.365   4.392
 6958TIP3    H145069   6.955   2.331   4.614
 6958TIP3    H245070   6.998   2.461   4.419
 6959TIP3   OH245071   7.104   2.901   0.387
 6959TIP3    H145072   7.062   2.914   0.123
 6959TIP3    H245073   7.197   2.902   0.309
 6960TIP3   OH245074   6.679   2.265   0.387
 6960TIP3    H145075   6.631   2.227   0.621
 6960TIP3    H245076   6.621   2.235   0.174
 6961TIP3   OH245077   6.259   2.505   3.555
 6961TIP3    H145078   6.182   2.512   3.735
 6961TIP3    H245079   6.261   2.597   3.450
 6962TIP3   OH245080   6.234   2.510   2.013
 6962TIP3    H145081   6.138   2.507   1.947
 6962TIP3    H245082   6.275   2.493   1.746
 6963TIP3   OH245083   6.819   2.616   1.701
 6963TIP3    H145084   6.780   2.692   1.554
 6963TIP3    H245085   6.874   2.576   1.491
 6964TIP3   OH245086   6.675   2.611   5.025
 6964TIP3    H145087   6.633   2.527   5.115
 6964TIP3    H245088   6.742   2.624   5.232
 6965TIP3   OH245089   6.897   2.562   2.550
 6965TIP3    H145090   6.883   2.643   2.391
 6965TIP3    H245091   6.897   2.498   2.334
 6966TIP3   OH245092   6.020   2.528   3.918
 6966TIP3    H145093   6.040   2.578   4.158
 6966TIP3    H245094   5.994   2.441   4.029
 6967TIP3   OH245095   6.339   2.297   0.159
 6967TIP3    H145096   6.301   2.246   0.381
 6967TIP3    H245097   6.269   2.298  -0.042
 6968TIP3   OH245098   5.691   2.247   2.298
 6968TIP3    H145099   5.759   2.247   2.505
 6968TIP3    H245100   5.742   2.245   2.052
 6969TIP3   OH245101   5.802   2.317   0.855
 6969TIP3    H145102   5.883   2.360   0.759
 6969TIP3    H245103   5.743   2.395   0.864
 6970TIP3   OH245104   6.819   2.700   3.843
 6970TIP3    H145105   6.869   2.633   3.684
 6970TIP3    H245106   6.758   2.643   3.993
 6971TIP3   OH245107   6.509   2.293   2.322
 6971TIP3    H145108   6.415   2.282   2.397
 6971TIP3    H245109   6.557   2.231   2.499
 6972TIP3   OH245110   5.962   2.435   1.998
 6972TIP3    H145111   5.886   2.462   1.827
 6972TIP3    H245112   5.991   2.349   1.887
 6973TIP3   OH245113   6.332   2.451   1.287
 6973TIP3    H145114   6.427   2.469   1.278
 6973TIP3    H245115   6.295   2.519   1.104
 6974TIP3   OH245116   6.937   2.210   3.276
 6974TIP3    H145117   6.868   2.198   3.483
 6974TIP3    H245118   6.894   2.179   3.033
 6975TIP3   OH245119   6.207   2.580   0.615
 6975TIP3    H145120   6.121   2.555   0.501
 6975TIP3    H245121   6.269   2.530   0.444
 6976TIP3   OH245122   7.257   3.757   5.238
 6976TIP3    H145123   7.301   3.787   4.992
 6976TIP3    H245124   7.330   3.761   5.427
 6977TIP3   OH245125   5.999   3.046   5.091
 6977TIP3    H145126   6.063   3.083   5.280
 6977TIP3    H245127   5.922   3.027   5.265
 6978TIP3   OH245128   6.613   2.559   2.838
 6978TIP3    H145129   6.691   2.534   2.679
 6978TIP3    H245130   6.594   2.476   2.976
 6979TIP3   OH245131   6.069   2.164   1.788
 6979TIP3    H145132   6.007   2.100   1.914
 6979TIP3    H245133   6.115   2.102   1.614
 6980TIP3   OH245134   6.497   2.385   3.576
 6980TIP3    H145135   6.415   2.440   3.585
 6980TIP3    H245136   6.559   2.437   3.732
 6981TIP3   OH245137   6.544   3.047   1.176
 6981TIP3    H145138   6.473   2.990   1.068
 6981TIP3    H245139   6.508   3.060   1.449
 6982TIP3   OH245140   7.266   2.984   3.693
 6982TIP3    H145141   7.325   3.020   3.486
 6982TIP3    H245142   7.185   2.962   3.537
 6983TIP3   OH245143   6.933   2.318   0.528
 6983TIP3    H145144   6.837   2.309   0.561
 6983TIP3    H245145   6.951   2.393   0.711
 6984TIP3   OH245146   6.690   3.059   4.539
 6984TIP3    H145147   6.629   3.034   4.755
 6984TIP3    H245148   6.677   3.155   4.533
 6985TIP3   OH245149   6.999   2.508   1.050
 6985TIP3    H145150   7.088   2.495   1.164
 6985TIP3    H245151   7.004   2.599   0.948
 6986TIP3   OH245152   6.067   2.981   2.790
 6986TIP3    H145153   6.122   2.961   2.553
 6986TIP3    H245154   6.079   2.902   2.952
 6987TIP3   OH245155   6.756   3.186   0.942
 6987TIP3    H145156   6.712   3.273   0.942
 6987TIP3    H245157   6.678   3.127   0.969
 6988TIP3   OH245158   5.759   2.796   4.434
 6988TIP3    H145159   5.741   2.740   4.671
 6988TIP3    H245160   5.703   2.752   4.233
 6989TIP3   OH245161   6.451   2.761   4.980
 6989TIP3    H145162   6.407   2.713   4.767
 6989TIP3    H245163   6.540   2.719   4.983
 6990TIP3   OH245164   6.956   3.297   4.518
 6990TIP3    H145165   6.873   3.283   4.374
 6990TIP3    H245166   6.921   3.326   4.776
 6991TIP3   OH245167   7.491   2.495   1.023
 6991TIP3    H145168   7.425   2.465   0.825
 6991TIP3    H245169   7.496   2.588   0.939
 6992TIP3   OH245170   7.484   3.085   4.776
 6992TIP3    H145171   7.396   3.112   4.680
 6992TIP3    H245172   7.537   3.079   4.527
 6993TIP3   OH245173   7.335   3.357   1.149
 6993TIP3    H145174   7.247   3.319   1.116
 6993TIP3    H245175   7.379   3.341   0.891
 6994TIP3   OH245176   7.055   2.896   3.192
 6994TIP3    H145177   6.963   2.892   3.108
 6994TIP3    H245178   7.089   2.819   3.039
 6995TIP3   OH245179   6.284   3.306   2.145
 6995TIP3    H145180   6.309   3.400   2.106
 6995TIP3    H245181   6.196   3.305   2.022
 6996TIP3   OH245182   5.892   2.767   0.327
 6996TIP3    H145183   5.949   2.825   0.486
 6996TIP3    H245184   5.805   2.773   0.468
 6997TIP3   OH245185   6.435   3.076   1.950
 6997TIP3    H145186   6.378   3.156   1.971
 6997TIP3    H245187   6.385   3.010   2.103
 6998TIP3   OH245188   6.486   3.489   3.972
 6998TIP3    H145189   6.541   3.557   3.849
 6998TIP3    H245190   6.547   3.448   4.164
 6999TIP3   OH245191   6.308   3.559   1.764
 6999TIP3    H145192   6.214   3.570   1.839
 6999TIP3    H245193   6.341   3.649   1.818
 7000TIP3   OH245194   6.804   3.083   3.756
 7000TIP3    H145195   6.757   3.059   4.008
 7000TIP3    H245196   6.849   2.999   3.693
 7001TIP3   OH245197   7.069   3.210   0.456
 7001TIP3    H145198   7.107   3.160   0.681
 7001TIP3    H245199   6.979   3.177   0.468
 7002TIP3   OH245200   7.108   3.543   4.485
 7002TIP3    H145201   7.030   3.484   4.470
 7002TIP3    H245202   7.106   3.593   4.230
 7003TIP3   OH245203   7.537   3.643   0.453
 7003TIP3    H145204   7.604   3.714   0.456
 7003TIP3    H245205   7.459   3.691   0.561
 7004TIP3   OH245206   5.948   2.282   4.230
 7004TIP3    H145207   5.866   2.335   4.251
 7004TIP3    H245208   5.920   2.199   4.356
 7005TIP3   OH245209   7.157   3.071   1.098
 7005TIP3    H145210   7.126   2.983   1.179
 7005TIP3    H245211   7.254   3.059   1.113
 7006TIP3   OH245212   5.889   3.460   3.807
 7006TIP3    H145213   5.959   3.393   3.810
 7006TIP3    H245214   5.909   3.503   4.065
 7007TIP3   OH245215   6.333   3.249   0.768
 7007TIP3    H145216   6.416   3.214   0.870
 7007TIP3    H245217   6.340   3.344   0.855
 7008TIP3   OH245218   6.004   2.970   0.912
 7008TIP3    H145219   5.915   3.004   0.978
 7008TIP3    H245220   6.046   3.052   0.816
 7009TIP3   OH245221   6.793   2.249   4.065
 7009TIP3    H145222   6.886   2.261   4.140
 7009TIP3    H245223   6.775   2.156   4.143
 7010TIP3   OH245224   6.870   2.192   1.392
 7010TIP3    H145225   6.894   2.252   1.179
 7010TIP3    H245226   6.932   2.219   1.608
 7011TIP3   OH245227   6.632   3.427   0.786
 7011TIP3    H145228   6.561   3.434   0.984
 7011TIP3    H245229   6.670   3.516   0.792
 7012TIP3   OH245230   6.636   2.392   1.653
 7012TIP3    H145231   6.673   2.480   1.701
 7012TIP3    H245232   6.594   2.367   1.908
 7013TIP3   OH245233   6.682   2.502   4.275
 7013TIP3    H145234   6.686   2.537   4.551
 7013TIP3    H245235   6.723   2.413   4.296
 7014TIP3   OH245236   6.661   2.068   1.749
 7014TIP3    H145237   6.626   2.135   1.932
 7014TIP3    H245238   6.746   2.112   1.665
 7015TIP3   OH245239   6.371   3.500   1.002
 7015TIP3    H145240   6.396   3.582   0.855
 7015TIP3    H245241   6.344   3.536   1.263
 7016TIP3   OH245242   6.243   2.197   0.906
 7016TIP3    H145243   6.237   2.276   1.074
 7016TIP3    H245244   6.332   2.168   0.975
 7017TIP3   OH245245   7.236   2.276   4.695
 7017TIP3    H145246   7.153   2.292   4.539
 7017TIP3    H245247   7.305   2.290   4.491
 7018TIP3   OH245248   7.129   2.684   2.748
 7018TIP3    H145249   7.048   2.630   2.724
 7018TIP3    H245250   7.181   2.620   2.916
 7019TIP3   OH245251   6.078   3.206   0.588
 7019TIP3    H145252   6.164   3.225   0.726
 7019TIP3    H245253   6.115   3.180   0.330
 7020TIP3   OH245254   5.925   2.504   0.399
 7020TIP3    H145255   5.918   2.601   0.408
 7020TIP3    H245256   5.854   2.480   0.210
 7021TIP3   OH245257   7.271   3.580   3.249
 7021TIP3    H145258   7.253   3.652   3.057
 7021TIP3    H245259   7.367   3.584   3.282
 7022TIP3   OH245260   5.985   1.984   2.955
 7022TIP3    H145261   5.986   1.973   2.661
 7022TIP3    H245262   5.957   1.895   3.036
 7023TIP3   OH245263   5.844   3.368   1.773
 7023TIP3    H145264   5.768   3.429   1.773
 7023TIP3    H245265   5.885   3.398   1.527
 7024TIP3   OH245266   5.770   3.658   5.115
 7024TIP3    H145267   5.863   3.654   5.025
 7024TIP3    H245268   5.745   3.564   5.070
 7025TIP3   OH245269   6.269   3.535   5.592
 7025TIP3    H145270   6.352   3.486   5.616
 7025TIP3    H245271   6.234   3.494   5.346
 7026TIP3   OH245272   6.683   3.457  -0.072
 7026TIP3    H145273   6.628   3.401   0.096
 7026TIP3    H245274   6.770   3.441   0.051
 7027TIP3   OH245275   6.895   3.411   5.253
 7027TIP3    H145276   6.866   3.320   5.331
 7027TIP3    H245277   6.985   3.411   5.370
 7028TIP3   OH245278   7.046   3.460   0.201
 7028TIP3    H145279   7.068   3.370   0.300
 7028TIP3    H245280   7.129   3.494   0.075
 7029TIP3   OH245281   5.758   3.024   5.457
 7029TIP3    H145282   5.723   2.934   5.469
 7029TIP3    H245283   5.715   3.056   5.208
 7030TIP3   OH245284   6.247   3.027   0.123
 7030TIP3    H145285   6.219   2.986   0.372
 7030TIP3    H245286   6.340   3.044   0.186
 7031TIP3   OH245287   6.462   3.029   5.094
 7031TIP3    H145288   6.421   3.082   4.875
 7031TIP3    H245289   6.450   2.934   5.010
 7032TIP3   OH245290   7.031   2.988   4.509
 7032TIP3    H145291   7.119   3.031   4.545
 7032TIP3    H245292   6.975   3.065   4.557
 7033TIP3   OH245293   5.848   2.728   5.352
 7033TIP3    H145294   5.929   2.679   5.406
 7033TIP3    H245295   5.805   2.735   5.613
 7034TIP3   OH245296   6.352   2.868   0.873
 7034TIP3    H145297   6.288   2.809   1.011
 7034TIP3    H245298   6.393   2.807   0.681
 7035TIP3   OH245299   6.267   2.643   4.290
 7035TIP3    H145300   6.198   2.711   4.338
 7035TIP3    H245301   6.337   2.695   4.158
 7036TIP3   OH245302   6.493   2.699   0.261
 7036TIP3    H145303   6.515   2.670  -0.012
 7036TIP3    H245304   6.583   2.694   0.387
 7037TIP3   OH245305   6.778   2.910   5.535
 7037TIP3    H145306   6.858   2.884   5.391
 7037TIP3    H245307   6.762   2.828   5.691
 7038TIP3   OH245308   7.345   2.880  30.012
 7038TIP3    H145309   7.404   2.807  29.943
 7038TIP3    H245310   7.399   2.953  29.901
 7039TIP3   OH245311   6.319   2.419   4.680
 7039TIP3    H145312   6.337   2.350   4.482
 7039TIP3    H245313   6.310   2.499   4.506
 7040TIP3   OH245314   6.364   2.209   4.068
 7040TIP3    H145315   6.416   2.260   3.870
 7040TIP3    H245316   6.274   2.209   3.945
 7041TIP3   OH245317   6.482   2.796   4.056
 7041TIP3    H145318   6.571   2.827   3.990
 7041TIP3    H245319   6.428   2.865   3.924
 7042TIP3   OH245320   6.986   2.519   5.499
 7042TIP3    H145321   7.009   2.430   5.409
 7042TIP3    H245322   7.070   2.564   5.433
 7043TIP3   OH245323   7.060   2.836   5.157
 7043TIP3    H145324   7.021   2.874   4.911
 7043TIP3    H245325   7.153   2.821   5.070
 7044TIP3   OH245326   6.167   2.475   5.331
 7044TIP3    H145327   6.083   2.428   5.277
 7044TIP3    H245328   6.224   2.450   5.103
 7045TIP3   OH245329   6.448   1.952   4.095
 7045TIP3    H145330   6.423   2.047   4.116
 7045TIP3    H245331   6.370   1.918   3.957
 7046TIP3   OH245332   6.559   2.381   5.265
 7046TIP3    H145333   6.512   2.367   5.517
 7046TIP3    H245334   6.486   2.372   5.076
 7047TIP3   OH245335   6.835   2.283   5.040
 7047TIP3    H145336   6.742   2.303   5.097
 7047TIP3    H245337   6.867   2.254   5.304
 7048TIP3   OH245338   7.007   2.180   5.592
 7048TIP3    H145339   6.991   2.083   5.577
 7048TIP3    H245340   6.987   2.201   5.874
 7049TIP3   OH245341   5.951   2.297   5.352
 7049TIP3    H145342   5.944   2.216   5.187
 7049TIP3    H245343   5.944   2.258   5.622
 7050TIP3   OH245344   6.405   1.873   4.935
 7050TIP3    H145345   6.476   1.808   4.986
 7050TIP3    H245346   6.412   1.881   4.644
 7051TIP3   OH245347   6.473   2.025   5.682
 7051TIP3    H145348   6.453   1.982   5.424
 7051TIP3    H245349   6.446   2.116   5.622
 7052TIP3   OH245350   6.407   3.722   0.585
 7052TIP3    H145351   6.503   3.731   0.621
 7052TIP3    H245352   6.385   3.792   0.399
 7053TIP3   OH245353   5.811   3.229   0.462
 7053TIP3    H145354   5.908   3.218   0.516
 7053TIP3    H245355   5.795   3.163   0.255
 7054TIP3   OH245356   5.673   3.722   1.878
 7054TIP3    H145357   5.595   3.670   1.785
 7054TIP3    H245358   5.706   3.664   2.094
 7055TIP3   OH245359   5.761   3.555   2.433
 7055TIP3    H145360   5.696   3.491   2.529
 7055TIP3    H245361   5.820   3.565   2.667
 7056TIP3   OH245362   7.562   3.596   3.339
 7056TIP3    H145363   7.571   3.604   3.630
 7056TIP3    H245364   7.558   3.690   3.267
 7057TIP3   OH245365   7.471   3.576   4.206
 7057TIP3    H145366   7.417   3.510   4.059
 7057TIP3    H245367   7.496   3.520   4.437
 7058TIP3   OH245368   7.318   3.171   5.664
 7058TIP3    H145369   7.231   3.179   5.796
 7058TIP3    H245370   7.360   3.254   5.742
 7059TIP3   OH245371   7.440   2.998   1.158
 7059TIP3    H145372   7.528   3.037   1.182
 7059TIP3    H245373   7.444   2.929   1.368
 7060TIP3   OH245374   7.482   2.794   1.758
 7060TIP3    H145375   7.387   2.778   1.818
 7060TIP3    H245376   7.519   2.792   2.028
 7061TIP3   OH245377   7.493   3.055   3.318
 7061TIP3    H145378   7.572   3.035   3.159
 7061TIP3    H245379   7.499   3.154   3.303
 7062TIP3   OH245380   7.314   3.368   3.972
 7062TIP3    H145381   7.234   3.400   4.107
 7062TIP3    H245382   7.283   3.351   3.699
 7063TIP3   OH245383   7.498   2.798   0.633
 7063TIP3    H145384   7.428   2.832   0.462
 7063TIP3    H245385   7.501   2.871   0.828
 7064TIP3   OH245386   7.344   2.460   0.393
 7064TIP3    H145387   7.380   2.538   0.255
 7064TIP3    H245388   7.355   2.392   0.192
 7065TIP3   OH245389   7.255   2.694   2.049
 7065TIP3    H145390   7.231   2.604   1.965
 7065TIP3    H245391   7.224   2.696   2.328
 7066TIP3   OH245392   5.751   2.904   3.270
 7066TIP3    H145393   5.759   2.872   2.991
 7066TIP3    H245394   5.838   2.872   3.372
 7067TIP3   OH245395   7.337   2.849   4.878
 7067TIP3    H145396   7.411   2.788   4.818
 7067TIP3    H245397   7.383   2.934   4.842
 7068TIP3   OH245398   7.484   2.626   4.956
 7068TIP3    H145399   7.386   2.627   4.974
 7068TIP3    H245400   7.504   2.536   5.067
 7069TIP3   OH245401   7.256   2.198  -0.036
 7069TIP3    H145402   7.327   2.167   0.144
 7069TIP3    H245403   7.189   2.232   0.147
 7070TIP3   OH245404   7.236   2.449   1.509
 7070TIP3    H145405   7.234   2.352   1.548
 7070TIP3    H245406   7.332   2.464   1.515
 7071TIP3   OH245407   7.251   2.503   3.186
 7071TIP3    H145408   7.348   2.488   3.135
 7071TIP3    H245409   7.248   2.488   3.477
 7072TIP3   OH245410   7.287   2.539   4.035
 7072TIP3    H145411   7.200   2.580   4.086
 7072TIP3    H245412   7.341   2.618   3.975
 7073TIP3   OH245413   5.717   2.367   5.007
 7073TIP3    H145414   5.807   2.355   5.121
 7073TIP3    H245415   5.664   2.307   5.175
 7074TIP3   OH245416   7.511   1.911   5.532
 7074TIP3    H145417   7.561   1.861   5.334
 7074TIP3    H245418   7.498   1.994   5.376
 7075TIP3   OH245419   7.263   2.184   1.530
 7075TIP3    H145420   7.296   2.147   1.785
 7075TIP3    H245421   7.218   2.105   1.428
 7076TIP3   OH245422   5.847   2.223   3.111
 7076TIP3    H145423   5.890   2.136   3.093
 7076TIP3    H245424   5.916   2.287   3.045
 7077TIP3   OH245425   5.695   2.532   3.231
 7077TIP3    H145426   5.750   2.513   2.994
 7077TIP3    H245427   5.739   2.613   3.318
 7078TIP3   OH245428   7.458   2.136   5.127
 7078TIP3    H145429   7.378   2.184   5.229
 7078TIP3    H245430   7.424   2.107   4.869
 7079TIP3   OH245431   7.503   2.136   0.438
 7079TIP3    H145432   7.561   2.061   0.375
 7079TIP3    H245433   7.550   2.209   0.309
 7080TIP3   OH245434   5.710   2.154   1.446
 7080TIP3    H145435   5.618   2.183   1.464
 7080TIP3    H245436   5.735   2.195   1.191
 7081TIP3   OH245437   7.182   3.622   2.022
 7081TIP3    H145438   7.241   3.608   1.791
 7081TIP3    H245439   7.237   3.675   2.196
 7082TIP3   OH245440   5.719   2.013   3.939
 7082TIP3    H145441   5.645   1.962   4.050
 7082TIP3    H245442   5.674   2.079   3.768
 7083TIP3   OH245443   5.949   3.332   5.160
 7083TIP3    H145444   5.892   3.395   5.025
 7083TIP3    H245445   5.913   3.334   5.427
 7084TIP3   OH245446   6.215   3.470   4.050
 7084TIP3    H145447   6.205   3.567   4.077
 7084TIP3    H245448   6.311   3.462   4.110
 7085TIP3   OH245449   6.638   3.604   5.007
 7085TIP3    H145450   6.658   3.589   5.292
 7085TIP3    H245451   6.729   3.623   4.905
 7086TIP3   OH245452   6.865   3.727   4.761
 7086TIP3    H145453   6.941   3.694   4.617
 7086TIP3    H245454   6.902   3.794   4.938
 7087TIP3   OH245455   7.346   1.968   4.548
 7087TIP3    H145456   7.270   2.007   4.410
 7087TIP3    H245457   7.355   1.882   4.410
 7088TIP3   OH245458   5.966   3.785   3.873
 7088TIP3    H145459   5.888   3.843   3.867
 7088TIP3    H245460   5.967   3.749   4.146
 7089TIP3   OH245461   6.224   3.735   3.762
 7089TIP3    H145462   6.128   3.747   3.834
 7089TIP3    H245463   6.223   3.791   3.525
 7090TIP3   OH245464   6.679   3.693   3.513
 7090TIP3    H145465   6.615   3.738   3.342
 7090TIP3    H245466   6.697   3.762   3.714
 7091TIP3   OH245467   6.867   3.566   3.981
 7091TIP3    H145468   6.803   3.594   3.774
 7091TIP3    H245469   6.941   3.627   3.915
 7092TIP3   OH245470   7.123   3.696   3.840
 7092TIP3    H145471   7.132   3.786   3.741
 7092TIP3    H245472   7.179   3.646   3.651
 7093TIP3   OH245473   5.913   3.608   3.102
 7093TIP3    H145474   5.895   3.559   3.354
 7093TIP3    H245475   6.006   3.579   3.057
 7094TIP3   OH245476   6.137   3.514   2.790
 7094TIP3    H145477   6.130   3.417   2.826
 7094TIP3    H245478   6.228   3.530   2.889
 7095TIP3   OH245479   6.369   3.525   3.150
 7095TIP3    H145480   6.409   3.438   3.105
 7095TIP3    H245481   6.352   3.521   3.438
 7096TIP3   OH245482   6.692   2.099   2.601
 7096TIP3    H145483   6.627   2.059   2.781
 7096TIP3    H245484   6.752   2.024   2.562
 7097TIP3   OH245485   7.222   1.923   2.799
 7097TIP3    H145486   7.268   1.980   2.604
 7097TIP3    H245487   7.130   1.945   2.727
 7098TIP3   OH245488   7.356   2.052   2.199
 7098TIP3    H145489   7.425   1.986   2.127
 7098TIP3    H245490   7.415   2.123   2.301
 7099TIP3   OH245491   5.967   1.942   2.121
 7099TIP3    H145492   5.883   1.930   1.980
 7099TIP3    H245493   6.004   1.851   2.097
 7100TIP3   OH245494   5.823   1.940   0.792
 7100TIP3    H145495   5.883   2.005   0.663
 7100TIP3    H245496   5.782   1.992   1.008
 7101TIP3   OH245497   6.397   1.900   2.055
 7101TIP3    H145498   6.469   1.942   1.914
 7101TIP3    H245499   6.409   1.933   2.325
 7102TIP3   OH245500   6.963   1.979   2.541
 7102TIP3    H145501   6.949   1.986   2.256
 7102TIP3    H245502   6.921   1.890   2.598
 7103TIP3   OH245503   7.110   1.954   1.236
 7103TIP3    H145504   7.035   2.009   1.329
 7103TIP3    H245505   7.079   1.864   1.302
 7104TIP3   OH245506   5.823   3.542   1.134
 7104TIP3    H145507   5.738   3.544   0.993
 7104TIP3    H245508   5.844   3.636   1.125
 7105TIP3   OH245509   6.010   2.077   0.372
 7105TIP3    H145510   6.082   2.013   0.408
 7105TIP3    H245511   6.040   2.153   0.522
 7106TIP3   OH245512   6.557   2.187   1.107
 7106TIP3    H145513   6.609   2.137   1.308
 7106TIP3    H245514   6.574   2.276   1.215
 7107TIP3   OH245515   6.699   3.681   0.522
 7107TIP3    H145516   6.797   3.695   0.495
 7107TIP3    H245517   6.683   3.632   0.276
 7108TIP3   OH245518   7.365   3.616   1.422
 7108TIP3    H145519   7.361   3.522   1.335
 7108TIP3    H245520   7.354   3.662   1.170
 7109TIP3   OH245521   5.936   2.036   4.983
 7109TIP3    H145522   5.884   1.953   4.971
 7109TIP3    H245523   6.016   2.008   5.133
 7110TIP3   OH245524   6.149   1.946   5.460
 7110TIP3    H145525   6.241   1.950   5.364
 7110TIP3    H245526   6.154   1.859   5.586
 7111TIP3   OH245527   6.038   3.664   0.396
 7111TIP3    H145528   5.974   3.691   0.603
 7111TIP3    H245529   6.082   3.586   0.507
 7112TIP3   OH245530   6.975   1.903   5.532
 7112TIP3    H145531   6.982   1.849   5.778
 7112TIP3    H245532   7.061   1.881   5.409
 7113TIP3   OH245533   7.294   3.487   5.031
 7113TIP3    H145534   7.243   3.496   4.779
 7113TIP3    H245535   7.279   3.576   5.139
 7114TIP3   OH245536   7.574   2.535   1.740
 7114TIP3    H145537   7.553   2.631   1.734
 7114TIP3    H245538   7.555   2.511   1.458
 7115TIP3   OH245539   7.590   3.020   4.065
 7115TIP3    H145540   7.542   3.016   3.810
 7115TIP3    H245541   7.585   2.928   4.164
 7116TIP3   OH245542   7.549   3.308   3.096
 7116TIP3    H145543   7.638   3.306   2.970
 7116TIP3    H245544   7.561   3.385   3.270
 7117TIP3   OH245545   7.541   2.243   2.208
 7117TIP3    H145546   7.629   2.281   2.259
 7117TIP3    H245547   7.539   2.250   1.917
 7118TIP3   OH245548   7.601   2.761   4.359
 7118TIP3    H145549   7.579   2.701   4.584
 7118TIP3    H245550   7.526   2.741   4.179
 7119TIP3   OH245551   7.647   2.956   5.298
 7119TIP3    H145552   7.591   2.886   5.412
 7119TIP3    H245553   7.582   3.008   5.139
 7120TIP3   OH245554   7.513   3.738   1.992
 7120TIP3    H145555   7.456   3.700   1.782
 7120TIP3    H245556   7.531   3.656   2.148
 7121TIP3   OH245557   7.561   3.515   2.418
 7121TIP3    H145558   7.510   3.436   2.481
 7121TIP3    H245559   7.602   3.534   2.679
 7122TIP3   OH245560   7.630   2.801   3.297
 7122TIP3    H145561   7.608   2.828   3.027
 7122TIP3    H245562   7.708   2.859   3.345
 7123TIP3   OH245563   7.553   2.381   5.151
 7123TIP3    H145564   7.650   2.386   5.112
 7123TIP3    H245565   7.537   2.284   5.151
 7124TIP3   OH245566   7.513   2.522   3.087
 7124TIP3    H145567   7.609   2.499   3.117
 7124TIP3    H245568   7.524   2.617   3.102
 7125TIP3   OH245569   7.517   2.185   1.284
 7125TIP3    H145570   7.421   2.202   1.326
 7125TIP3    H245571   7.523   2.188   0.993
 7126TIP3   OH245572   7.472   1.990   3.816
 7126TIP3    H145573   7.462   2.003   4.104
 7126TIP3    H245574   7.436   2.072   3.702
 7127TIP3   OH245575   1.231   4.779   2.064
 7127TIP3    H145576   1.225   4.868   2.184
 7127TIP3    H245577   1.161   4.786   1.863
 7128TIP3   OH245578   1.109   4.673   3.099
 7128TIP3    H145579   1.116   4.628   3.363
 7128TIP3    H245580   1.046   4.615   2.961
 7129TIP3   OH245581   0.341   4.666   3.582
 7129TIP3    H145582   0.327   4.579   3.705
 7129TIP3    H245583   0.399   4.704   3.792
 7130TIP3   OH245584   1.419   4.972   2.634
 7130TIP3    H145585   1.399   4.900   2.820
 7130TIP3    H245586   1.436   5.046   2.817
 7131TIP3   OH245587   0.350   5.111   2.937
 7131TIP3    H145588   0.330   5.017   2.874
 7131TIP3    H245589   0.444   5.109   2.997
 7132TIP3   OH245590   0.142   4.443   1.545
 7132TIP3    H145591   0.139   4.517   1.728
 7132TIP3    H245592   0.045   4.423   1.542
 7133TIP3   OH245593   0.143   4.693   2.451
 7133TIP3    H145594   0.162   4.602   2.544
 7133TIP3    H245595   0.071   4.684   2.262
 7134TIP3   OH245596   1.186   5.525   2.712
 7134TIP3    H145597   1.252   5.471   2.562
 7134TIP3    H245598   1.136   5.451   2.826
 7135TIP3   OH245599   0.926   4.972   3.288
 7135TIP3    H145600   0.950   4.898   3.114
 7135TIP3    H245601   1.012   4.989   3.423
 7136TIP3   OH245602   1.784   4.087   3.354
 7136TIP3    H145603   1.790   4.144   3.591
 7136TIP3    H245604   1.867   4.110   3.219
 7137TIP3   OH245605   1.304   4.387   3.414
 7137TIP3    H145606   1.315   4.290   3.456
 7137TIP3    H245607   1.268   4.386   3.144
 7138TIP3   OH245608   0.588   4.173   2.445
 7138TIP3    H145609   0.591   4.256   2.289
 7138TIP3    H245610   0.544   4.114   2.250
 7139TIP3   OH245611   1.325   4.186   1.998
 7139TIP3    H145612   1.375   4.162   2.241
 7139TIP3    H245613   1.379   4.259   1.899
 7140TIP3   OH245614   0.300   4.474   2.571
 7140TIP3    H145615   0.345   4.412   2.757
 7140TIP3    H245616   0.281   4.411   2.361
 7141TIP3   OH245617   0.728   4.590   2.544
 7141TIP3    H145618   0.811   4.546   2.625
 7141TIP3    H245619   0.681   4.514   2.427
 7142TIP3   OH245620   1.801   4.226   4.077
 7142TIP3    H145621   1.767   4.312   3.969
 7142TIP3    H245622   1.808   4.251   4.359
 7143TIP3   OH245623   0.472   4.093   3.666
 7143TIP3    H145624   0.442   4.134   3.414
 7143TIP3    H245625   0.412   4.136   3.855
 7144TIP3   OH245626   1.139   5.026   1.716
 7144TIP3    H145627   1.138   5.028   1.422
 7144TIP3    H245628   1.112   5.119   1.773
 7145TIP3   OH245629   0.716   4.857   3.669
 7145TIP3    H145630   0.653   4.925   3.759
 7145TIP3    H245631   0.782   4.913   3.528
 7146TIP3   OH245632   1.500   4.168   2.604
 7146TIP3    H145633   1.485   4.085   2.736
 7146TIP3    H245634   1.589   4.191   2.700
 7147TIP3   OH245635   0.410   4.283   3.021
 7147TIP3    H145636   0.470   4.337   3.192
 7147TIP3    H245637   0.474   4.250   2.823
 7148TIP3   OH245638   0.559   5.068   3.906
 7148TIP3    H145639   0.554   5.145   3.735
 7148TIP3    H245640   0.470   5.067   4.026
 7149TIP3   OH245641   0.122   4.989   1.260
 7149TIP3    H145642   0.114   5.030   0.993
 7149TIP3    H245643   0.148   5.064   1.428
 7150TIP3   OH245644   1.514   5.178   3.246
 7150TIP3    H145645   1.420   5.198   3.300
 7150TIP3    H245646   1.540   5.264   3.132
 7151TIP3   OH245647   1.495   4.031   3.597
 7151TIP3    H145648   1.417   4.065   3.447
 7151TIP3    H245649   1.568   4.056   3.420
 7152TIP3   OH245650   0.821   3.832   2.847
 7152TIP3    H145651   0.789   3.741   2.862
 7152TIP3    H245652   0.739   3.879   2.943
 7153TIP3   OH245653   1.344   5.360   2.262
 7153TIP3    H145654   1.357   5.277   2.109
 7153TIP3    H245655   1.429   5.404   2.196
 7154TIP3   OH245656   1.442   5.143   1.815
 7154TIP3    H145657   1.437   5.075   1.608
 7154TIP3    H245658   1.425   5.089   2.052
 7155TIP3   OH245659   1.608   5.011   4.419
 7155TIP3    H145660   1.633   4.938   4.233
 7155TIP3    H245661   1.610   5.086   4.233
 7156TIP3   OH245662   1.085   4.727   1.311
 7156TIP3    H145663   1.041   4.813   1.257
 7156TIP3    H245664   1.166   4.731   1.140
 7157TIP3   OH245665   1.109   4.574   0.423
 7157TIP3    H145666   1.180   4.617   0.582
 7157TIP3    H245667   1.151   4.486   0.381
 7158TIP3   OH245668   1.824   4.663   3.759
 7158TIP3    H145669   1.754   4.731   3.759
 7158TIP3    H245670   1.881   4.699   3.543
 7159TIP3   OH245671   1.438   4.697   1.602
 7159TIP3    H145672   1.366   4.730   1.776
 7159TIP3    H245673   1.502   4.662   1.803
 7160TIP3   OH245674   1.442   4.562   4.281
 7160TIP3    H145675   1.406   4.643   4.398
 7160TIP3    H245676   1.375   4.547   4.074
 7161TIP3   OH245677   0.603   4.759   2.076
 7161TIP3    H145678   0.623   4.761   1.791
 7161TIP3    H245679   0.674   4.701   2.193
 7162TIP3   OH245680   0.699   5.089   2.919
 7162TIP3    H145681   0.721   5.103   2.637
 7162TIP3    H245682   0.783   5.057   3.036
 7163TIP3   OH245683   0.621   4.648   3.252
 7163TIP3    H145684   0.672   4.652   3.000
 7163TIP3    H245685   0.659   4.720   3.417
 7164TIP3   OH245686   1.256   5.231   3.441
 7164TIP3    H145687   1.248   5.296   3.657
 7164TIP3    H245688   1.213   5.153   3.567
 7165TIP3   OH245689   0.705   5.114   4.611
 7165TIP3    H145690   0.627   5.147   4.758
 7165TIP3    H245691   0.665   5.096   4.350
 7166TIP3   OH245692   1.309   4.662   0.909
 7166TIP3    H145693   1.362   4.671   1.161
 7166TIP3    H245694   1.367   4.709   0.714
 7167TIP3   OH245695   0.444   4.727   4.293
 7167TIP3    H145696   0.440   4.802   4.485
 7167TIP3    H245697   0.359   4.686   4.359
 7168TIP3   OH245698   1.073   5.309   1.743
 7168TIP3    H145699   1.107   5.355   1.974
 7168TIP3    H245700   1.033   5.379   1.584
 7169TIP3   OH245701   0.517   5.277   4.923
 7169TIP3    H145702   0.508   5.313   4.650
 7169TIP3    H245703   0.424   5.268   5.007
 7170TIP3   OH245704   1.701   3.799   0.930
 7170TIP3    H145705   1.606   3.799   1.017
 7170TIP3    H245706   1.713   3.893   0.879
 7171TIP3   OH245707   0.414   4.663   1.533
 7171TIP3    H145708   0.414   4.730   1.314
 7171TIP3    H245709   0.421   4.579   1.392
 7172TIP3   OH245710   1.785   5.273   0.390
 7172TIP3    H145711   1.813   5.367   0.429
 7172TIP3    H245712   1.867   5.223   0.450
 7173TIP3   OH245713   0.166   4.907   4.131
 7173TIP3    H145714   0.069   4.910   4.092
 7173TIP3    H245715   0.185   4.812   4.098
 7174TIP3   OH245716   0.123   5.255   3.018
 7174TIP3    H145717   0.202   5.198   3.027
 7174TIP3    H245718   0.130   5.297   3.282
 7175TIP3   OH245719   1.888   5.267   4.884
 7175TIP3    H145720   1.870   5.176   4.803
 7175TIP3    H245721   1.799   5.290   4.992
 7176TIP3   OH245722   0.955   5.214   4.551
 7176TIP3    H145723   0.970   5.289   4.734
 7176TIP3    H245724   0.858   5.193   4.581
 7177TIP3   OH245725   1.007   5.576   1.368
 7177TIP3    H145726   1.032   5.606   1.104
 7177TIP3    H245727   1.017   5.660   1.521
 7178TIP3   OH245728   0.408   5.449   2.016
 7178TIP3    H145729   0.422   5.431   2.301
 7178TIP3    H245730   0.311   5.441   1.998
 7179TIP3   OH245731   1.303   5.575   0.630
 7179TIP3    H145732   1.355   5.498   0.531
 7179TIP3    H245733   1.326   5.574   0.915
 7180TIP3   OH245734   1.282   5.512   1.455
 7180TIP3    H145735   1.186   5.506   1.470
 7180TIP3    H245736   1.308   5.425   1.563
 7181TIP3   OH245737   1.563   4.405   4.989
 7181TIP3    H145738   1.508   4.448   4.779
 7181TIP3    H245739   1.568   4.314   4.881
 7182TIP3   OH245740   0.333   5.092   4.368
 7182TIP3    H145741   0.349   5.036   4.605
 7182TIP3    H245742   0.259   5.040   4.248
 7183TIP3   OH245743   0.594   3.937   3.123
 7183TIP3    H145744   0.501   3.938   3.027
 7183TIP3    H245745   0.581   3.984   3.378
 7184TIP3   OH245746   1.077   3.868   4.086
 7184TIP3    H145747   1.107   3.806   4.293
 7184TIP3    H245748   0.979   3.869   4.122
 7185TIP3   OH245749   1.319   4.282   4.503
 7185TIP3    H145750   1.271   4.235   4.722
 7185TIP3    H245751   1.261   4.359   4.464
 7186TIP3   OH245752   1.474   4.776   0.417
 7186TIP3    H145753   1.434   4.779   0.144
 7186TIP3    H245754   1.566   4.798   0.336
 7187TIP3   OH245755   1.019   4.149   0.438
 7187TIP3    H145756   0.965   4.117   0.666
 7187TIP3    H245757   0.972   4.107   0.219
 7188TIP3   OH245758   0.588   4.400   3.516
 7188TIP3    H145759   0.516   4.408   3.714
 7188TIP3    H245760   0.605   4.495   3.453
 7189TIP3   OH245761   0.583   4.413   2.100
 7189TIP3    H145762   0.495   4.377   2.010
 7189TIP3    H245763   0.625   4.422   1.836
 7190TIP3   OH245764   1.158   4.501   1.701
 7190TIP3    H145765   1.122   4.581   1.566
 7190TIP3    H245766   1.214   4.465   1.488
 7191TIP3   OH245767   1.029   4.504   5.019
 7191TIP3    H145768   0.982   4.425   5.115
 7191TIP3    H245769   1.105   4.506   5.199
 7192TIP3   OH245770   1.243   4.429   2.499
 7192TIP3    H145771   1.236   4.515   2.361
 7192TIP3    H245772   1.239   4.371   2.265
 7193TIP3   OH245773   0.348   4.401   3.945
 7193TIP3    H145774   0.371   4.441   4.200
 7193TIP3    H245775   0.309   4.315   4.032
 7194TIP3   OH245776   0.693   4.147   0.084
 7194TIP3    H145777   0.665   4.127   0.354
 7194TIP3    H245778   0.630   4.216   0.009
 7195TIP3   OH245779   0.120   4.211   2.274
 7195TIP3    H145780   0.155   4.152   2.481
 7195TIP3    H245781   0.103   4.152   2.049
 7196TIP3   OH245782   0.114   4.210   0.813
 7196TIP3    H145783   0.186   4.260   0.690
 7196TIP3    H245784   0.047   4.279   0.843
 7197TIP3   OH245785   1.153   4.558   3.813
 7197TIP3    H145786   1.216   4.492   3.702
 7197TIP3    H245787   1.093   4.500   3.972
 7198TIP3   OH245788   0.867   4.185   2.349
 7198TIP3    H145789   0.773   4.185   2.421
 7198TIP3    H245790   0.907   4.131   2.562
 7199TIP3   OH245791   0.348   4.329   1.869
 7199TIP3    H145792   0.269   4.349   1.701
 7199TIP3    H245793   0.348   4.230   1.872
 7200TIP3   OH245794   0.671   4.372   1.311
 7200TIP3    H145795   0.767   4.354   1.311
 7200TIP3    H245796   0.655   4.398   1.029
 7201TIP3   OH245797   1.272   4.114   3.273
 7201TIP3    H145798   1.211   4.099   3.498
 7201TIP3    H245799   1.240   4.049   3.078
 7202TIP3   OH245800   0.631   4.424   0.489
 7202TIP3    H145801   0.537   4.431   0.426
 7202TIP3    H245802   0.674   4.491   0.321
 7203TIP3   OH245803   1.588   5.668   5.202
 7203TIP3    H145804   1.623   5.694   4.941
 7203TIP3    H245805   1.664   5.692   5.367
 7204TIP3   OH245806   0.430   4.916   4.881
 7204TIP3    H145807   0.500   4.928   5.082
 7204TIP3    H245808   0.352   4.904   5.049
 7205TIP3   OH245809   0.954   4.459   2.856
 7205TIP3    H145810   1.034   4.432   2.712
 7205TIP3    H245811   0.925   4.376   2.970
 7206TIP3   OH245812   0.410   4.073   1.857
 7206TIP3    H145813   0.358   3.999   1.974
 7206TIP3    H245814   0.420   4.043   1.581
 7207TIP3   OH245815   0.820   4.266   3.576
 7207TIP3    H145816   0.739   4.322   3.558
 7207TIP3    H245817   0.884   4.328   3.690
 7208TIP3   OH245818   0.899   4.924   1.143
 7208TIP3    H145819   0.823   4.871   1.053
 7208TIP3    H245820   0.865   4.948   1.413
 7209TIP3   OH245821   1.641   4.870   3.759
 7209TIP3    H145822   1.687   4.926   3.555
 7209TIP3    H245823   1.557   4.854   3.624
 7210TIP3   OH245824   1.271   4.190   0.591
 7210TIP3    H145825   1.173   4.194   0.558
 7210TIP3    H245826   1.292   4.279   0.702
 7211TIP3   OH245827   0.990   4.942   4.488
 7211TIP3    H145828   0.945   4.913   4.731
 7211TIP3    H245829   0.984   5.039   4.521
 7212TIP3   OH245830   1.345   4.402   1.023
 7212TIP3    H145831   1.424   4.384   1.185
 7212TIP3    H245832   1.359   4.494   0.936
 7213TIP3   OH245833   0.431   4.842   2.769
 7213TIP3    H145834   0.509   4.898   2.727
 7213TIP3    H245835   0.455   4.794   3.015
 7214TIP3   OH245836   1.127   5.069   0.870
 7214TIP3    H145837   1.086   5.159   0.879
 7214TIP3    H245838   1.048   5.014   0.915
 7215TIP3   OH245839   0.181   4.621   4.281
 7215TIP3    H145840   0.179   4.593   4.563
 7215TIP3    H245841   0.084   4.629   4.242
 7216TIP3   OH245842   0.790   4.658   4.977
 7216TIP3    H145843   0.735   4.597   4.815
 7216TIP3    H245844   0.874   4.608   5.007
 7217TIP3   OH245845   1.293   5.175   4.575
 7217TIP3    H145846   1.212   5.191   4.422
 7217TIP3    H245847   1.268   5.218   4.827
 7218TIP3   OH245848   1.837   4.382   1.065
 7218TIP3    H145849   1.766   4.368   0.867
 7218TIP3    H245850   1.851   4.478   1.014
 7219TIP3   OH245851   1.855   4.982   4.770
 7219TIP3    H145852   1.762   4.990   4.674
 7219TIP3    H245853   1.906   4.982   4.518
 7220TIP3   OH245854   1.699   5.238   1.143
 7220TIP3    H145855   1.613   5.194   1.164
 7220TIP3    H245856   1.709   5.247   0.852
 7221TIP3   OH245857   1.379   4.760   3.180
 7221TIP3    H145858   1.286   4.734   3.132
 7221TIP3    H245859   1.426   4.691   3.030
 7222TIP3   OH245860   0.619   5.182   2.154
 7222TIP3    H145861   0.655   5.271   2.094
 7222TIP3    H245862   0.529   5.190   2.049
 7223TIP3   OH245863   0.242   4.665   0.414
 7223TIP3    H145864   0.292   4.740   0.522
 7223TIP3    H245865   0.156   4.675   0.546
 7224TIP3   OH245866   0.775   4.965   1.881
 7224TIP3    H145867   0.726   5.050   1.908
 7224TIP3    H245868   0.747   4.916   2.118
 7225TIP3   OH245869   0.843   5.358   3.897
 7225TIP3    H145870   0.896   5.434   3.798
 7225TIP3    H245871   0.903   5.319   4.098
 7226TIP3   OH245872   0.671   5.432   1.803
 7226TIP3    H145873   0.576   5.450   1.851
 7226TIP3    H245874   0.709   5.520   1.872
 7227TIP3   OH245875   1.147   4.982   3.741
 7227TIP3    H145876   1.100   4.945   3.972
 7227TIP3    H245877   1.198   4.904   3.660
 7228TIP3   OH245878   1.424   5.081   0.411
 7228TIP3    H145879   1.436   5.033   0.666
 7228TIP3    H245880   1.327   5.074   0.405
 7229TIP3   OH245881   1.474   5.420   4.437
 7229TIP3    H145882   1.383   5.383   4.446
 7229TIP3    H245883   1.471   5.479   4.200
 7230TIP3   OH245884   1.860   5.531   0.540
 7230TIP3    H145885   1.935   5.590   0.486
 7230TIP3    H245886   1.801   5.592   0.693
 7231TIP3   OH245887   0.272   4.174   4.263
 7231TIP3    H145888   0.241   4.205   4.524
 7231TIP3    H245889   0.247   4.080   4.278
 7232TIP3   OH245890   1.496   4.952   1.089
 7232TIP3    H145891   1.487   4.856   1.089
 7232TIP3    H245892   1.594   4.959   1.083
 7233TIP3   OH245893   0.231   5.340   3.747
 7233TIP3    H145894   0.309   5.286   3.813
 7233TIP3    H245895   0.207   5.374   4.008
 7234TIP3   OH245896   0.674   5.133   0.708
 7234TIP3    H145897   0.760   5.101   0.792
 7234TIP3    H245898   0.682   5.228   0.783
 7235TIP3   OH245899   0.357   4.871   0.933
 7235TIP3    H145900   0.272   4.913   1.017
 7235TIP3    H245901   0.401   4.944   0.792
 7236TIP3   OH245902   1.143   4.126   4.017
 7236TIP3    H145903   1.226   4.148   4.143
 7236TIP3    H245904   1.125   4.033   4.107
 7237TIP3   OH245905   1.236   4.067   1.347
 7237TIP3    H145906   1.263   4.124   1.122
 7237TIP3    H245907   1.281   4.110   1.578
 7238TIP3   OH245908   0.988   5.310   0.822
 7238TIP3    H145909   0.903   5.338   0.939
 7238TIP3    H245910   1.031   5.397   0.789
 7239TIP3   OH245911   0.954   4.262   1.629
 7239TIP3    H145912   1.016   4.337   1.665
 7239TIP3    H245913   0.920   4.245   1.902
 7240TIP3   OH245914   1.043   4.376   4.275
 7240TIP3    H145915   1.056   4.399   4.554
 7240TIP3    H245916   1.063   4.280   4.257
 7241TIP3   OH245917   1.021   3.952   1.734
 7241TIP3    H145918   0.982   4.031   1.860
 7241TIP3    H245919   1.100   3.994   1.605
 7242TIP3   OH245920   0.719   5.388   0.948
 7242TIP3    H145921   0.733   5.478   0.837
 7242TIP3    H245922   0.705   5.410   1.230
 7243TIP3   OH245923   0.584   4.084   0.927
 7243TIP3    H145924   0.580   4.169   1.065
 7243TIP3    H245925   0.675   4.052   0.981
 7244TIP3   OH245926   1.584   4.179   4.560
 7244TIP3    H145927   1.489   4.193   4.506
 7244TIP3    H245928   1.620   4.170   4.290
 7245TIP3   OH245929   1.482   4.523   2.754
 7245TIP3    H145930   1.408   4.461   2.730
 7245TIP3    H245931   1.546   4.472   2.913
 7246TIP3   OH245932   0.415   5.112   0.483
 7246TIP3    H145933   0.494   5.140   0.633
 7246TIP3    H245934   0.459   5.054   0.291
 7247TIP3   OH245935   0.332   4.394   0.471
 7247TIP3    H145936   0.315   4.485   0.561
 7247TIP3    H245937   0.258   4.389   0.273
 7248TIP3   OH245938   1.579   5.458   3.237
 7248TIP3    H145939   1.589   5.523   3.018
 7248TIP3    H245940   1.675   5.449   3.297
 7249TIP3   OH245941   0.337   3.889   2.916
 7249TIP3    H145942   0.335   3.856   2.640
 7249TIP3    H245943   0.308   3.805   3.051
 7250TIP3   OH245944   0.217   5.225   1.653
 7250TIP3    H145945   0.133   5.272   1.680
 7250TIP3    H245946   0.271   5.287   1.500
 7251TIP3   OH245947   0.166   5.541   5.103
 7251TIP3    H145948   0.231   5.541   5.322
 7251TIP3    H245949   0.128   5.454   5.154
 7252TIP3   OH245950   0.621   5.450   5.544
 7252TIP3    H145951   0.694   5.399   5.661
 7252TIP3    H245952   0.601   5.402   5.298
 7253TIP3   OH245953   1.016   5.350  -0.042
 7253TIP3    H145954   0.959   5.295   0.129
 7253TIP3    H245955   1.102   5.325   0.069
 7254TIP3   OH245956   1.236   5.293   5.262
 7254TIP3    H145957   1.204   5.205   5.364
 7254TIP3    H245958   1.325   5.297   5.388
 7255TIP3   OH245959   1.427   5.344   0.369
 7255TIP3    H145960   1.445   5.248   0.336
 7255TIP3    H245961   1.466   5.384   0.129
 7256TIP3   OH245962   0.205   4.943   5.379
 7256TIP3    H145963   0.218   4.868   5.559
 7256TIP3    H245964   0.108   4.930   5.343
 7257TIP3   OH245965   0.615   4.884   0.252
 7257TIP3    H145966   0.623   4.849   0.525
 7257TIP3    H245967   0.699   4.931   0.222
 7258TIP3   OH245968   0.783   4.931   5.157
 7258TIP3    H145969   0.754   4.980   4.920
 7258TIP3    H245970   0.768   4.835   5.094
 7259TIP3   OH245971   1.360   4.895   4.524
 7259TIP3    H145972   1.445   4.946   4.521
 7259TIP3    H245973   1.301   4.972   4.554
 7260TIP3   OH245974   0.207   4.586   5.274
 7260TIP3    H145975   0.304   4.589   5.310
 7260TIP3    H245976   0.178   4.635   5.511
 7261TIP3   OH245977   0.683   4.727   0.870
 7261TIP3    H145978   0.625   4.651   0.915
 7261TIP3    H245979   0.747   4.690   0.678
 7262TIP3   OH245980   0.626   4.533   4.395
 7262TIP3    H145981   0.564   4.610   4.401
 7262TIP3    H245982   0.697   4.568   4.218
 7263TIP3   OH245983   0.835   4.586   0.264
 7263TIP3    H145984   0.850   4.532   0.024
 7263TIP3    H245985   0.926   4.581   0.384
 7264TIP3   OH245986   1.149   4.813   5.421
 7264TIP3    H145987   1.208   4.761   5.250
 7264TIP3    H245988   1.102   4.743   5.562
 7265TIP3   OH245989   1.705   4.787  30.012
 7265TIP3    H145990   1.775   4.738  29.871
 7265TIP3    H245991   1.743   4.875  29.994
 7266TIP3   OH245992   0.680   4.283   4.623
 7266TIP3    H145993   0.683   4.219   4.398
 7266TIP3    H245994   0.667   4.370   4.494
 7267TIP3   OH245995   0.707   4.086   4.059
 7267TIP3    H145996   0.761   4.140   3.870
 7267TIP3    H245997   0.622   4.083   3.915
 7268TIP3   OH245998   0.847   4.649   4.023
 7268TIP3    H145999   0.938   4.677   4.050
 7268TIP3    H246000   0.802   4.730   3.930
 7269TIP3   OH246001   1.282   4.408   5.544
 7269TIP3    H146002   1.308   4.315   5.544
 7269TIP3    H246003   1.366   4.454   5.499
 7270TIP3   OH246004   1.439   4.731   5.118
 7270TIP3    H146005   1.404   4.783   4.890
 7270TIP3    H246006   1.533   4.725   5.037
 7271TIP3   OH246007   0.543   4.325   5.316
 7271TIP3    H146008   0.447   4.304   5.313
 7271TIP3    H246009   0.574   4.305   5.043
 7272TIP3   OH246010   0.804   3.840   4.035
 7272TIP3    H146011   0.769   3.931   4.080
 7272TIP3    H246012   0.721   3.794   3.975
 7273TIP3   OH246013   0.884   4.279   5.262
 7273TIP3    H146014   0.828   4.252   5.490
 7273TIP3    H246015   0.820   4.266   5.043
 7274TIP3   OH246016   1.151   4.198   5.058
 7274TIP3    H146017   1.058   4.202   5.145
 7274TIP3    H246018   1.194   4.153   5.286
 7275TIP3   OH246019   1.322   4.054   5.547
 7275TIP3    H146020   1.325   3.956   5.532
 7275TIP3    H246021   1.319   4.068   5.838
 7276TIP3   OH246022   0.305   4.171   5.367
 7276TIP3    H146023   0.327   4.089   5.223
 7276TIP3    H246024   0.287   4.133   5.634
 7277TIP3   OH246025   0.792   3.813   4.872
 7277TIP3    H146026   0.868   3.755   4.929
 7277TIP3    H246027   0.787   3.805   4.578
 7278TIP3   OH246028   0.815   3.905   5.652
 7278TIP3    H146029   0.798   3.873   5.376
 7278TIP3    H246030   0.784   3.998   5.631
 7279TIP3   OH246031   0.756   5.632   0.624
 7279TIP3    H146032   0.852   5.634   0.672
 7279TIP3    H246033   0.751   5.662   0.351
 7280TIP3   OH246034   0.158   5.069   0.465
 7280TIP3    H146035   0.252   5.097   0.477
 7280TIP3    H246036   0.160   5.009   0.234
 7281TIP3   OH246037   0.087   5.585   1.788
 7281TIP3    H146038   0.001   5.629   1.851
 7281TIP3    H246039   0.108   5.546   2.052
 7282TIP3   OH246040   0.172   5.456   2.451
 7282TIP3    H146041   0.147   5.362   2.466
 7282TIP3    H246042   0.214   5.470   2.712
 7283TIP3   OH246043   1.846   5.515   3.252
 7283TIP3    H146044   1.883   5.516   3.519
 7283TIP3    H246045   1.924   5.532   3.084
 7284TIP3   OH246046   1.781   5.475   4.143
 7284TIP3    H146047   1.747   5.394   4.008
 7284TIP3    H246048   1.811   5.436   4.395
 7285TIP3   OH246049   1.667   5.041   5.622
 7285TIP3    H146050   1.575   5.045   5.721
 7285TIP3    H246051   1.703   5.124   5.733
 7286TIP3   OH246052   1.759   4.898   1.161
 7286TIP3    H146053   1.845   4.939   1.227
 7286TIP3    H246054   1.742   4.843   1.398
 7287TIP3   OH246055   1.823   4.704   1.866
 7287TIP3    H146056   1.740   4.658   1.950
 7287TIP3    H246057   1.872   4.711   2.121
 7288TIP3   OH246058   1.791   4.976   3.192
 7288TIP3    H146059   1.858   4.905   3.150
 7288TIP3    H246060   1.833   5.054   3.066
 7289TIP3   OH246061   1.657   5.248   3.936
 7289TIP3    H146062   1.585   5.289   4.089
 7289TIP3    H246063   1.609   5.212   3.699
 7290TIP3   OH246064   1.863   4.680   0.657
 7290TIP3    H146065   1.794   4.698   0.459
 7290TIP3    H246066   1.844   4.750   0.852
 7291TIP3   OH246067   1.635   4.377   0.471
 7291TIP3    H146068   1.609   4.443   0.270
 7291TIP3    H246069   1.691   4.321   0.303
 7292TIP3   OH246070   1.611   4.559   2.067
 7292TIP3    H146071   1.592   4.467   1.995
 7292TIP3    H246072   1.582   4.558   2.349
 7293TIP3   OH246073   0.166   4.830   3.156
 7293TIP3    H146074   0.172   4.780   2.904
 7293TIP3    H246075   0.245   4.799   3.303
 7294TIP3   OH246076   1.719   4.751   4.896
 7294TIP3    H146077   1.768   4.667   4.938
 7294TIP3    H246078   1.789   4.818   4.851
 7295TIP3   OH246079   1.817   4.484   5.013
 7295TIP3    H146080   1.724   4.452   4.995
 7295TIP3    H246081   1.869   4.401   5.058
 7296TIP3   OH246082   1.617   4.150  -0.045
 7296TIP3    H146083   1.674   4.112   0.162
 7296TIP3    H246084   1.529   4.128   0.054
 7297TIP3   OH246085   1.549   4.320   1.485
 7297TIP3    H146086   1.568   4.228   1.575
 7297TIP3    H246087   1.638   4.341   1.392
 7298TIP3   OH246088   1.656   4.358   3.171
 7298TIP3    H146089   1.752   4.379   3.195
 7298TIP3    H246090   1.628   4.371   3.447
 7299TIP3   OH246091   1.662   4.444   3.939
 7299TIP3    H146092   1.581   4.473   4.080
 7299TIP3    H246093   1.705   4.531   3.882
 7300TIP3   OH246094   0.120   4.259   4.875
 7300TIP3    H146095   0.191   4.288   5.061
 7300TIP3    H246096   0.126   4.163   4.899
 7301TIP3   OH246097   1.883   3.866   5.526
 7301TIP3    H146098   1.911   3.791   5.361
 7301TIP3    H246099   1.870   3.936   5.322
 7302TIP3   OH246100   1.646   4.064   1.608
 7302TIP3    H146101   1.683   4.015   1.839
 7302TIP3    H246102   1.597   3.992   1.479
 7303TIP3   OH246103   0.169   4.116   3.084
 7303TIP3    H146104   0.229   4.039   3.096
 7303TIP3    H246105   0.228   4.192   3.114
 7304TIP3   OH246106   0.093   4.421   3.138
 7304TIP3    H146107   0.172   4.415   2.970
 7304TIP3    H246108   0.113   4.491   3.327
 7305TIP3   OH246109   1.812   4.071   5.055
 7305TIP3    H146110   1.741   4.114   5.220
 7305TIP3    H246111   1.762   4.048   4.815
 7306TIP3   OH246112   1.824   4.070   0.519
 7306TIP3    H146113   1.867   4.013   0.321
 7306TIP3    H246114   1.900   4.126   0.597
 7307TIP3   OH246115   0.104   4.050   1.449
 7307TIP3    H146116   0.007   4.041   1.437
 7307TIP3    H246117   0.118   4.096   1.191
 7308TIP3   OH246118   1.531   5.529   2.058
 7308TIP3    H146119   1.596   5.521   1.839
 7308TIP3    H246120   1.570   5.594   2.238
 7309TIP3   OH246121   0.072   3.873   3.954
 7309TIP3    H146122  -0.021   3.852   4.020
 7309TIP3    H246123   0.057   3.930   3.723
 7310TIP3   OH246124   0.249   5.195   5.193
 7310TIP3    H146125   0.198   5.186   4.953
 7310TIP3    H246126   0.265   5.099   5.250
 7311TIP3   OH246127   0.573   5.376   4.107
 7311TIP3    H146128   0.568   5.465   3.987
 7311TIP3    H246129   0.669   5.357   4.086
 7312TIP3   OH246130   0.985   5.492   4.845
 7312TIP3    H146131   0.990   5.466   5.127
 7312TIP3    H246132   1.076   5.524   4.794
 7313TIP3   OH246133   1.210   5.637   4.710
 7313TIP3    H146134   1.291   5.607   4.584
 7313TIP3    H246135   1.242   5.660   4.983
 7314TIP3   OH246136   1.726   3.847   4.455
 7314TIP3    H146137   1.649   3.883   4.317
 7314TIP3    H246138   1.732   3.756   4.341
 7315TIP3   OH246139   0.322   5.666   4.077
 7315TIP3    H146140   0.242   5.711   3.966
 7315TIP3    H246141   0.300   5.662   4.359
 7316TIP3   OH246142   0.551   5.614   3.729
 7316TIP3    H146143   0.458   5.629   3.816
 7316TIP3    H246144   0.554   5.672   3.498
 7317TIP3   OH246145   0.996   5.566   3.543
 7317TIP3    H146146   0.965   5.621   3.324
 7317TIP3    H246147   1.027   5.635   3.729
 7318TIP3   OH246148   1.222   5.446   3.939
 7318TIP3    H146149   1.157   5.482   3.750
 7318TIP3    H246150   1.298   5.504   3.882
 7319TIP3   OH246151   1.473   5.601   3.837
 7319TIP3    H146152   1.491   5.694   3.768
 7319TIP3    H246153   1.518   5.557   3.609
 7320TIP3   OH246154   0.295   5.532   3.183
 7320TIP3    H146155   0.263   5.482   3.420
 7320TIP3    H246156   0.371   5.478   3.090
 7321TIP3   OH246157   0.473   5.387   2.784
 7321TIP3    H146158   0.443   5.297   2.829
 7321TIP3    H246159   0.568   5.384   2.871
 7322TIP3   OH246160   0.718   5.382   3.102
 7322TIP3    H146161   0.766   5.298   3.090
 7322TIP3    H246162   0.732   5.406   3.381
 7323TIP3   OH246163   1.049   3.975   2.778
 7323TIP3    H146164   0.969   3.939   2.901
 7323TIP3    H246165   1.066   3.908   2.577
 7324TIP3   OH246166   1.592   3.785   2.688
 7324TIP3    H146167   1.658   3.844   2.559
 7324TIP3    H246168   1.508   3.818   2.568
 7325TIP3   OH246169   1.757   3.915   2.202
 7325TIP3    H146170   1.821   3.856   2.067
 7325TIP3    H246171   1.815   3.992   2.268
 7326TIP3   OH246172   0.339   3.830   2.106
 7326TIP3    H146173   0.262   3.824   1.926
 7326TIP3    H246174   0.384   3.745   2.049
 7327TIP3   OH246175   0.110   3.863   0.714
 7327TIP3    H146176   0.173   3.914   0.546
 7327TIP3    H246177   0.127   3.906   0.969
 7328TIP3   OH246178   0.746   3.819   2.034
 7328TIP3    H146179   0.830   3.855   1.938
 7328TIP3    H246180   0.755   3.837   2.319
 7329TIP3   OH246181   1.349   3.838   2.382
 7329TIP3    H146182   1.291   3.848   2.154
 7329TIP3    H246183   1.301   3.773   2.547
 7330TIP3   OH246184   1.467   3.833   1.245
 7330TIP3    H146185   1.393   3.895   1.215
 7330TIP3    H246186   1.428   3.766   1.422
 7331TIP3   OH246187   0.197   5.481   0.945
 7331TIP3    H146188   0.107   5.480   1.044
 7331TIP3    H246189   0.207   5.578   0.900
 7332TIP3   OH246190   0.351   3.982   0.372
 7332TIP3    H146191   0.406   3.922   0.219
 7332TIP3    H246192   0.414   4.015   0.567
 7333TIP3   OH246193   0.874   4.066   1.080
 7333TIP3    H146194   0.906   4.000   1.266
 7333TIP3    H246195   0.898   4.147   1.227
 7334TIP3   OH246196   1.043   5.553   0.531
 7334TIP3    H146197   1.140   5.577   0.543
 7334TIP3    H246198   1.041   5.511   0.267
 7335TIP3   OH246199   1.703   5.481   1.500
 7335TIP3    H146200   1.698   5.390   1.386
 7335TIP3    H246201   1.690   5.537   1.263
 7336TIP3   OH246202   0.270   3.910   4.968
 7336TIP3    H146203   0.219   3.826   4.974
 7336TIP3    H246204   0.357   3.881   5.070
 7337TIP3   OH246205   0.500   3.841   5.493
 7337TIP3    H146206   0.593   3.826   5.427
 7337TIP3    H246207   0.478   3.751   5.589
 7338TIP3   OH246208   0.462   5.562   0.387
 7338TIP3    H146209   0.388   5.539   0.561
 7338TIP3    H246210   0.531   5.501   0.483
 7339TIP3   OH246211   1.317   3.782   5.490
 7339TIP3    H146212   1.313   3.717   5.712
 7339TIP3    H246213   1.409   3.764   5.406
 7340TIP3   OH246214   1.655   5.392   5.010
 7340TIP3    H146215   1.593   5.394   4.779
 7340TIP3    H246216   1.638   5.481   5.118
 7341TIP3   OH246217   3.118   4.784   2.067
 7341TIP3    H146218   3.108   4.870   2.202
 7341TIP3    H246219   3.039   4.783   1.899
 7342TIP3   OH246220   2.985   4.661   3.066
 7342TIP3    H146221   2.986   4.622   3.336
 7342TIP3    H246222   2.927   4.600   2.916
 7343TIP3   OH246223   2.195   4.664   3.501
 7343TIP3    H146224   2.190   4.591   3.696
 7343TIP3    H246225   2.270   4.713   3.609
 7344TIP3   OH246226   3.304   4.977   2.640
 7344TIP3    H146227   3.290   4.904   2.829
 7344TIP3    H246228   3.334   5.046   2.823
 7345TIP3   OH246229   2.296   5.129   3.003
 7345TIP3    H146230   2.262   5.039   2.952
 7345TIP3    H246231   2.391   5.107   2.988
 7346TIP3   OH246232   1.972   4.457   1.746
 7346TIP3    H146233   1.929   4.543   1.779
 7346TIP3    H246234   1.917   4.418   1.536
 7347TIP3   OH246235   2.025   4.702   2.472
 7347TIP3    H146236   2.071   4.616   2.514
 7347TIP3    H246237   2.092   4.757   2.340
 7348TIP3   OH246238   3.063   5.527   2.583
 7348TIP3    H146239   3.128   5.467   2.448
 7348TIP3    H246240   3.035   5.468   2.796
 7349TIP3   OH246241   2.797   4.937   3.348
 7349TIP3    H146242   2.827   4.889   3.117
 7349TIP3    H246243   2.884   4.965   3.459
 7350TIP3   OH246244   3.670   4.081   3.375
 7350TIP3    H146245   3.668   4.147   3.591
 7350TIP3    H246246   3.752   4.108   3.243
 7351TIP3   OH246247   3.174   4.389   3.417
 7351TIP3    H146248   3.185   4.293   3.453
 7351TIP3    H246249   3.130   4.393   3.156
 7352TIP3   OH246250   2.447   4.161   2.397
 7352TIP3    H146251   2.461   4.242   2.235
 7352TIP3    H246252   2.406   4.104   2.190
 7353TIP3   OH246253   3.203   4.198   2.034
 7353TIP3    H146254   3.265   4.156   2.229
 7353TIP3    H246255   3.263   4.259   1.896
 7354TIP3   OH246256   2.106   4.449   2.694
 7354TIP3    H146257   2.167   4.392   2.844
 7354TIP3    H246258   2.120   4.413   2.424
 7355TIP3   OH246259   2.593   4.576   2.556
 7355TIP3    H146260   2.676   4.533   2.637
 7355TIP3    H246261   2.548   4.504   2.415
 7356TIP3   OH246262   3.679   4.223   4.095
 7356TIP3    H146263   3.648   4.310   3.981
 7356TIP3    H246264   3.698   4.254   4.365
 7357TIP3   OH246265   2.353   4.088   3.666
 7357TIP3    H146266   2.309   4.133   3.438
 7357TIP3    H246267   2.290   4.110   3.882
 7358TIP3   OH246268   3.038   5.035   1.734
 7358TIP3    H146269   3.037   5.029   1.446
 7358TIP3    H246270   3.009   5.127   1.779
 7359TIP3   OH246271   2.562   4.848   3.597
 7359TIP3    H146272   2.510   4.923   3.708
 7359TIP3    H246273   2.640   4.896   3.489
 7360TIP3   OH246274   3.407   4.123   2.526
 7360TIP3    H146275   3.372   4.062   2.724
 7360TIP3    H246276   3.483   4.160   2.664
 7361TIP3   OH246277   2.297   4.270   3.036
 7361TIP3    H146278   2.360   4.329   3.180
 7361TIP3    H246279   2.352   4.241   2.808
 7362TIP3   OH246280   2.442   5.071   3.942
 7362TIP3    H146281   2.425   5.147   3.771
 7362TIP3    H246282   2.356   5.063   4.083
 7363TIP3   OH246283   2.026   5.004   1.200
 7363TIP3    H146284   2.025   5.058   0.951
 7363TIP3    H246285   2.035   5.073   1.407
 7364TIP3   OH246286   3.400   5.185   3.255
 7364TIP3    H146287   3.306   5.205   3.321
 7364TIP3    H246288   3.422   5.270   3.129
 7365TIP3   OH246289   3.391   4.028   3.576
 7365TIP3    H146290   3.329   4.042   3.351
 7365TIP3    H246291   3.474   4.054   3.447
 7366TIP3   OH246292   2.696   3.826   2.847
 7366TIP3    H146293   2.673   3.735   2.910
 7366TIP3    H246294   2.609   3.870   2.922
 7367TIP3   OH246295   3.233   5.360   2.235
 7367TIP3    H146296   3.252   5.277   2.088
 7367TIP3    H246297   3.315   5.411   2.169
 7368TIP3   OH246298   3.328   5.142   1.824
 7368TIP3    H146299   3.323   5.075   1.611
 7368TIP3    H246300   3.322   5.085   2.058
 7369TIP3   OH246301   3.495   5.013   4.401
 7369TIP3    H146302   3.520   4.939   4.215
 7369TIP3    H246303   3.505   5.088   4.215
 7370TIP3   OH246304   2.955   4.713   1.281
 7370TIP3    H146305   2.911   4.798   1.221
 7370TIP3    H246306   3.040   4.719   1.134
 7371TIP3   OH246307   3.007   4.570   0.417
 7371TIP3    H146308   3.081   4.607   0.579
 7371TIP3    H246309   3.040   4.479   0.369
 7372TIP3   OH246310   3.706   4.658   3.768
 7372TIP3    H146311   3.637   4.727   3.759
 7372TIP3    H246312   3.768   4.693   3.570
 7373TIP3   OH246313   3.324   4.695   1.620
 7373TIP3    H146314   3.254   4.734   1.794
 7373TIP3    H246315   3.388   4.658   1.812
 7374TIP3   OH246316   3.304   4.534   4.332
 7374TIP3    H146317   3.300   4.624   4.440
 7374TIP3    H246318   3.240   4.543   4.116
 7375TIP3   OH246319   2.459   4.772   2.172
 7375TIP3    H146320   2.430   4.746   1.902
 7375TIP3    H246321   2.522   4.699   2.232
 7376TIP3   OH246322   2.598   5.112   2.937
 7376TIP3    H146323   2.603   5.098   2.649
 7376TIP3    H246324   2.673   5.061   3.036
 7377TIP3   OH246325   2.474   4.625   3.276
 7377TIP3    H146326   2.509   4.630   3.000
 7377TIP3    H246327   2.518   4.703   3.399
 7378TIP3   OH246328   3.143   5.224   3.474
 7378TIP3    H146329   3.120   5.279   3.705
 7378TIP3    H246330   3.125   5.134   3.570
 7379TIP3   OH246331   2.607   5.114   4.578
 7379TIP3    H146332   2.535   5.160   4.725
 7379TIP3    H246333   2.561   5.099   4.323
 7380TIP3   OH246334   3.194   4.670   0.930
 7380TIP3    H146335   3.244   4.676   1.188
 7380TIP3    H246336   3.257   4.713   0.738
 7381TIP3   OH246337   2.294   4.717   4.320
 7381TIP3    H146338   2.314   4.790   4.500
 7381TIP3    H246339   2.217   4.678   4.455
 7382TIP3   OH246340   2.945   5.331   1.725
 7382TIP3    H146341   2.964   5.354   1.998
 7382TIP3    H246342   2.916   5.414   1.602
 7383TIP3   OH246343   2.422   5.272   4.905
 7383TIP3    H146344   2.406   5.322   4.656
 7383TIP3    H246345   2.330   5.244   4.959
 7384TIP3   OH246346   3.593   3.800   0.954
 7384TIP3    H146347   3.497   3.800   1.011
 7384TIP3    H246348   3.606   3.894   0.888
 7385TIP3   OH246349   2.362   4.661   1.461
 7385TIP3    H146350   2.316   4.735   1.332
 7385TIP3    H246351   2.319   4.584   1.344
 7386TIP3   OH246352   3.668   5.276   0.420
 7386TIP3    H146353   3.688   5.372   0.453
 7386TIP3    H246354   3.755   5.235   0.453
 7387TIP3   OH246355   1.996   4.940   4.113
 7387TIP3    H146356   1.956   4.931   3.849
 7387TIP3    H246357   2.034   4.850   4.143
 7388TIP3   OH246358   1.964   5.201   3.048
 7388TIP3    H146359   2.060   5.190   3.039
 7388TIP3    H246360   1.956   5.270   3.249
 7389TIP3   OH246361   3.768   5.276   4.893
 7389TIP3    H146362   3.757   5.183   4.818
 7389TIP3    H246363   3.676   5.296   4.992
 7390TIP3   OH246364   2.852   5.222   4.542
 7390TIP3    H146365   2.858   5.304   4.695
 7390TIP3    H246366   2.757   5.196   4.572
 7391TIP3   OH246367   2.899   5.589   1.401
 7391TIP3    H146368   2.944   5.622   1.164
 7391TIP3    H246369   2.901   5.672   1.557
 7392TIP3   OH246370   2.277   5.473   2.037
 7392TIP3    H146371   2.308   5.448   2.307
 7392TIP3    H246372   2.190   5.428   2.037
 7393TIP3   OH246373   3.193   5.567   0.612
 7393TIP3    H146374   3.241   5.488   0.510
 7393TIP3    H246375   3.225   5.567   0.888
 7394TIP3   OH246376   3.167   5.498   1.425
 7394TIP3    H146377   3.076   5.515   1.506
 7394TIP3    H246378   3.181   5.407   1.524
 7395TIP3   OH246379   3.459   4.405   4.977
 7395TIP3    H146380   3.408   4.439   4.749
 7395TIP3    H246381   3.469   4.310   4.908
 7396TIP3   OH246382   2.214   5.070   4.374
 7396TIP3    H146383   2.215   5.030   4.647
 7396TIP3    H246384   2.129   5.033   4.275
 7397TIP3   OH246385   2.474   3.927   3.147
 7397TIP3    H146386   2.385   3.922   3.024
 7397TIP3    H246387   2.450   3.973   3.396
 7398TIP3   OH246388   2.961   3.872   4.092
 7398TIP3    H146389   2.986   3.832   4.347
 7398TIP3    H246390   2.862   3.875   4.104
 7399TIP3   OH246391   3.234   4.271   4.434
 7399TIP3    H146392   3.177   4.262   4.674
 7399TIP3    H246393   3.260   4.365   4.440
 7400TIP3   OH246394   3.355   4.770   0.417
 7400TIP3    H146395   3.318   4.778   0.138
 7400TIP3    H246396   3.449   4.788   0.342
 7401TIP3   OH246397   2.917   4.150   0.426
 7401TIP3    H146398   2.872   4.124   0.675
 7401TIP3    H246399   2.855   4.114   0.231
 7402TIP3   OH246400   2.481   4.379   3.555
 7402TIP3    H146401   2.401   4.393   3.720
 7402TIP3    H246402   2.492   4.470   3.444
 7403TIP3   OH246403   2.467   4.383   1.980
 7403TIP3    H146404   2.371   4.388   1.926
 7403TIP3    H246405   2.505   4.376   1.707
 7404TIP3   OH246406   3.044   4.498   1.719
 7404TIP3    H146407   3.007   4.576   1.575
 7404TIP3    H246408   3.102   4.461   1.515
 7405TIP3   OH246409   2.925   4.499   5.067
 7405TIP3    H146410   2.887   4.419   5.193
 7405TIP3    H246411   3.001   4.512   5.244
 7406TIP3   OH246412   3.123   4.430   2.556
 7406TIP3    H146413   3.129   4.504   2.367
 7406TIP3    H246414   3.127   4.354   2.373
 7407TIP3   OH246415   2.238   4.412   3.909
 7407TIP3    H146416   2.264   4.449   4.167
 7407TIP3    H246417   2.204   4.325   3.984
 7408TIP3   OH246418   2.574   4.161   0.168
 7408TIP3    H146419   2.526   4.131   0.408
 7408TIP3    H246420   2.504   4.184  -0.018
 7409TIP3   OH246421   1.914   4.128   2.292
 7409TIP3    H146422   1.984   4.134   2.490
 7409TIP3    H246423   1.963   4.128   2.040
 7410TIP3   OH246424   2.034   4.202   0.855
 7410TIP3    H146425   2.103   4.258   0.729
 7410TIP3    H246426   1.969   4.273   0.921
 7411TIP3   OH246427   3.032   4.576   3.828
 7411TIP3    H146428   3.090   4.507   3.708
 7411TIP3    H246429   2.979   4.519   4.014
 7412TIP3   OH246430   2.754   4.163   2.337
 7412TIP3    H146431   2.659   4.164   2.385
 7412TIP3    H246432   2.790   4.140   2.598
 7413TIP3   OH246433   2.187   4.321   1.998
 7413TIP3    H146434   2.115   4.353   1.824
 7413TIP3    H246435   2.214   4.235   1.887
 7414TIP3   OH246436   2.589   4.344   1.269
 7414TIP3    H146437   2.684   4.354   1.245
 7414TIP3    H246438   2.552   4.401   1.056
 7415TIP3   OH246439   3.173   4.096   3.171
 7415TIP3    H146440   3.120   4.097   3.417
 7415TIP3    H246441   3.119   4.038   2.997
 7416TIP3   OH246442   2.446   4.466   0.681
 7416TIP3    H146443   2.363   4.444   0.546
 7416TIP3    H246444   2.510   4.477   0.459
 7417TIP3   OH246445   3.475   5.670   5.223
 7417TIP3    H146446   3.505   5.705   4.968
 7417TIP3    H246447   3.552   5.694   5.385
 7418TIP3   OH246448   2.232   4.920   5.058
 7418TIP3    H146449   2.309   4.934   5.235
 7418TIP3    H246450   2.160   4.902   5.250
 7419TIP3   OH246451   2.850   4.435   2.835
 7419TIP3    H146452   2.928   4.414   2.676
 7419TIP3    H246453   2.836   4.355   2.988
 7420TIP3   OH246454   2.299   4.048   1.794
 7420TIP3    H146455   2.246   3.981   1.938
 7420TIP3    H246456   2.344   3.991   1.602
 7421TIP3   OH246457   2.721   4.264   3.570
 7421TIP3    H146458   2.639   4.318   3.573
 7421TIP3    H246459   2.783   4.319   3.723
 7422TIP3   OH246460   2.784   4.933   1.167
 7422TIP3    H146461   2.716   4.873   1.047
 7422TIP3    H246462   2.742   4.944   1.434
 7423TIP3   OH246463   3.520   4.860   3.768
 7423TIP3    H146464   3.565   4.910   3.552
 7423TIP3    H246465   3.430   4.858   3.663
 7424TIP3   OH246466   3.171   4.198   0.585
 7424TIP3    H146467   3.074   4.199   0.570
 7424TIP3    H246468   3.191   4.286   0.696
 7425TIP3   OH246469   2.887   4.953   4.455
 7425TIP3    H146470   2.880   4.921   4.728
 7425TIP3    H246471   2.878   5.050   4.497
 7426TIP3   OH246472   3.225   4.405   1.047
 7426TIP3    H146473   3.309   4.380   1.182
 7426TIP3    H246474   3.244   4.496   0.960
 7427TIP3   OH246475   2.303   4.858   2.838
 7427TIP3    H146476   2.368   4.837   2.625
 7427TIP3    H246477   2.301   4.775   2.988
 7428TIP3   OH246478   2.982   5.088   0.816
 7428TIP3    H146479   2.934   5.174   0.843
 7428TIP3    H246480   2.916   5.028   0.936
 7429TIP3   OH246481   2.009   4.660   4.428
 7429TIP3    H146482   1.983   4.612   4.671
 7429TIP3    H246483   1.948   4.623   4.227
 7430TIP3   OH246484   2.676   4.656   4.995
 7430TIP3    H146485   2.628   4.590   4.836
 7430TIP3    H246486   2.768   4.624   4.971
 7431TIP3   OH246487   3.178   5.181   4.539
 7431TIP3    H146488   3.091   5.187   4.416
 7431TIP3    H246489   3.158   5.221   4.800
 7432TIP3   OH246490   3.725   4.392   1.062
 7432TIP3    H146491   3.654   4.377   0.867
 7432TIP3    H246492   3.737   4.488   1.023
 7433TIP3   OH246493   3.738   4.985   4.767
 7433TIP3    H146494   3.647   5.000   4.665
 7433TIP3    H246495   3.788   4.973   4.515
 7434TIP3   OH246496   3.565   5.236   1.158
 7434TIP3    H146497   3.474   5.202   1.158
 7434TIP3    H246498   3.585   5.246   0.873
 7435TIP3   OH246499   3.267   4.757   3.192
 7435TIP3    H146500   3.174   4.730   3.159
 7435TIP3    H246501   3.311   4.688   3.033
 7436TIP3   OH246502   2.516   5.188   2.106
 7436TIP3    H146503   2.551   5.277   2.049
 7436TIP3    H246504   2.425   5.198   2.013
 7437TIP3   OH246505   2.125   4.662   0.318
 7437TIP3    H146506   2.178   4.721   0.486
 7437TIP3    H246507   2.038   4.667   0.447
 7438TIP3   OH246508   2.655   4.962   1.896
 7438TIP3    H146509   2.608   5.046   1.950
 7438TIP3    H246510   2.611   4.899   2.076
 7439TIP3   OH246511   2.718   5.373   3.954
 7439TIP3    H146512   2.779   5.436   3.825
 7439TIP3    H246513   2.777   5.327   4.143
 7440TIP3   OH246514   2.537   5.450   1.749
 7440TIP3    H146515   2.445   5.460   1.851
 7440TIP3    H246516   2.578   5.532   1.857
 7441TIP3   OH246517   3.030   4.964   3.756
 7441TIP3    H146518   2.979   4.940   3.999
 7441TIP3    H246519   3.078   4.881   3.702
 7442TIP3   OH246520   3.309   5.084   0.429
 7442TIP3    H146521   3.320   5.039   0.690
 7442TIP3    H246522   3.213   5.074   0.411
 7443TIP3   OH246523   3.356   5.419   4.425
 7443TIP3    H146524   3.266   5.381   4.389
 7443TIP3    H246525   3.363   5.483   4.203
 7444TIP3   OH246526   3.750   5.526   0.558
 7444TIP3    H146527   3.818   5.590   0.468
 7444TIP3    H246528   3.690   5.587   0.711
 7445TIP3   OH246529   2.179   4.158   4.281
 7445TIP3    H146530   2.117   4.205   4.455
 7445TIP3    H246531   2.192   4.075   4.431
 7446TIP3   OH246532   3.381   4.949   1.092
 7446TIP3    H146533   3.382   4.852   1.074
 7446TIP3    H246534   3.477   4.964   1.080
 7447TIP3   OH246535   2.123   5.342   3.780
 7447TIP3    H146536   2.183   5.268   3.819
 7447TIP3    H246537   2.125   5.382   4.044
 7448TIP3   OH246538   2.565   5.137   0.783
 7448TIP3    H146539   2.647   5.109   0.915
 7448TIP3    H246540   2.568   5.235   0.828
 7449TIP3   OH246541   2.228   4.864   0.846
 7449TIP3    H146542   2.158   4.910   1.002
 7449TIP3    H246543   2.287   4.937   0.774
 7450TIP3   OH246544   3.031   4.168   3.924
 7450TIP3    H146545   3.099   4.196   4.119
 7450TIP3    H246546   3.003   4.081   4.020
 7451TIP3   OH246547   3.117   4.058   1.374
 7451TIP3    H146548   3.143   4.123   1.170
 7451TIP3    H246549   3.167   4.088   1.611
 7452TIP3   OH246550   2.858   5.327   0.849
 7452TIP3    H146551   2.793   5.356   1.044
 7452TIP3    H246552   2.910   5.409   0.816
 7453TIP3   OH246553   2.853   4.271   1.650
 7453TIP3    H146554   2.905   4.353   1.686
 7453TIP3    H246555   2.823   4.248   1.920
 7454TIP3   OH246556   2.911   4.398   4.299
 7454TIP3    H146557   2.918   4.419   4.587
 7454TIP3    H246558   2.953   4.311   4.266
 7455TIP3   OH246559   2.892   3.950   1.755
 7455TIP3    H146560   2.844   4.018   1.905
 7455TIP3    H246561   2.973   4.000   1.665
 7456TIP3   OH246562   2.584   5.410   0.912
 7456TIP3    H146563   2.635   5.487   0.831
 7456TIP3    H246564   2.558   5.433   1.185
 7457TIP3   OH246565   2.465   4.076   0.921
 7457TIP3    H146566   2.461   4.156   1.083
 7457TIP3    H246567   2.560   4.054   0.951
 7458TIP3   OH246568   3.476   4.159   4.650
 7458TIP3    H146569   3.381   4.159   4.566
 7458TIP3    H246570   3.520   4.174   4.395
 7459TIP3   OH246571   3.369   4.516   2.769
 7459TIP3    H146572   3.289   4.461   2.799
 7459TIP3    H246573   3.435   4.467   2.931
 7460TIP3   OH246574   2.309   5.134   0.519
 7460TIP3    H146575   2.401   5.133   0.627
 7460TIP3    H246576   2.324   5.095   0.258
 7461TIP3   OH246577   2.142   4.395   0.417
 7461TIP3    H146578   2.149   4.493   0.402
 7461TIP3    H246579   2.080   4.378   0.198
 7462TIP3   OH246580   3.461   5.462   3.216
 7462TIP3    H146581   3.459   5.532   3.009
 7462TIP3    H246582   3.558   5.454   3.234
 7463TIP3   OH246583   2.215   3.866   2.952
 7463TIP3    H146584   2.212   3.855   2.661
 7463TIP3    H246585   2.185   3.777   3.039
 7464TIP3   OH246586   2.081   5.269   1.770
 7464TIP3    H146587   1.997   5.317   1.752
 7464TIP3    H246588   2.122   5.299   1.524
 7465TIP3   OH246589   2.013   5.521   5.136
 7465TIP3    H146590   2.077   5.511   5.355
 7465TIP3    H246591   1.984   5.430   5.085
 7466TIP3   OH246592   2.509   5.427   5.592
 7466TIP3    H146593   2.593   5.388   5.673
 7466TIP3    H246594   2.492   5.385   5.334
 7467TIP3   OH246595   2.897   5.352  -0.030
 7467TIP3    H146596   2.838   5.285   0.087
 7467TIP3    H246597   2.980   5.326   0.105
 7468TIP3   OH246598   3.134   5.289   5.265
 7468TIP3    H146599   3.099   5.201   5.358
 7468TIP3    H246600   3.219   5.293   5.415
 7469TIP3   OH246601   3.320   5.343   0.360
 7469TIP3    H146602   3.333   5.246   0.339
 7469TIP3    H246603   3.364   5.379   0.120
 7470TIP3   OH246604   1.987   4.917   5.472
 7470TIP3    H146605   1.941   4.831   5.490
 7470TIP3    H246606   1.953   4.952   5.214
 7471TIP3   OH246607   2.505   4.867   0.189
 7471TIP3    H146608   2.509   4.836   0.468
 7471TIP3    H246609   2.582   4.927   0.201
 7472TIP3   OH246610   2.674   4.921   5.127
 7472TIP3    H146611   2.659   4.966   4.869
 7472TIP3    H246612   2.666   4.825   5.058
 7473TIP3   OH246613   3.244   4.890   4.533
 7473TIP3    H146614   3.330   4.938   4.533
 7473TIP3    H246615   3.184   4.966   4.548
 7474TIP3   OH246616   2.138   4.613   5.325
 7474TIP3    H146617   2.192   4.539   5.421
 7474TIP3    H246618   2.154   4.679   5.538
 7475TIP3   OH246619   2.596   4.753   0.870
 7475TIP3    H146620   2.523   4.703   0.987
 7475TIP3    H246621   2.631   4.692   0.666
 7476TIP3   OH246622   2.482   4.533   4.347
 7476TIP3    H146623   2.422   4.608   4.287
 7476TIP3    H246624   2.560   4.563   4.194
 7477TIP3   OH246625   2.716   4.577   0.291
 7477TIP3    H146626   2.732   4.543   0.021
 7477TIP3    H246627   2.807   4.579   0.402
 7478TIP3   OH246628   3.038   4.809   5.487
 7478TIP3    H146629   3.110   4.766   5.340
 7478TIP3    H246630   3.012   4.739   5.673
 7479TIP3   OH246631   3.586   4.773  30.030
 7479TIP3    H146632   3.644   4.735  29.832
 7479TIP3    H246633   3.621   4.865  30.024
 7480TIP3   OH246634   2.566   4.288   4.620
 7480TIP3    H146635   2.563   4.220   4.401
 7480TIP3    H246636   2.549   4.372   4.473
 7481TIP3   OH246637   2.586   4.088   4.047
 7481TIP3    H146638   2.640   4.137   3.846
 7481TIP3    H246639   2.498   4.091   3.915
 7482TIP3   OH246640   2.707   4.674   4.050
 7482TIP3    H146641   2.794   4.711   3.987
 7482TIP3    H246642   2.650   4.743   3.930
 7483TIP3   OH246643   3.162   4.409   5.541
 7483TIP3    H146644   3.204   4.322   5.505
 7483TIP3    H246645   3.235   4.463   5.646
 7484TIP3   OH246646   3.330   4.724   5.133
 7484TIP3    H146647   3.290   4.777   4.917
 7484TIP3    H246648   3.424   4.722   5.055
 7485TIP3   OH246649   2.420   4.348   5.301
 7485TIP3    H146650   2.334   4.305   5.241
 7485TIP3    H246651   2.476   4.315   5.076
 7486TIP3   OH246652   2.691   3.845   4.044
 7486TIP3    H146653   2.649   3.934   4.071
 7486TIP3    H246654   2.615   3.796   3.945
 7487TIP3   OH246655   2.788   4.258   5.328
 7487TIP3    H146656   2.718   4.234   5.523
 7487TIP3    H246657   2.739   4.247   5.079
 7488TIP3   OH246658   3.051   4.190   4.980
 7488TIP3    H146659   2.965   4.202   5.112
 7488TIP3    H246660   3.096   4.134   5.181
 7489TIP3   OH246661   3.199   4.052   5.517
 7489TIP3    H146662   3.214   3.957   5.556
 7489TIP3    H246663   3.187   4.083   5.793
 7490TIP3   OH246664   2.196   4.176   5.328
 7490TIP3    H146665   2.175   4.097   5.169
 7490TIP3    H246666   2.171   4.147   5.604
 7491TIP3   OH246667   2.663   3.817   4.908
 7491TIP3    H146668   2.733   3.752   4.974
 7491TIP3    H246669   2.661   3.807   4.614
 7492TIP3   OH246670   2.685   3.930   5.715
 7492TIP3    H146671   2.671   3.896   5.442
 7492TIP3    H246672   2.633   4.013   5.715
 7493TIP3   OH246673   2.681   5.679   0.483
 7493TIP3    H146674   2.770   5.639   0.528
 7493TIP3    H246675   2.694   5.764   0.630
 7494TIP3   OH246676   2.026   5.133   0.486
 7494TIP3    H146677   2.124   5.135   0.456
 7494TIP3    H246678   1.998   5.072   0.270
 7495TIP3   OH246679   1.908   5.601   1.854
 7495TIP3    H146680   1.824   5.557   1.770
 7495TIP3    H246681   1.932   5.550   2.094
 7496TIP3   OH246682   1.991   5.435   2.469
 7496TIP3    H146683   1.942   5.355   2.547
 7496TIP3    H246684   2.053   5.451   2.691
 7497TIP3   OH246685   3.733   5.517   3.267
 7497TIP3    H146686   3.767   5.525   3.540
 7497TIP3    H246687   3.794   5.576   3.129
 7498TIP3   OH246688   3.681   5.480   4.152
 7498TIP3    H146689   3.645   5.403   4.002
 7498TIP3    H246690   3.695   5.437   4.410
 7499TIP3   OH246691   3.553   5.049   5.688
 7499TIP3    H146692   3.462   5.063   5.790
 7499TIP3    H246693   3.591   5.139   5.715
 7500TIP3   OH246694   3.648   4.904   1.143
 7500TIP3    H146695   3.736   4.942   1.206
 7500TIP3    H246696   3.631   4.851   1.380
 7501TIP3   OH246697   3.707   4.705   1.863
 7501TIP3    H146698   3.625   4.658   1.938
 7501TIP3    H246699   3.757   4.707   2.115
 7502TIP3   OH246700   3.666   4.969   3.210
 7502TIP3    H146701   3.732   4.896   3.198
 7502TIP3    H246702   3.715   5.045   3.099
 7503TIP3   OH246703   3.549   5.251   3.966
 7503TIP3    H146704   3.479   5.291   4.128
 7503TIP3    H246705   3.500   5.225   3.720
 7504TIP3   OH246706   3.749   4.686   0.687
 7504TIP3    H146707   3.676   4.704   0.501
 7504TIP3    H246708   3.744   4.765   0.855
 7505TIP3   OH246709   3.528   4.372   0.468
 7505TIP3    H146710   3.505   4.434   0.252
 7505TIP3    H246711   3.594   4.320   0.324
 7506TIP3   OH246712   3.501   4.549   2.061
 7506TIP3    H146713   3.484   4.457   1.992
 7506TIP3    H246714   3.469   4.552   2.337
 7507TIP3   OH246715   1.981   4.784   3.246
 7507TIP3    H146716   1.992   4.755   2.964
 7507TIP3    H246717   2.068   4.753   3.348
 7508TIP3   OH246718   3.600   4.753   4.881
 7508TIP3    H146719   3.646   4.666   4.920
 7508TIP3    H246720   3.673   4.815   4.818
 7509TIP3   OH246721   3.698   4.512   4.998
 7509TIP3    H146722   3.609   4.470   5.019
 7509TIP3    H246723   3.758   4.435   5.040
 7510TIP3   OH246724   3.504   4.138  -0.039
 7510TIP3    H146725   3.557   4.101   0.177
 7510TIP3    H246726   3.415   4.127   0.063
 7511TIP3   OH246727   3.435   4.315   1.476
 7511TIP3    H146728   3.462   4.227   1.581
 7511TIP3    H246729   3.517   4.337   1.341
 7512TIP3   OH246730   3.547   4.365   3.201
 7512TIP3    H146731   3.645   4.382   3.234
 7512TIP3    H246732   3.520   4.371   3.480
 7513TIP3   OH246733   3.547   4.445   3.984
 7513TIP3    H146734   3.459   4.471   4.083
 7513TIP3    H246735   3.589   4.532   3.924
 7514TIP3   OH246736   1.979   4.270   4.995
 7514TIP3    H146737   2.064   4.261   5.142
 7514TIP3    H246738   1.938   4.182   5.046
 7515TIP3   OH246739   3.766   3.866   5.550
 7515TIP3    H146740   3.802   3.793   5.382
 7515TIP3    H246741   3.751   3.937   5.346
 7516TIP3   OH246742   3.537   4.067   1.608
 7516TIP3    H146743   3.571   4.016   1.836
 7516TIP3    H246744   3.482   3.998   1.482
 7517TIP3   OH246745   2.071   4.107   3.093
 7517TIP3    H146746   2.112   4.018   3.078
 7517TIP3    H246747   2.145   4.167   3.024
 7518TIP3   OH246748   1.915   4.422   3.240
 7518TIP3    H146749   1.972   4.394   3.018
 7518TIP3    H246750   1.967   4.497   3.330
 7519TIP3   OH246751   3.685   4.043   5.025
 7519TIP3    H146752   3.598   4.088   4.986
 7519TIP3    H246753   3.681   3.981   4.800
 7520TIP3   OH246754   3.713   4.067   0.534
 7520TIP3    H146755   3.756   4.016   0.327
 7520TIP3    H246756   3.788   4.126   0.612
 7521TIP3   OH246757   1.939   4.037   1.446
 7521TIP3    H146758   1.848   4.066   1.473
 7521TIP3    H246759   1.963   4.078   1.188
 7522TIP3   OH246760   3.420   5.529   2.058
 7522TIP3    H146761   3.486   5.515   1.848
 7522TIP3    H246762   3.464   5.591   2.241
 7523TIP3   OH246763   1.939   3.894   3.933
 7523TIP3    H146764   1.872   3.869   4.134
 7523TIP3    H246765   1.894   3.965   3.792
 7524TIP3   OH246766   2.164   5.219   5.121
 7524TIP3    H146767   2.076   5.249   5.034
 7524TIP3    H246768   2.147   5.174   5.370
 7525TIP3   OH246769   2.456   5.373   4.137
 7525TIP3    H146770   2.460   5.462   4.014
 7525TIP3    H246771   2.551   5.349   4.119
 7526TIP3   OH246772   2.865   5.485   4.863
 7526TIP3    H146773   2.873   5.471   5.154
 7526TIP3    H246774   2.953   5.523   4.803
 7527TIP3   OH246775   3.077   5.648   4.752
 7527TIP3    H146776   3.150   5.614   4.590
 7527TIP3    H246777   3.122   5.668   5.010
 7528TIP3   OH246778   3.620   3.836   4.512
 7528TIP3    H146779   3.559   3.870   4.314
 7528TIP3    H246780   3.628   3.742   4.425
 7529TIP3   OH246781   2.183   5.660   4.056
 7529TIP3    H146782   2.106   5.720   4.005
 7529TIP3    H246783   2.186   5.659   4.347
 7530TIP3   OH246784   2.416   5.614   3.735
 7530TIP3    H146785   2.323   5.627   3.828
 7530TIP3    H246786   2.418   5.669   3.495
 7531TIP3   OH246787   2.878   5.573   3.513
 7531TIP3    H146788   2.809   5.629   3.396
 7531TIP3    H246789   2.917   5.635   3.708
 7532TIP3   OH246790   3.112   5.449   3.954
 7532TIP3    H146791   3.048   5.483   3.765
 7532TIP3    H246792   3.191   5.504   3.891
 7533TIP3   OH246793   3.375   5.602   3.831
 7533TIP3    H146794   3.400   5.690   3.735
 7533TIP3    H246795   3.406   5.550   3.597
 7534TIP3   OH246796   2.140   5.494   3.120
 7534TIP3    H146797   2.123   5.438   3.360
 7534TIP3    H246798   2.230   5.463   3.051
 7535TIP3   OH246799   2.363   5.400   2.751
 7535TIP3    H146800   2.351   5.305   2.808
 7535TIP3    H246801   2.449   5.414   2.883
 7536TIP3   OH246802   2.582   5.382   3.174
 7536TIP3    H146803   2.613   5.293   3.099
 7536TIP3    H246804   2.617   5.392   3.447
 7537TIP3   OH246805   2.965   3.981   2.778
 7537TIP3    H146806   2.880   3.960   2.901
 7537TIP3    H246807   2.973   3.910   2.583
 7538TIP3   OH246808   3.474   3.794   2.709
 7538TIP3    H146809   3.536   3.853   2.565
 7538TIP3    H246810   3.387   3.818   2.586
 7539TIP3   OH246811   3.643   3.915   2.196
 7539TIP3    H146812   3.710   3.858   2.058
 7539TIP3    H246813   3.697   3.995   2.265
 7540TIP3   OH246814   2.196   3.829   2.118
 7540TIP3    H146815   2.109   3.821   1.986
 7540TIP3    H246816   2.234   3.740   2.064
 7541TIP3   OH246817   2.065   3.826   0.822
 7541TIP3    H146818   2.122   3.892   0.678
 7541TIP3    H246819   2.025   3.879   1.035
 7542TIP3   OH246820   2.627   3.780   2.064
 7542TIP3    H146821   2.701   3.818   1.920
 7542TIP3    H246822   2.645   3.808   2.340
 7543TIP3   OH246823   3.226   3.843   2.397
 7543TIP3    H146824   3.178   3.853   2.148
 7543TIP3    H246825   3.173   3.775   2.538
 7544TIP3   OH246826   3.358   3.838   1.281
 7544TIP3    H146827   3.276   3.888   1.236
 7544TIP3    H246828   3.322   3.760   1.422
 7545TIP3   OH246829   2.053   5.431   1.077
 7545TIP3    H146830   1.963   5.431   0.969
 7545TIP3    H246831   2.054   5.521   1.179
 7546TIP3   OH246832   2.229   3.973   0.375
 7546TIP3    H146833   2.306   3.914   0.360
 7546TIP3    H246834   2.263   4.051   0.507
 7547TIP3   OH246835   2.771   4.075   1.089
 7547TIP3    H146836   2.813   4.017   1.290
 7547TIP3    H246837   2.784   4.160   1.230
 7548TIP3   OH246838   2.933   5.563   0.537
 7548TIP3    H146839   3.032   5.580   0.549
 7548TIP3    H246840   2.934   5.513   0.285
 7549TIP3   OH246841   3.589   5.480   1.494
 7549TIP3    H146842   3.580   5.389   1.383
 7549TIP3    H246843   3.573   5.535   1.257
 7550TIP3   OH246844   2.152   3.923   4.911
 7550TIP3    H146845   2.103   3.838   4.923
 7550TIP3    H246846   2.222   3.909   5.112
 7551TIP3   OH246847   2.352   3.850   5.484
 7551TIP3    H146848   2.445   3.839   5.397
 7551TIP3    H246849   2.332   3.757   5.547
 7552TIP3   OH246850   2.277   5.519   0.477
 7552TIP3    H146851   2.214   5.581   0.609
 7552TIP3    H246852   2.251   5.437   0.612
 7553TIP3   OH246853   3.220   3.769   5.586
 7553TIP3    H146854   3.220   3.674   5.640
 7553TIP3    H246855   3.297   3.771   5.403
 7554TIP3   OH246856   3.535   5.387   4.986
 7554TIP3    H146857   3.464   5.380   4.788
 7554TIP3    H246858   3.516   5.474   5.100
 7555TIP3   OH246859   4.991   4.790   2.061
 7555TIP3    H146860   4.982   4.881   2.160
 7555TIP3    H246861   4.932   4.794   1.830
 7556TIP3   OH246862   4.893   4.654   3.078
 7556TIP3    H146863   4.880   4.621   3.354
 7556TIP3    H246864   4.821   4.609   2.931
 7557TIP3   OH246865   4.066   4.651   3.537
 7557TIP3    H146866   4.080   4.582   3.741
 7557TIP3    H246867   4.150   4.699   3.546
 7558TIP3   OH246868   5.185   4.976   2.628
 7558TIP3    H146869   5.171   4.904   2.823
 7558TIP3    H246870   5.215   5.046   2.808
 7559TIP3   OH246871   4.191   5.127   2.988
 7559TIP3    H146872   4.161   5.034   2.958
 7559TIP3    H246873   4.286   5.111   2.946
 7560TIP3   OH246874   3.863   4.453   1.746
 7560TIP3    H146875   3.822   4.541   1.776
 7560TIP3    H246876   3.808   4.417   1.530
 7561TIP3   OH246877   3.914   4.701   2.487
 7561TIP3    H146878   3.957   4.613   2.520
 7561TIP3    H246879   3.975   4.748   2.313
 7562TIP3   OH246880   4.955   5.530   2.583
 7562TIP3    H146881   5.024   5.469   2.478
 7562TIP3    H246882   4.909   5.469   2.757
 7563TIP3   OH246883   4.686   4.934   3.360
 7563TIP3    H146884   4.711   4.890   3.114
 7563TIP3    H246885   4.775   4.961   3.459
 7564TIP3   OH246886   5.561   4.086   3.351
 7564TIP3    H146887   5.568   4.143   3.588
 7564TIP3    H246888   5.643   4.110   3.213
 7565TIP3   OH246889   5.058   4.394   3.411
 7565TIP3    H146890   5.079   4.300   3.435
 7565TIP3    H246891   5.025   4.396   3.132
 7566TIP3   OH246892   4.335   4.154   2.391
 7566TIP3    H146893   4.352   4.234   2.229
 7566TIP3    H246894   4.286   4.101   2.196
 7567TIP3   OH246895   5.090   4.198   2.028
 7567TIP3    H146896   5.145   4.159   2.247
 7567TIP3    H246897   5.154   4.260   1.908
 7568TIP3   OH246898   3.979   4.442   2.682
 7568TIP3    H146899   4.041   4.391   2.844
 7568TIP3    H246900   4.002   4.407   2.418
 7569TIP3   OH246901   4.486   4.586   2.586
 7569TIP3    H146902   4.577   4.555   2.643
 7569TIP3    H246903   4.451   4.507   2.451
 7570TIP3   OH246904   5.569   4.228   4.080
 7570TIP3    H146905   5.529   4.311   3.975
 7570TIP3    H246906   5.592   4.258   4.350
 7571TIP3   OH246907   4.249   4.082   3.645
 7571TIP3    H146908   4.197   4.128   3.438
 7571TIP3    H246909   4.190   4.099   3.873
 7572TIP3   OH246910   4.923   5.049   1.761
 7572TIP3    H146911   4.917   5.039   1.467
 7572TIP3    H246912   4.895   5.141   1.785
 7573TIP3   OH246913   4.445   4.853   3.579
 7573TIP3    H146914   4.399   4.928   3.711
 7573TIP3    H246915   4.530   4.896   3.498
 7574TIP3   OH246916   5.266   4.131   2.607
 7574TIP3    H146917   5.263   4.052   2.775
 7574TIP3    H246918   5.355   4.163   2.667
 7575TIP3   OH246919   4.189   4.272   3.054
 7575TIP3    H146920   4.251   4.335   3.186
 7575TIP3    H246921   4.239   4.248   2.811
 7576TIP3   OH246922   4.330   5.066   3.960
 7576TIP3    H146923   4.305   5.137   3.774
 7576TIP3    H246924   4.244   5.053   4.104
 7577TIP3   OH246925   3.914   4.999   1.215
 7577TIP3    H146926   3.911   5.063   0.990
 7577TIP3    H246927   3.921   5.059   1.443
 7578TIP3   OH246928   5.279   5.176   3.240
 7578TIP3    H146929   5.183   5.189   3.294
 7578TIP3    H246930   5.300   5.264   3.138
 7579TIP3   OH246931   5.297   4.003   3.600
 7579TIP3    H146932   5.223   4.010   3.408
 7579TIP3    H246933   5.369   4.048   3.459
 7580TIP3   OH246934   4.584   3.821   2.883
 7580TIP3    H146935   4.559   3.728   2.907
 7580TIP3    H246936   4.496   3.862   2.943
 7581TIP3   OH246937   5.127   5.353   2.298
 7581TIP3    H146938   5.134   5.278   2.109
 7581TIP3    H246939   5.209   5.403   2.226
 7582TIP3   OH246940   5.205   5.148   1.827
 7582TIP3    H146941   5.199   5.085   1.596
 7582TIP3    H246942   5.191   5.084   2.043
 7583TIP3   OH246943   5.377   5.010   4.410
 7583TIP3    H146944   5.404   4.935   4.236
 7583TIP3    H246945   5.388   5.084   4.218
 7584TIP3   OH246946   4.843   4.729   1.278
 7584TIP3    H146947   4.789   4.811   1.236
 7584TIP3    H246948   4.909   4.740   1.068
 7585TIP3   OH246949   4.892   4.558   0.432
 7585TIP3    H146950   4.960   4.608   0.588
 7585TIP3    H246951   4.943   4.477   0.372
 7586TIP3   OH246952   5.592   4.660   3.744
 7586TIP3    H146953   5.522   4.728   3.759
 7586TIP3    H246954   5.649   4.702   3.543
 7587TIP3   OH246955   5.200   4.681   1.659
 7587TIP3    H146956   5.131   4.730   1.815
 7587TIP3    H246957   5.270   4.664   1.857
 7588TIP3   OH246958   5.188   4.544   4.326
 7588TIP3    H146959   5.168   4.622   4.488
 7588TIP3    H246960   5.120   4.554   4.122
 7589TIP3   OH246961   4.346   4.775   2.187
 7589TIP3    H146962   4.323   4.751   1.908
 7589TIP3    H246963   4.407   4.701   2.253
 7590TIP3   OH246964   4.473   5.108   2.916
 7590TIP3    H146965   4.488   5.091   2.634
 7590TIP3    H246966   4.546   5.061   3.051
 7591TIP3   OH246967   4.348   4.633   3.279
 7591TIP3    H146968   4.391   4.629   3.012
 7591TIP3    H246969   4.399   4.707   3.402
 7592TIP3   OH246970   5.025   5.218   3.486
 7592TIP3    H146971   5.010   5.285   3.693
 7592TIP3    H246972   4.997   5.136   3.621
 7593TIP3   OH246973   4.498   5.113   4.587
 7593TIP3    H146974   4.425   5.158   4.734
 7593TIP3    H246975   4.449   5.092   4.338
 7594TIP3   OH246976   5.087   4.643   0.921
 7594TIP3    H146977   5.133   4.667   1.173
 7594TIP3    H246978   5.121   4.710   0.732
 7595TIP3   OH246979   4.173   4.697   4.374
 7595TIP3    H146980   4.195   4.766   4.572
 7595TIP3    H246981   4.088   4.669   4.485
 7596TIP3   OH246982   4.854   5.375   1.725
 7596TIP3    H146983   4.860   5.375   2.013
 7596TIP3    H246984   4.796   5.451   1.656
 7597TIP3   OH246985   4.308   5.271   4.884
 7597TIP3    H146986   4.291   5.315   4.623
 7597TIP3    H246987   4.216   5.250   4.959
 7598TIP3   OH246988   5.476   3.799   0.933
 7598TIP3    H146989   5.378   3.799   0.972
 7598TIP3    H246990   5.488   3.893   0.873
 7599TIP3   OH246991   4.247   4.660   1.464
 7599TIP3    H146992   4.217   4.742   1.335
 7599TIP3    H246993   4.195   4.593   1.323
 7600TIP3   OH246994   5.554   5.274   0.408
 7600TIP3    H146995   5.574   5.369   0.462
 7600TIP3    H246996   5.639   5.230   0.453
 7601TIP3   OH246997   3.882   4.936   4.128
 7601TIP3    H146998   3.832   4.929   3.882
 7601TIP3    H246999   3.928   4.849   4.125
 7602TIP3   OH247000   3.842   5.202   3.117
 7602TIP3    H147001   3.936   5.178   3.108
 7602TIP3    H247002   3.844   5.280   3.288
 7603TIP3   OH247003   5.660   5.270   4.872
 7603TIP3    H147004   5.646   5.177   4.812
 7603TIP3    H247005   5.571   5.291   4.986
 7604TIP3   OH247006   4.742   5.221   4.488
 7604TIP3    H147007   4.745   5.305   4.638
 7604TIP3    H247008   4.649   5.190   4.524
 7605TIP3   OH247009   4.760   5.610   1.347
 7605TIP3    H147010   4.803   5.619   1.089
 7605TIP3    H247011   4.796   5.690   1.485
 7606TIP3   OH247012   4.158   5.464   2.025
 7606TIP3    H147013   4.185   5.440   2.301
 7606TIP3    H247014   4.067   5.427   2.019
 7607TIP3   OH247015   5.064   5.565   0.657
 7607TIP3    H147016   5.118   5.494   0.531
 7607TIP3    H247017   5.082   5.553   0.945
 7608TIP3   OH247018   5.062   5.519   1.467
 7608TIP3    H147019   4.968   5.493   1.476
 7608TIP3    H247020   5.098   5.447   1.632
 7609TIP3   OH247021   5.371   4.414   4.950
 7609TIP3    H147022   5.308   4.445   4.746
 7609TIP3    H247023   5.364   4.317   4.920
 7610TIP3   OH247024   4.100   5.060   4.383
 7610TIP3    H147025   4.101   5.021   4.653
 7610TIP3    H247026   4.013   5.029   4.281
 7611TIP3   OH247027   4.353   3.909   3.120
 7611TIP3    H147028   4.265   3.911   2.997
 7611TIP3    H247029   4.339   3.971   3.342
 7612TIP3   OH247030   4.845   3.874   4.080
 7612TIP3    H147031   4.876   3.835   4.335
 7612TIP3    H247032   4.747   3.868   4.095
 7613TIP3   OH247033   5.133   4.266   4.488
 7613TIP3    H147034   5.065   4.232   4.680
 7613TIP3    H247035   5.096   4.351   4.398
 7614TIP3   OH247036   5.253   4.768   0.441
 7614TIP3    H147037   5.203   4.781   0.186
 7614TIP3    H247038   5.345   4.786   0.348
 7615TIP3   OH247039   4.791   4.148   0.423
 7615TIP3    H147040   4.736   4.123   0.657
 7615TIP3    H247041   4.747   4.097   0.216
 7616TIP3   OH247042   4.373   4.389   3.561
 7616TIP3    H147043   4.289   4.386   3.714
 7616TIP3    H247044   4.369   4.481   3.459
 7617TIP3   OH247045   4.355   4.369   1.962
 7617TIP3    H147046   4.259   4.382   1.923
 7617TIP3    H247047   4.390   4.364   1.689
 7618TIP3   OH247048   4.924   4.503   1.698
 7618TIP3    H147049   4.892   4.586   1.572
 7618TIP3    H247050   4.987   4.475   1.491
 7619TIP3   OH247051   4.815   4.496   5.022
 7619TIP3    H147052   4.754   4.427   5.124
 7619TIP3    H247053   4.883   4.494   5.226
 7620TIP3   OH247054   5.013   4.430   2.544
 7620TIP3    H147055   5.012   4.513   2.388
 7620TIP3    H247056   5.010   4.366   2.325
 7621TIP3   OH247057   4.137   4.397   3.930
 7621TIP3    H147058   4.160   4.436   4.185
 7621TIP3    H247059   4.097   4.312   4.014
 7622TIP3   OH247060   4.458   4.188   0.138
 7622TIP3    H147061   4.418   4.153   0.384
 7622TIP3    H247062   4.387   4.177  -0.054
 7623TIP3   OH247063   3.799   4.130   2.295
 7623TIP3    H147064   3.867   4.136   2.499
 7623TIP3    H247065   3.849   4.128   2.046
 7624TIP3   OH247066   3.915   4.206   0.846
 7624TIP3    H147067   3.995   4.249   0.741
 7624TIP3    H247068   3.858   4.285   0.882
 7625TIP3   OH247069   4.921   4.586   3.852
 7625TIP3    H147070   4.976   4.520   3.711
 7625TIP3    H247071   4.856   4.526   3.981
 7626TIP3   OH247072   4.652   4.160   2.328
 7626TIP3    H147073   4.555   4.165   2.370
 7626TIP3    H247074   4.686   4.115   2.565
 7627TIP3   OH247075   4.082   4.317   2.001
 7627TIP3    H147076   4.008   4.351   1.839
 7627TIP3    H247077   4.102   4.229   1.884
 7628TIP3   OH247078   4.484   4.321   1.221
 7628TIP3    H147079   4.575   4.350   1.272
 7628TIP3    H247080   4.446   4.391   1.047
 7629TIP3   OH247081   5.061   4.082   3.225
 7629TIP3    H147082   4.992   4.086   3.429
 7629TIP3    H247083   5.017   4.043   2.994
 7630TIP3   OH247084   4.337   4.463   0.648
 7630TIP3    H147085   4.256   4.435   0.510
 7630TIP3    H247086   4.401   4.466   0.429
 7631TIP3   OH247087   5.351   5.677   5.232
 7631TIP3    H147088   5.375   5.732   5.004
 7631TIP3    H247089   5.434   5.682   5.382
 7632TIP3   OH247090   4.143   4.889   5.067
 7632TIP3    H147091   4.203   4.927   5.271
 7632TIP3    H247092   4.059   4.881   5.217
 7633TIP3   OH247093   4.724   4.472   2.796
 7633TIP3    H147094   4.802   4.429   2.682
 7633TIP3    H247095   4.704   4.418   3.027
 7634TIP3   OH247096   4.176   4.049   1.806
 7634TIP3    H147097   4.116   3.987   1.950
 7634TIP3    H247098   4.215   3.989   1.611
 7635TIP3   OH247099   4.618   4.271   3.576
 7635TIP3    H147100   4.534   4.323   3.597
 7635TIP3    H247101   4.676   4.323   3.750
 7636TIP3   OH247102   4.660   4.921   1.176
 7636TIP3    H147103   4.589   4.865   1.068
 7636TIP3    H247104   4.623   4.945   1.437
 7637TIP3   OH247105   5.409   4.867   3.756
 7637TIP3    H147106   5.456   4.920   3.549
 7637TIP3    H247107   5.325   4.854   3.618
 7638TIP3   OH247108   5.046   4.195   0.555
 7638TIP3    H147109   4.948   4.203   0.552
 7638TIP3    H247110   5.073   4.277   0.696
 7639TIP3   OH247111   4.773   4.930   4.446
 7639TIP3    H147112   4.748   4.865   4.644
 7639TIP3    H247113   4.755   5.016   4.569
 7640TIP3   OH247114   5.111   4.389   1.050
 7640TIP3    H147115   5.194   4.365   1.188
 7640TIP3    H247116   5.128   4.482   0.966
 7641TIP3   OH247117   4.187   4.860   2.838
 7641TIP3    H147118   4.247   4.845   2.610
 7641TIP3    H247119   4.195   4.777   2.988
 7642TIP3   OH247120   4.877   5.093   0.990
 7642TIP3    H147121   4.801   5.152   0.948
 7642TIP3    H247122   4.879   5.038   0.747
 7643TIP3   OH247123   3.887   4.673   4.437
 7643TIP3    H147124   3.865   4.636   4.698
 7643TIP3    H247125   3.825   4.626   4.260
 7644TIP3   OH247126   4.577   4.666   4.935
 7644TIP3    H147127   4.512   4.611   4.791
 7644TIP3    H247128   4.604   4.601   5.142
 7645TIP3   OH247129   5.064   5.188   4.533
 7645TIP3    H147130   4.978   5.198   4.398
 7645TIP3    H247131   5.043   5.228   4.794
 7646TIP3   OH247132   5.628   4.384   1.011
 7646TIP3    H147133   5.548   4.377   0.840
 7646TIP3    H247134   5.651   4.477   0.960
 7647TIP3   OH247135   5.614   4.968   4.788
 7647TIP3    H147136   5.519   4.988   4.722
 7647TIP3    H247137   5.656   4.963   4.524
 7648TIP3   OH247138   5.453   5.239   1.137
 7648TIP3    H147139   5.361   5.206   1.143
 7648TIP3    H247140   5.471   5.244   0.846
 7649TIP3   OH247141   5.154   4.752   3.168
 7649TIP3    H147142   5.059   4.735   3.135
 7649TIP3    H247143   5.191   4.676   3.015
 7650TIP3   OH247144   4.403   5.194   2.070
 7650TIP3    H147145   4.443   5.273   1.938
 7650TIP3    H247146   4.309   5.215   2.037
 7651TIP3   OH247147   4.011   4.658   0.324
 7651TIP3    H147148   4.061   4.716   0.507
 7651TIP3    H247149   3.922   4.663   0.444
 7652TIP3   OH247150   4.542   4.960   1.905
 7652TIP3    H147151   4.494   5.044   1.953
 7652TIP3    H247152   4.497   4.898   2.085
 7653TIP3   OH247153   4.609   5.382   3.948
 7653TIP3    H147154   4.670   5.442   3.807
 7653TIP3    H247155   4.670   5.331   4.116
 7654TIP3   OH247156   4.431   5.450   1.788
 7654TIP3    H147157   4.337   5.460   1.857
 7654TIP3    H247158   4.463   5.539   1.875
 7655TIP3   OH247159   4.918   4.964   3.762
 7655TIP3    H147160   4.864   4.937   3.999
 7655TIP3    H247161   4.969   4.882   3.711
 7656TIP3   OH247162   5.197   5.077   0.447
 7656TIP3    H147163   5.173   5.081   0.729
 7656TIP3    H247164   5.130   5.008   0.381
 7657TIP3   OH247165   5.238   5.418   4.437
 7657TIP3    H147166   5.150   5.380   4.377
 7657TIP3    H247167   5.251   5.484   4.218
 7658TIP3   OH247168   5.637   5.522   0.567
 7658TIP3    H147169   5.704   5.585   0.471
 7658TIP3    H247170   5.579   5.585   0.720
 7659TIP3   OH247171   4.060   4.150   4.236
 7659TIP3    H147172   3.978   4.195   4.314
 7659TIP3    H247173   4.061   4.076   4.425
 7660TIP3   OH247174   5.258   4.967   1.197
 7660TIP3    H147175   5.226   4.889   1.053
 7660TIP3    H247176   5.352   4.962   1.116
 7661TIP3   OH247177   4.012   5.346   3.804
 7661TIP3    H147178   4.083   5.281   3.840
 7661TIP3    H247179   4.023   5.399   4.047
 7662TIP3   OH247180   4.440   5.139   0.771
 7662TIP3    H147181   4.526   5.102   0.858
 7662TIP3    H247182   4.452   5.234   0.846
 7663TIP3   OH247183   4.109   4.853   0.849
 7663TIP3    H147184   4.039   4.900   1.002
 7663TIP3    H247185   4.164   4.929   0.762
 7664TIP3   OH247186   4.917   4.147   4.095
 7664TIP3    H147187   5.011   4.151   4.164
 7664TIP3    H247188   4.895   4.053   4.143
 7665TIP3   OH247189   5.021   4.039   1.401
 7665TIP3    H147190   5.024   4.112   1.206
 7665TIP3    H247191   5.054   4.085   1.644
 7666TIP3   OH247192   4.730   5.329   0.843
 7666TIP3    H147193   4.662   5.366   1.017
 7666TIP3    H247194   4.771   5.410   0.738
 7667TIP3   OH247195   4.741   4.264   1.620
 7667TIP3    H147196   4.791   4.347   1.638
 7667TIP3    H247197   4.718   4.242   1.899
 7668TIP3   OH247198   4.793   4.398   4.257
 7668TIP3    H147199   4.788   4.430   4.536
 7668TIP3    H247200   4.825   4.306   4.293
 7669TIP3   OH247201   4.772   3.951   1.737
 7669TIP3    H147202   4.739   4.029   1.884
 7669TIP3    H247203   4.860   3.985   1.653
 7670TIP3   OH247204   4.463   5.408   0.969
 7670TIP3    H147205   4.492   5.494   0.858
 7670TIP3    H247206   4.448   5.431   1.251
 7671TIP3   OH247207   4.359   4.093   0.909
 7671TIP3    H147208   4.364   4.175   1.065
 7671TIP3    H247209   4.450   4.061   0.957
 7672TIP3   OH247210   5.368   4.151   4.596
 7672TIP3    H147211   5.277   4.183   4.527
 7672TIP3    H247212   5.413   4.157   4.335
 7673TIP3   OH247213   5.252   4.519   2.784
 7673TIP3    H147214   5.177   4.458   2.757
 7673TIP3    H247215   5.318   4.464   2.928
 7674TIP3   OH247216   4.182   5.102   0.579
 7674TIP3    H147217   4.272   5.129   0.675
 7674TIP3    H247218   4.201   5.094   0.294
 7675TIP3   OH247219   4.034   4.391   0.393
 7675TIP3    H147220   4.032   4.489   0.408
 7675TIP3    H247221   3.964   4.373   0.198
 7676TIP3   OH247222   5.343   5.459   3.222
 7676TIP3    H147223   5.336   5.526   3.009
 7676TIP3    H247224   5.441   5.452   3.231
 7677TIP3   OH247225   4.086   3.869   2.967
 7677TIP3    H147226   4.082   3.858   2.673
 7677TIP3    H247227   4.066   3.778   3.054
 7678TIP3   OH247228   3.952   5.252   1.770
 7678TIP3    H147229   3.876   5.311   1.767
 7678TIP3    H247230   3.997   5.287   1.536
 7679TIP3   OH247231   3.896   5.547   5.133
 7679TIP3    H147232   3.969   5.528   5.319
 7679TIP3    H247233   3.863   5.457   5.082
 7680TIP3   OH247234   4.380   5.423   5.517
 7680TIP3    H147235   4.466   5.387   5.607
 7680TIP3    H247236   4.368   5.376   5.262
 7681TIP3   OH247237   4.789   5.339  -0.060
 7681TIP3    H147238   4.728   5.264  -0.066
 7681TIP3    H247239   4.853   5.302   0.132
 7682TIP3   OH247240   5.022   5.280   5.277
 7682TIP3    H147241   4.993   5.193   5.394
 7682TIP3    H247242   5.108   5.291   5.412
 7683TIP3   OH247243   5.188   5.339   0.369
 7683TIP3    H147244   5.190   5.240   0.354
 7683TIP3    H247245   5.230   5.367   0.117
 7684TIP3   OH247246   3.878   4.917   5.412
 7684TIP3    H147247   3.837   4.829   5.430
 7684TIP3    H247248   3.835   4.952   5.169
 7685TIP3   OH247249   4.391   4.873   0.150
 7685TIP3    H147250   4.354   4.834   0.390
 7685TIP3    H247251   4.466   4.923   0.261
 7686TIP3   OH247252   4.565   4.926   5.163
 7686TIP3    H147253   4.558   4.987   4.929
 7686TIP3    H247254   4.574   4.837   5.037
 7687TIP3   OH247255   5.120   4.890   4.569
 7687TIP3    H147256   5.199   4.948   4.545
 7687TIP3    H247257   5.050   4.957   4.548
 7688TIP3   OH247258   4.003   4.629   5.325
 7688TIP3    H147259   4.076   4.570   5.244
 7688TIP3    H247260   4.047   4.679   5.541
 7689TIP3   OH247261   4.470   4.736   0.867
 7689TIP3    H147262   4.414   4.669   0.996
 7689TIP3    H247263   4.517   4.683   0.663
 7690TIP3   OH247264   4.362   4.521   4.410
 7690TIP3    H147265   4.301   4.595   4.350
 7690TIP3    H247266   4.435   4.542   4.230
 7691TIP3   OH247267   4.604   4.589   0.285
 7691TIP3    H147268   4.617   4.570   0.006
 7691TIP3    H247269   4.698   4.586   0.384
 7692TIP3   OH247270   4.902   4.789   5.499
 7692TIP3    H147271   4.973   4.781   5.301
 7692TIP3    H247272   4.841   4.719   5.427
 7693TIP3   OH247273   5.490   4.764  30.099
 7693TIP3    H147274   5.504   4.719  29.844
 7693TIP3    H247275   5.522   4.854  30.033
 7694TIP3   OH247276   4.396   4.233   4.671
 7694TIP3    H147277   4.444   4.182   4.461
 7694TIP3    H247278   4.388   4.321   4.554
 7695TIP3   OH247279   4.491   4.099   4.047
 7695TIP3    H147280   4.549   4.139   3.843
 7695TIP3    H247281   4.404   4.110   3.915
 7696TIP3   OH247282   4.595   4.660   4.011
 7696TIP3    H147283   4.676   4.694   4.128
 7696TIP3    H247284   4.546   4.739   3.927
 7697TIP3   OH247285   5.075   4.392   5.670
 7697TIP3    H147286   5.066   4.319   5.481
 7697TIP3    H247287   5.145   4.449   5.565
 7698TIP3   OH247288   5.207   4.712   5.115
 7698TIP3    H147289   5.177   4.772   4.896
 7698TIP3    H247290   5.303   4.711   5.052
 7699TIP3   OH247291   4.226   4.439   5.301
 7699TIP3    H147292   4.214   4.353   5.169
 7699TIP3    H247293   4.323   4.448   5.289
 7700TIP3   OH247294   4.575   3.845   4.002
 7700TIP3    H147295   4.540   3.935   4.065
 7700TIP3    H247296   4.493   3.798   3.948
 7701TIP3   OH247297   4.702   4.231   5.181
 7701TIP3    H147298   4.673   4.266   5.442
 7701TIP3    H247299   4.616   4.231   5.052
 7702TIP3   OH247300   4.964   4.162   5.028
 7702TIP3    H147301   4.866   4.168   5.046
 7702TIP3    H247302   4.984   4.115   5.280
 7703TIP3   OH247303   5.081   4.031   5.664
 7703TIP3    H147304   5.097   3.944   5.532
 7703TIP3    H247305   5.093   4.010   5.943
 7704TIP3   OH247306   4.054   4.189   5.355
 7704TIP3    H147307   4.075   4.113   5.187
 7704TIP3    H247308   4.068   4.153   5.628
 7705TIP3   OH247309   4.539   3.803   4.884
 7705TIP3    H147310   4.612   3.747   4.989
 7705TIP3    H247311   4.554   3.792   4.599
 7706TIP3   OH247312   4.577   3.922   5.655
 7706TIP3    H147313   4.558   3.894   5.379
 7706TIP3    H247314   4.547   4.016   5.661
 7707TIP3   OH247315   4.539   5.640   0.630
 7707TIP3    H147316   4.636   5.633   0.633
 7707TIP3    H247317   4.522   5.676   0.369
 7708TIP3   OH247318   3.917   5.132   0.492
 7708TIP3    H147319   4.014   5.120   0.528
 7708TIP3    H247320   3.899   5.074   0.267
 7709TIP3   OH247321   3.795   5.604   1.869
 7709TIP3    H147322   3.716   5.556   1.776
 7709TIP3    H247323   3.822   5.550   2.103
 7710TIP3   OH247324   3.879   5.439   2.469
 7710TIP3    H147325   3.823   5.362   2.541
 7710TIP3    H247326   3.935   5.451   2.709
 7711TIP3   OH247327   5.619   5.513   3.258
 7711TIP3    H147328   5.650   5.524   3.531
 7711TIP3    H247329   5.689   5.559   3.111
 7712TIP3   OH247330   5.561   5.477   4.170
 7712TIP3    H147331   5.524   5.402   4.014
 7712TIP3    H247332   5.589   5.428   4.410
 7713TIP3   OH247333   5.441   5.047   5.634
 7713TIP3    H147334   5.346   5.052   5.685
 7713TIP3    H247335   5.473   5.127   5.772
 7714TIP3   OH247336   5.529   4.898   1.161
 7714TIP3    H147337   5.615   4.937   1.242
 7714TIP3    H247338   5.511   4.839   1.386
 7715TIP3   OH247339   5.589   4.710   1.884
 7715TIP3    H147340   5.509   4.660   1.968
 7715TIP3    H247341   5.640   4.710   2.136
 7716TIP3   OH247342   5.561   4.975   3.189
 7716TIP3    H147343   5.627   4.905   3.144
 7716TIP3    H247344   5.609   5.056   3.114
 7717TIP3   OH247345   5.424   5.253   3.942
 7717TIP3    H147346   5.356   5.292   4.113
 7717TIP3    H247347   5.373   5.227   3.702
 7718TIP3   OH247348   5.652   4.687   0.705
 7718TIP3    H147349   5.578   4.707   0.519
 7718TIP3    H247350   5.643   4.764   0.885
 7719TIP3   OH247351   5.407   4.380   0.480
 7719TIP3    H147352   5.390   4.446   0.270
 7719TIP3    H247353   5.446   4.312   0.306
 7720TIP3   OH247354   5.388   4.553   2.094
 7720TIP3    H147355   5.359   4.464   2.019
 7720TIP3    H247356   5.356   4.557   2.373
 7721TIP3   OH247357   3.866   4.792   3.270
 7721TIP3    H147358   3.877   4.757   2.997
 7721TIP3    H247359   3.949   4.754   3.387
 7722TIP3   OH247360   5.472   4.742   4.878
 7722TIP3    H147361   5.527   4.661   4.917
 7722TIP3    H247362   5.540   4.811   4.845
 7723TIP3   OH247363   5.619   4.514   5.001
 7723TIP3    H147364   5.528   4.478   4.986
 7723TIP3    H247365   5.669   4.430   5.040
 7724TIP3   OH247366   5.385   4.148  -0.012
 7724TIP3    H147367   5.440   4.097   0.174
 7724TIP3    H247368   5.295   4.124   0.066
 7725TIP3   OH247369   5.322   4.304   1.497
 7725TIP3    H147370   5.355   4.215   1.575
 7725TIP3    H247371   5.405   4.342   1.404
 7726TIP3   OH247372   5.434   4.364   3.168
 7726TIP3    H147373   5.532   4.378   3.198
 7726TIP3    H247374   5.409   4.369   3.450
 7727TIP3   OH247375   5.429   4.447   3.936
 7727TIP3    H147376   5.337   4.475   3.969
 7727TIP3    H247377   5.475   4.533   3.903
 7728TIP3   OH247378   3.818   4.277   5.031
 7728TIP3    H147379   3.901   4.269   5.184
 7728TIP3    H247380   3.781   4.187   5.037
 7729TIP3   OH247381   5.684   3.851   5.607
 7729TIP3    H147382   5.725   3.787   5.418
 7729TIP3    H247383   5.656   3.916   5.403
 7730TIP3   OH247384   5.451   4.060   1.587
 7730TIP3    H147385   5.473   4.009   1.833
 7730TIP3    H247386   5.388   4.000   1.464
 7731TIP3   OH247387   3.963   4.110   3.099
 7731TIP3    H147388   4.002   4.020   3.084
 7731TIP3    H247389   4.037   4.169   3.027
 7732TIP3   OH247390   3.802   4.418   3.255
 7732TIP3    H147391   3.851   4.392   3.015
 7732TIP3    H247392   3.854   4.497   3.324
 7733TIP3   OH247393   5.602   4.033   5.085
 7733TIP3    H147394   5.528   4.090   5.172
 7733TIP3    H247395   5.565   4.002   4.833
 7734TIP3   OH247396   5.592   4.053   0.498
 7734TIP3    H147397   5.640   3.990   0.330
 7734TIP3    H247398   5.662   4.119   0.552
 7735TIP3   OH247399   3.824   4.038   1.440
 7735TIP3    H147400   3.734   4.069   1.482
 7735TIP3    H247401   3.845   4.079   1.179
 7736TIP3   OH247402   5.299   5.533   2.052
 7736TIP3    H147403   5.364   5.514   1.842
 7736TIP3    H247404   5.343   5.597   2.229
 7737TIP3   OH247405   3.827   3.895   3.942
 7737TIP3    H147406   3.766   3.848   4.119
 7737TIP3    H247407   3.769   3.955   3.792
 7738TIP3   OH247408   4.052   5.226   5.139
 7738TIP3    H147409   3.964   5.254   5.043
 7738TIP3    H247410   4.034   5.186   5.394
 7739TIP3   OH247411   4.339   5.368   4.125
 7739TIP3    H147412   4.341   5.459   4.014
 7739TIP3    H247413   4.434   5.348   4.119
 7740TIP3   OH247414   4.748   5.491   4.881
 7740TIP3    H147415   4.764   5.453   5.148
 7740TIP3    H247416   4.839   5.519   4.809
 7741TIP3   OH247417   4.976   5.615   4.683
 7741TIP3    H147418   5.052   5.563   4.590
 7741TIP3    H247419   5.009   5.649   4.941
 7742TIP3   OH247420   5.487   3.843   4.494
 7742TIP3    H147421   5.415   3.889   4.356
 7742TIP3    H247422   5.501   3.764   4.326
 7743TIP3   OH247423   4.075   5.662   4.032
 7743TIP3    H147424   3.997   5.711   3.936
 7743TIP3    H247425   4.066   5.676   4.320
 7744TIP3   OH247426   4.311   5.615   3.744
 7744TIP3    H147427   4.217   5.629   3.825
 7744TIP3    H247428   4.317   5.678   3.522
 7745TIP3   OH247429   4.784   5.571   3.477
 7745TIP3    H147430   4.730   5.621   3.288
 7745TIP3    H247431   4.811   5.643   3.666
 7746TIP3   OH247432   4.994   5.444   3.945
 7746TIP3    H147433   4.927   5.485   3.768
 7746TIP3    H247434   5.070   5.500   3.870
 7747TIP3   OH247435   5.259   5.607   3.849
 7747TIP3    H147436   5.266   5.698   3.750
 7747TIP3    H247437   5.298   5.558   3.621
 7748TIP3   OH247438   4.036   5.503   3.138
 7748TIP3    H147439   4.014   5.441   3.360
 7748TIP3    H247440   4.124   5.469   3.051
 7749TIP3   OH247441   4.244   5.396   2.754
 7749TIP3    H147442   4.234   5.302   2.829
 7749TIP3    H247443   4.333   5.414   2.871
 7750TIP3   OH247444   4.476   5.391   3.132
 7750TIP3    H147445   4.505   5.299   3.081
 7750TIP3    H247446   4.500   5.402   3.414
 7751TIP3   OH247447   4.831   3.980   2.769
 7751TIP3    H147448   4.755   3.945   2.916
 7751TIP3    H247449   4.848   3.908   2.580
 7752TIP3   OH247450   5.358   3.789   2.703
 7752TIP3    H147451   5.426   3.846   2.571
 7752TIP3    H247452   5.274   3.824   2.592
 7753TIP3   OH247453   5.532   3.912   2.223
 7753TIP3    H147454   5.595   3.853   2.076
 7753TIP3    H247455   5.588   3.992   2.268
 7754TIP3   OH247456   4.060   3.828   2.124
 7754TIP3    H147457   3.978   3.814   1.971
 7754TIP3    H247458   4.108   3.745   2.070
 7755TIP3   OH247459   3.940   3.823   0.804
 7755TIP3    H147460   3.997   3.892   0.681
 7755TIP3    H247461   3.897   3.871   1.020
 7756TIP3   OH247462   4.516   3.792   2.058
 7756TIP3    H147463   4.590   3.833   1.920
 7756TIP3    H247464   4.527   3.822   2.331
 7757TIP3   OH247465   5.106   3.854   2.421
 7757TIP3    H147466   5.070   3.856   2.154
 7757TIP3    H247467   5.054   3.782   2.550
 7758TIP3   OH247468   5.246   3.829   1.278
 7758TIP3    H147469   5.171   3.889   1.257
 7758TIP3    H247470   5.206   3.755   1.425
 7759TIP3   OH247471   3.932   5.436   1.128
 7759TIP3    H147472   3.846   5.435   0.990
 7759TIP3    H247473   3.950   5.531   1.101
 7760TIP3   OH247474   4.108   3.973   0.369
 7760TIP3    H147475   4.184   3.912   0.354
 7760TIP3    H247476   4.144   4.048   0.519
 7761TIP3   OH247477   4.648   4.051   1.077
 7761TIP3    H147478   4.690   3.989   1.269
 7761TIP3    H247479   4.653   4.132   1.236
 7762TIP3   OH247480   4.809   5.570   0.528
 7762TIP3    H147481   4.906   5.588   0.564
 7762TIP3    H247482   4.814   5.526   0.270
 7763TIP3   OH247483   5.474   5.478   1.503
 7763TIP3    H147484   5.467   5.390   1.365
 7763TIP3    H247485   5.470   5.540   1.275
 7764TIP3   OH247486   4.033   3.914   4.938
 7764TIP3    H147487   3.989   3.828   4.968
 7764TIP3    H247488   4.111   3.902   5.112
 7765TIP3   OH247489   4.244   3.852   5.481
 7765TIP3    H147490   4.334   3.824   5.415
 7765TIP3    H247491   4.211   3.770   5.610
 7766TIP3   OH247492   4.151   5.552   0.426
 7766TIP3    H147493   4.090   5.574   0.645
 7766TIP3    H247494   4.199   5.475   0.525
 7767TIP3   OH247495   5.093   3.774   5.421
 7767TIP3    H147496   5.091   3.718   5.667
 7767TIP3    H247497   5.186   3.762   5.346
 7768TIP3   OH247498   5.426   5.384   4.995
 7768TIP3    H147499   5.350   5.376   4.809
 7768TIP3    H247500   5.405   5.470   5.115
 7769TIP3   OH247501   6.881   4.786   2.076
 7769TIP3    H147502   6.874   4.873   2.208
 7769TIP3    H247503   6.804   4.793   1.899
 7770TIP3   OH247504   6.740   4.663   3.030
 7770TIP3    H147505   6.760   4.621   3.288
 7770TIP3    H247506   6.670   4.607   2.910
 7771TIP3   OH247507   5.968   4.665   3.486
 7771TIP3    H147508   5.955   4.600   3.702
 7771TIP3    H247509   6.045   4.711   3.591
 7772TIP3   OH247510   7.121   4.999   2.667
 7772TIP3    H147511   7.116   4.922   2.844
 7772TIP3    H247512   7.109   5.073   2.853
 7773TIP3   OH247513   6.080   5.133   3.048
 7773TIP3    H147514   6.045   5.043   3.000
 7773TIP3    H247515   6.174   5.113   2.991
 7774TIP3   OH247516   5.733   4.454   1.743
 7774TIP3    H147517   5.690   4.541   1.764
 7774TIP3    H247518   5.690   4.416   1.509
 7775TIP3   OH247519   5.792   4.694   2.487
 7775TIP3    H147520   5.839   4.608   2.520
 7775TIP3    H247521   5.851   4.746   2.316
 7776TIP3   OH247522   6.830   5.524   2.691
 7776TIP3    H147523   6.889   5.465   2.532
 7776TIP3    H247524   6.794   5.459   2.874
 7777TIP3   OH247525   6.569   4.933   3.384
 7777TIP3    H147526   6.599   4.887   3.147
 7777TIP3    H247527   6.655   4.960   3.501
 7778TIP3   OH247528   7.463   4.116   3.339
 7778TIP3    H147529   7.462   4.181   3.555
 7778TIP3    H247530   7.525   4.157   3.150
 7779TIP3   OH247531   6.923   4.378   3.387
 7779TIP3    H147532   6.969   4.298   3.471
 7779TIP3    H247533   6.918   4.362   3.099
 7780TIP3   OH247534   6.209   4.165   2.409
 7780TIP3    H147535   6.227   4.244   2.244
 7780TIP3    H247536   6.176   4.104   2.199
 7781TIP3   OH247537   6.991   4.190   2.013
 7781TIP3    H147538   7.045   4.175   2.256
 7781TIP3    H247539   7.044   4.256   1.875
 7782TIP3   OH247540   5.876   4.453   2.688
 7782TIP3    H147541   5.940   4.414   2.877
 7782TIP3    H247542   5.897   4.404   2.442
 7783TIP3   OH247543   6.373   4.580   2.532
 7783TIP3    H147544   6.449   4.534   2.652
 7783TIP3    H247545   6.336   4.508   2.373
 7784TIP3   OH247546   7.456   4.218   4.173
 7784TIP3    H147547   7.395   4.285   4.059
 7784TIP3    H247548   7.531   4.275   4.239
 7785TIP3   OH247549   6.131   4.092   3.648
 7785TIP3    H147550   6.090   4.141   3.429
 7785TIP3    H247551   6.062   4.105   3.852
 7786TIP3   OH247552   6.797   5.038   1.719
 7786TIP3    H147553   6.788   5.032   1.428
 7786TIP3    H247554   6.775   5.133   1.761
 7787TIP3   OH247555   6.330   4.855   3.603
 7787TIP3    H147556   6.283   4.936   3.699
 7787TIP3    H247557   6.412   4.896   3.498
 7788TIP3   OH247558   7.148   4.165   2.664
 7788TIP3    H147559   7.115   4.095   2.844
 7788TIP3    H247560   7.233   4.192   2.790
 7789TIP3   OH247561   6.072   4.278   3.057
 7789TIP3    H147562   6.139   4.338   3.183
 7789TIP3    H247563   6.122   4.246   2.823
 7790TIP3   OH247564   6.220   5.080   3.942
 7790TIP3    H147565   6.206   5.150   3.747
 7790TIP3    H247566   6.128   5.072   4.053
 7791TIP3   OH247567   5.793   4.995   1.233
 7791TIP3    H147568   5.785   5.047   0.984
 7791TIP3    H247569   5.795   5.066   1.434
 7792TIP3   OH247570   7.161   5.202   3.222
 7792TIP3    H147571   7.069   5.212   3.312
 7792TIP3    H247572   7.180   5.293   3.141
 7793TIP3   OH247573   7.206   4.065   3.645
 7793TIP3    H147574   7.127   4.089   3.486
 7793TIP3    H247575   7.282   4.091   3.477
 7794TIP3   OH247576   6.465   3.831   2.832
 7794TIP3    H147577   6.433   3.746   2.931
 7794TIP3    H247578   6.386   3.885   2.916
 7795TIP3   OH247579   6.980   5.349   2.265
 7795TIP3    H147580   7.000   5.264   2.133
 7795TIP3    H247581   7.066   5.394   2.211
 7796TIP3   OH247582   7.087   5.150   1.818
 7796TIP3    H147583   7.078   5.079   1.623
 7796TIP3    H247584   7.126   5.104   2.046
 7797TIP3   OH247585   7.260   5.002   4.380
 7797TIP3    H147586   7.245   4.942   4.152
 7797TIP3    H247587   7.283   5.084   4.239
 7798TIP3   OH247588   6.722   4.713   1.260
 7798TIP3    H147589   6.681   4.802   1.242
 7798TIP3    H247590   6.797   4.721   1.080
 7799TIP3   OH247591   6.767   4.579   0.405
 7799TIP3    H147592   6.846   4.607   0.564
 7799TIP3    H247593   6.794   4.488   0.336
 7800TIP3   OH247594   7.423   4.635   3.768
 7800TIP3    H147595   7.364   4.710   3.693
 7800TIP3    H247596   7.499   4.651   3.591
 7801TIP3   OH247597   7.082   4.715   1.581
 7801TIP3    H147598   7.011   4.750   1.758
 7801TIP3    H247599   7.143   4.677   1.785
 7802TIP3   OH247600   7.069   4.547   4.323
 7802TIP3    H147601   7.047   4.632   4.446
 7802TIP3    H247602   7.007   4.554   4.098
 7803TIP3   OH247603   6.226   4.773   2.157
 7803TIP3    H147604   6.194   4.753   1.884
 7803TIP3    H247605   6.286   4.696   2.205
 7804TIP3   OH247606   6.361   5.105   2.949
 7804TIP3    H147607   6.374   5.094   2.664
 7804TIP3    H247608   6.440   5.063   3.063
 7805TIP3   OH247609   6.257   4.633   3.249
 7805TIP3    H147610   6.288   4.637   2.967
 7805TIP3    H247611   6.300   4.713   3.363
 7806TIP3   OH247612   6.914   5.218   3.477
 7806TIP3    H147613   6.902   5.292   3.663
 7806TIP3    H247614   6.877   5.143   3.630
 7807TIP3   OH247615   6.376   5.112   4.611
 7807TIP3    H147616   6.304   5.157   4.764
 7807TIP3    H247617   6.328   5.100   4.356
 7808TIP3   OH247618   6.961   4.657   0.882
 7808TIP3    H147619   6.997   4.669   1.155
 7808TIP3    H247620   7.021   4.715   0.726
 7809TIP3   OH247621   6.063   4.709   4.314
 7809TIP3    H147622   6.064   4.799   4.413
 7809TIP3    H247623   6.009   4.667   4.521
 7810TIP3   OH247624   6.736   5.312   1.743
 7810TIP3    H147625   6.770   5.335   2.010
 7810TIP3    H247626   6.683   5.389   1.668
 7811TIP3   OH247627   6.193   5.269   4.917
 7811TIP3    H147628   6.183   5.316   4.662
 7811TIP3    H247629   6.099   5.247   4.974
 7812TIP3   OH247630   7.331   3.787   0.750
 7812TIP3    H147631   7.233   3.793   0.777
 7812TIP3    H247632   7.357   3.871   0.870
 7813TIP3   OH247633   6.128   4.665   1.446
 7813TIP3    H147634   6.080   4.736   1.308
 7813TIP3    H247635   6.095   4.585   1.320
 7814TIP3   OH247636   7.476   5.271   0.474
 7814TIP3    H147637   7.493   5.368   0.498
 7814TIP3    H247638   7.564   5.234   0.519
 7815TIP3   OH247639   5.767   4.935   4.134
 7815TIP3    H147640   5.722   4.928   3.879
 7815TIP3    H247641   5.805   4.844   4.146
 7816TIP3   OH247642   5.736   5.202   3.087
 7816TIP3    H147643   5.831   5.183   3.093
 7816TIP3    H247644   5.732   5.278   3.261
 7817TIP3   OH247645   7.526   5.278   4.797
 7817TIP3    H147646   7.522   5.182   4.767
 7817TIP3    H247647   7.453   5.290   4.989
 7818TIP3   OH247648   6.626   5.207   4.545
 7818TIP3    H147649   6.645   5.290   4.689
 7818TIP3    H247650   6.530   5.191   4.593
 7819TIP3   OH247651   6.676   5.588   1.362
 7819TIP3    H147652   6.689   5.609   1.080
 7819TIP3    H247653   6.676   5.678   1.482
 7820TIP3   OH247654   6.049   5.464   2.022
 7820TIP3    H147655   6.077   5.440   2.295
 7820TIP3    H247656   5.958   5.427   2.019
 7821TIP3   OH247657   6.957   5.575   0.588
 7821TIP3    H147658   6.998   5.493   0.483
 7821TIP3    H247659   6.976   5.571   0.870
 7822TIP3   OH247660   6.943   5.501   1.395
 7822TIP3    H147661   6.848   5.506   1.461
 7822TIP3    H247662   6.976   5.431   1.572
 7823TIP3   OH247663   7.228   4.435   4.968
 7823TIP3    H147664   7.157   4.453   4.770
 7823TIP3    H247665   7.239   4.339   4.944
 7824TIP3   OH247666   5.982   5.071   4.338
 7824TIP3    H147667   5.987   5.040   4.617
 7824TIP3    H247668   5.896   5.032   4.257
 7825TIP3   OH247669   6.240   3.924   3.138
 7825TIP3    H147670   6.152   3.923   3.015
 7825TIP3    H247671   6.220   3.977   3.378
 7826TIP3   OH247672   6.732   3.873   4.149
 7826TIP3    H147673   6.752   3.806   4.350
 7826TIP3    H247674   6.634   3.869   4.122
 7827TIP3   OH247675   7.010   4.254   4.407
 7827TIP3    H147676   6.952   4.224   4.629
 7827TIP3    H247677   6.986   4.348   4.392
 7828TIP3   OH247678   7.116   4.789   0.399
 7828TIP3    H147679   7.070   4.797   0.135
 7828TIP3    H247680   7.208   4.791   0.300
 7829TIP3   OH247681   6.689   4.145   0.417
 7829TIP3    H147682   6.643   4.114   0.660
 7829TIP3    H247683   6.627   4.112   0.216
 7830TIP3   OH247684   6.252   4.397   3.567
 7830TIP3    H147685   6.171   4.397   3.735
 7830TIP3    H247686   6.248   4.489   3.456
 7831TIP3   OH247687   6.245   4.379   1.965
 7831TIP3    H147688   6.149   4.388   1.932
 7831TIP3    H247689   6.276   4.358   1.692
 7832TIP3   OH247690   6.824   4.507   1.722
 7832TIP3    H147691   6.778   4.576   1.563
 7832TIP3    H247692   6.880   4.466   1.515
 7833TIP3   OH247693   6.661   4.485   5.097
 7833TIP3    H147694   6.629   4.398   5.190
 7833TIP3    H247695   6.746   4.491   5.238
 7834TIP3   OH247696   6.899   4.448   2.517
 7834TIP3    H147697   6.883   4.532   2.382
 7834TIP3    H247698   6.903   4.390   2.286
 7835TIP3   OH247699   6.007   4.404   3.948
 7835TIP3    H147700   6.031   4.443   4.203
 7835TIP3    H247701   5.975   4.315   4.020
 7836TIP3   OH247702   6.344   4.149   0.153
 7836TIP3    H147703   6.297   4.137   0.408
 7836TIP3    H247704   6.273   4.178  -0.024
 7837TIP3   OH247705   5.684   4.138   2.268
 7837TIP3    H147706   5.752   4.135   2.478
 7837TIP3    H247707   5.735   4.129   2.025
 7838TIP3   OH247708   5.809   4.195   0.855
 7838TIP3    H147709   5.884   4.249   0.753
 7838TIP3    H247710   5.745   4.268   0.897
 7839TIP3   OH247711   6.822   4.584   3.822
 7839TIP3    H147712   6.866   4.514   3.660
 7839TIP3    H247713   6.766   4.528   3.999
 7840TIP3   OH247714   6.529   4.149   2.316
 7840TIP3    H147715   6.434   4.161   2.364
 7840TIP3    H247716   6.562   4.116   2.568
 7841TIP3   OH247717   5.960   4.315   2.025
 7841TIP3    H147718   5.890   4.347   1.842
 7841TIP3    H247719   5.992   4.232   1.905
 7842TIP3   OH247720   6.354   4.338   1.239
 7842TIP3    H147721   6.447   4.362   1.248
 7842TIP3    H247722   6.316   4.405   1.056
 7843TIP3   OH247723   6.961   4.087   3.234
 7843TIP3    H147724   6.895   4.087   3.447
 7843TIP3    H247725   6.902   4.055   3.018
 7844TIP3   OH247726   6.210   4.471   0.663
 7844TIP3    H147727   6.134   4.437   0.513
 7844TIP3    H247728   6.278   4.479   0.453
 7845TIP3   OH247729   7.251   5.633   5.226
 7845TIP3    H147730   7.285   5.680   4.989
 7845TIP3    H247731   7.325   5.646   5.415
 7846TIP3   OH247732   5.994   4.934   5.058
 7846TIP3    H147733   6.072   4.957   5.220
 7846TIP3    H247734   5.929   4.904   5.256
 7847TIP3   OH247735   6.610   4.432   2.823
 7847TIP3    H147736   6.697   4.416   2.706
 7847TIP3    H247737   6.596   4.353   2.985
 7848TIP3   OH247738   6.080   4.041   1.791
 7848TIP3    H147739   6.015   3.978   1.911
 7848TIP3    H247740   6.129   3.980   1.617
 7849TIP3   OH247741   6.483   4.261   3.582
 7849TIP3    H147742   6.402   4.317   3.579
 7849TIP3    H247743   6.546   4.319   3.714
 7850TIP3   OH247744   6.547   4.935   1.158
 7850TIP3    H147745   6.474   4.880   1.050
 7850TIP3    H247746   6.510   4.950   1.428
 7851TIP3   OH247747   7.264   4.861   3.684
 7851TIP3    H147748   7.322   4.899   3.477
 7851TIP3    H247749   7.181   4.848   3.528
 7852TIP3   OH247750   6.941   4.200   0.603
 7852TIP3    H147751   6.844   4.193   0.564
 7852TIP3    H247752   6.948   4.291   0.711
 7853TIP3   OH247753   6.668   4.937   4.608
 7853TIP3    H147754   6.625   4.927   4.869
 7853TIP3    H247755   6.658   5.034   4.578
 7854TIP3   OH247756   6.998   4.401   1.080
 7854TIP3    H147757   7.090   4.384   1.164
 7854TIP3    H247758   7.005   4.489   0.957
 7855TIP3   OH247759   6.075   4.861   2.853
 7855TIP3    H147760   6.127   4.837   2.616
 7855TIP3    H247761   6.073   4.778   3.006
 7856TIP3   OH247762   6.772   5.041   0.864
 7856TIP3    H147763   6.761   5.136   0.900
 7856TIP3    H247764   6.681   5.010   0.930
 7857TIP3   OH247765   5.780   4.671   4.335
 7857TIP3    H147766   5.757   4.634   4.596
 7857TIP3    H247767   5.717   4.629   4.152
 7858TIP3   OH247768   6.445   4.652   4.971
 7858TIP3    H147769   6.412   4.615   4.722
 7858TIP3    H247770   6.533   4.608   4.992
 7859TIP3   OH247771   6.953   5.169   4.545
 7859TIP3    H147772   6.872   5.179   4.392
 7859TIP3    H247773   6.924   5.204   4.806
 7860TIP3   OH247774   7.461   4.410   1.047
 7860TIP3    H147775   7.411   4.366   0.828
 7860TIP3    H247776   7.468   4.498   0.921
 7861TIP3   OH247777   7.487   4.973   4.782
 7861TIP3    H147778   7.396   4.992   4.683
 7861TIP3    H247779   7.537   4.963   4.530
 7862TIP3   OH247780   7.324   5.244   1.143
 7862TIP3    H147781   7.249   5.185   1.146
 7862TIP3    H247782   7.364   5.231   0.879
 7863TIP3   OH247783   7.063   4.789   3.135
 7863TIP3    H147784   6.973   4.788   3.030
 7863TIP3    H247785   7.092   4.702   3.024
 7864TIP3   OH247786   6.281   5.199   2.112
 7864TIP3    H147787   6.306   5.288   2.013
 7864TIP3    H247788   6.187   5.199   2.037
 7865TIP3   OH247789   5.895   4.642   0.348
 7865TIP3    H147790   5.947   4.708   0.495
 7865TIP3    H247791   5.805   4.655   0.468
 7866TIP3   OH247792   6.431   4.960   1.920
 7866TIP3    H147793   6.379   5.042   1.962
 7866TIP3    H247794   6.389   4.894   2.097
 7867TIP3   OH247795   6.495   5.374   3.951
 7867TIP3    H147796   6.558   5.443   3.867
 7867TIP3    H247797   6.550   5.326   4.146
 7868TIP3   OH247798   6.309   5.445   1.776
 7868TIP3    H147799   6.214   5.461   1.836
 7868TIP3    H247800   6.344   5.534   1.845
 7869TIP3   OH247801   6.795   4.963   3.789
 7869TIP3    H147802   6.748   4.936   4.035
 7869TIP3    H247803   6.840   4.880   3.720
 7870TIP3   OH247804   7.070   5.094   0.441
 7870TIP3    H147805   7.109   5.044   0.666
 7870TIP3    H247806   6.979   5.061   0.456
 7871TIP3   OH247807   7.119   5.419   4.440
 7871TIP3    H147808   7.037   5.366   4.431
 7871TIP3    H247809   7.119   5.471   4.188
 7872TIP3   OH247810   7.536   5.531   0.447
 7872TIP3    H147811   7.597   5.605   0.435
 7872TIP3    H247812   7.454   5.575   0.549
 7873TIP3   OH247813   5.940   4.154   4.257
 7873TIP3    H147814   5.884   4.208   4.434
 7873TIP3    H247815   5.941   4.070   4.407
 7874TIP3   OH247816   7.166   4.955   1.113
 7874TIP3    H147817   7.136   4.863   1.113
 7874TIP3    H247818   7.263   4.943   1.119
 7875TIP3   OH247819   5.901   5.347   3.780
 7875TIP3    H147820   5.951   5.266   3.831
 7875TIP3    H247821   5.906   5.389   4.041
 7876TIP3   OH247822   6.328   5.136   0.762
 7876TIP3    H147823   6.413   5.104   0.867
 7876TIP3    H247824   6.334   5.232   0.840
 7877TIP3   OH247825   6.003   4.861   0.879
 7877TIP3    H147826   5.925   4.905   1.002
 7877TIP3    H247827   6.049   4.939   0.765
 7878TIP3   OH247828   6.777   4.155   4.038
 7878TIP3    H147829   6.866   4.164   4.152
 7878TIP3    H247830   6.756   4.062   4.104
 7879TIP3   OH247831   6.884   4.061   1.359
 7879TIP3    H147832   6.901   4.127   1.149
 7879TIP3    H247833   6.938   4.096   1.584
 7880TIP3   OH247834   6.640   5.309   0.813
 7880TIP3    H147835   6.565   5.330   0.987
 7880TIP3    H247836   6.680   5.398   0.786
 7881TIP3   OH247837   6.638   4.272   1.659
 7881TIP3    H147838   6.678   4.360   1.707
 7881TIP3    H247839   6.609   4.241   1.923
 7882TIP3   OH247840   6.693   4.397   4.272
 7882TIP3    H147841   6.689   4.407   4.566
 7882TIP3    H247842   6.726   4.306   4.227
 7883TIP3   OH247843   6.673   3.950   1.776
 7883TIP3    H147844   6.619   4.018   1.905
 7883TIP3    H247845   6.755   3.998   1.698
 7884TIP3   OH247846   6.367   5.386   0.990
 7884TIP3    H147847   6.389   5.472   0.858
 7884TIP3    H247848   6.340   5.417   1.257
 7885TIP3   OH247849   6.244   4.083   0.894
 7885TIP3    H147850   6.234   4.164   1.050
 7885TIP3    H247851   6.336   4.061   0.957
 7886TIP3   OH247852   7.252   4.141   4.656
 7886TIP3    H147853   7.166   4.162   4.533
 7886TIP3    H247854   7.315   4.160   4.437
 7887TIP3   OH247855   7.123   4.559   2.775
 7887TIP3    H147856   7.042   4.505   2.736
 7887TIP3    H247857   7.179   4.495   2.928
 7888TIP3   OH247858   6.075   5.103   0.549
 7888TIP3    H147859   6.165   5.124   0.660
 7888TIP3    H247860   6.098   5.094   0.267
 7889TIP3   OH247861   5.929   4.378   0.411
 7889TIP3    H147862   5.929   4.476   0.411
 7889TIP3    H247863   5.856   4.361   0.222
 7890TIP3   OH247864   7.262   5.456   3.249
 7890TIP3    H147865   7.246   5.527   3.048
 7890TIP3    H247866   7.358   5.460   3.288
 7891TIP3   OH247867   5.980   3.870   2.961
 7891TIP3    H147868   5.980   3.842   2.679
 7891TIP3    H247869   5.956   3.787   3.102
 7892TIP3   OH247870   5.844   5.257   1.773
 7892TIP3    H147871   5.768   5.317   1.773
 7892TIP3    H247872   5.887   5.286   1.530
 7893TIP3   OH247873   5.783   5.535   5.088
 7893TIP3    H147874   5.848   5.525   5.307
 7893TIP3    H247875   5.750   5.443   5.070
 7894TIP3   OH247876   6.286   5.439   5.565
 7894TIP3    H147877   6.364   5.401   5.700
 7894TIP3    H247878   6.273   5.380   5.337
 7895TIP3   OH247879   6.677   5.351  -0.045
 7895TIP3    H147880   6.609   5.301   0.102
 7895TIP3    H247881   6.757   5.325   0.099
 7896TIP3   OH247882   6.901   5.310   5.262
 7896TIP3    H147883   6.870   5.222   5.361
 7896TIP3    H247884   6.986   5.319   5.406
 7897TIP3   OH247885   7.058   5.353   0.228
 7897TIP3    H147886   7.081   5.262   0.309
 7897TIP3    H247887   7.137   5.387   0.087
 7898TIP3   OH247888   5.751   4.905   5.460
 7898TIP3    H147889   5.710   4.818   5.499
 7898TIP3    H247890   5.711   4.933   5.202
 7899TIP3   OH247891   6.252   4.871   0.150
 7899TIP3    H147892   6.232   4.864   0.435
 7899TIP3    H247893   6.339   4.911   0.171
 7900TIP3   OH247894   6.450   4.922   5.160
 7900TIP3    H147895   6.433   4.978   4.923
 7900TIP3    H247896   6.437   4.831   5.058
 7901TIP3   OH247897   7.029   4.883   4.539
 7901TIP3    H147898   7.124   4.909   4.557
 7901TIP3    H247899   6.991   4.972   4.578
 7902TIP3   OH247900   5.923   4.621   5.253
 7902TIP3    H147901   5.927   4.535   5.391
 7902TIP3    H247902   5.911   4.680   5.484
 7903TIP3   OH247903   6.359   4.759   0.873
 7903TIP3    H147904   6.289   4.707   1.002
 7903TIP3    H247905   6.398   4.696   0.684
 7904TIP3   OH247906   6.247   4.527   4.341
 7904TIP3    H147907   6.184   4.601   4.305
 7904TIP3    H247908   6.321   4.562   4.182
 7905TIP3   OH247909   6.491   4.583   0.303
 7905TIP3    H147910   6.508   4.554   0.030
 7905TIP3    H247911   6.583   4.586   0.414
 7906TIP3   OH247912   6.779   4.781   5.562
 7906TIP3    H147913   6.840   4.771   5.337
 7906TIP3    H247914   6.804   4.706   5.730
 7907TIP3   OH247915   7.356   4.750  30.024
 7907TIP3    H147916   7.397   4.673  29.895
 7907TIP3    H247917   7.417   4.821  29.931
 7908TIP3   OH247918   6.339   4.290   4.665
 7908TIP3    H147919   6.348   4.228   4.440
 7908TIP3    H247920   6.302   4.370   4.536
 7909TIP3   OH247921   6.356   4.088   4.077
 7909TIP3    H147922   6.409   4.135   3.870
 7909TIP3    H247923   6.266   4.092   3.960
 7910TIP3   OH247924   6.468   4.675   4.101
 7910TIP3    H147925   6.559   4.698   4.032
 7910TIP3    H247926   6.418   4.743   3.957
 7911TIP3   OH247927   6.922   4.421   5.589
 7911TIP3    H147928   6.925   4.327   5.646
 7911TIP3    H247929   7.010   4.453   5.664
 7912TIP3   OH247930   7.060   4.730   5.184
 7912TIP3    H147931   7.034   4.776   4.938
 7912TIP3    H247932   7.151   4.703   5.121
 7913TIP3   OH247933   6.186   4.353   5.355
 7913TIP3    H147934   6.096   4.316   5.325
 7913TIP3    H247935   6.228   4.322   5.109
 7914TIP3   OH247936   6.471   3.850   3.993
 7914TIP3    H147937   6.432   3.938   4.056
 7914TIP3    H247938   6.390   3.801   3.930
 7915TIP3   OH247939   6.572   4.221   5.283
 7915TIP3    H147940   6.503   4.223   5.493
 7915TIP3    H247941   6.517   4.232   5.043
 7916TIP3   OH247942   6.849   4.177   4.995
 7916TIP3    H147943   6.758   4.165   5.097
 7916TIP3    H247944   6.900   4.131   5.208
 7917TIP3   OH247945   6.962   4.040   5.580
 7917TIP3    H147946   6.993   3.948   5.604
 7917TIP3    H247947   6.962   4.070   5.865
 7918TIP3   OH247948   5.971   4.184   5.217
 7918TIP3    H147949   5.951   4.097   5.094
 7918TIP3    H247950   5.960   4.161   5.505
 7919TIP3   OH247951   6.428   3.792   5.019
 7919TIP3    H147952   6.487   3.714   5.019
 7919TIP3    H247953   6.426   3.815   4.737
 7920TIP3   OH247954   6.431   3.910   5.751
 7920TIP3    H147955   6.428   3.863   5.490
 7920TIP3    H247956   6.417   4.001   5.667
 7921TIP3   OH247957   6.413   5.622   0.621
 7921TIP3    H147958   6.510   5.624   0.645
 7921TIP3    H247959   6.395   5.682   0.399
 7922TIP3   OH247960   5.800   5.114   0.504
 7922TIP3    H147961   5.899   5.105   0.525
 7922TIP3    H247962   5.782   5.065   0.261
 7923TIP3   OH247963   5.674   5.607   1.860
 7923TIP3    H147964   5.597   5.554   1.767
 7923TIP3    H247965   5.702   5.555   2.097
 7924TIP3   OH247966   5.756   5.443   2.460
 7924TIP3    H147967   5.693   5.376   2.556
 7924TIP3    H247968   5.817   5.454   2.691
 7925TIP3   OH247969   7.545   5.494   3.426
 7925TIP3    H147970   7.549   5.496   3.720
 7925TIP3    H247971   7.538   5.589   3.375
 7926TIP3   OH247972   7.459   5.474   4.239
 7926TIP3    H147973   7.413   5.405   4.080
 7926TIP3    H247974   7.490   5.420   4.467
 7927TIP3   OH247975   7.318   5.039   5.658
 7927TIP3    H147976   7.236   5.060   5.808
 7927TIP3    H247977   7.351   5.127   5.592
 7928TIP3   OH247978   7.444   4.896   1.182
 7928TIP3    H147979   7.532   4.937   1.209
 7928TIP3    H247980   7.450   4.824   1.377
 7929TIP3   OH247981   7.475   4.699   1.812
 7929TIP3    H147982   7.381   4.671   1.794
 7929TIP3    H247983   7.488   4.680   2.094
 7930TIP3   OH247984   7.495   4.937   3.282
 7930TIP3    H147985   7.588   4.935   3.201
 7930TIP3    H247986   7.480   5.033   3.225
 7931TIP3   OH247987   7.319   5.248   3.981
 7931TIP3    H147988   7.239   5.278   4.122
 7931TIP3    H247989   7.287   5.236   3.708
 7932TIP3   OH247990   7.504   4.693   0.669
 7932TIP3    H147991   7.439   4.716   0.462
 7932TIP3    H247992   7.503   4.777   0.813
 7933TIP3   OH247993   7.329   4.373   0.378
 7933TIP3    H147994   7.290   4.432   0.183
 7933TIP3    H247995   7.332   4.289   0.228
 7934TIP3   OH247996   7.252   4.579   2.046
 7934TIP3    H147997   7.224   4.491   1.944
 7934TIP3    H247998   7.212   4.580   2.313
 7935TIP3   OH247999   5.753   4.784   3.246
 7935TIP3    H148000   5.758   4.750   2.967
 7935TIP3    H248001   5.843   4.757   3.336
 7936TIP3   OH248002   7.339   4.734   4.911
 7936TIP3    H148003   7.405   4.662   4.884
 7936TIP3    H248004   7.391   4.815   4.854
 7937TIP3   OH248005   7.482   4.514   4.947
 7937TIP3    H148006   7.384   4.500   4.971
 7937TIP3    H248007   7.514   4.427   5.049
 7938TIP3   OH248008   7.271   4.156  -0.033
 7938TIP3    H148009   7.323   4.090   0.111
 7938TIP3    H248010   7.182   4.140   0.072
 7939TIP3   OH248011   7.233   4.335   1.524
 7939TIP3    H148012   7.227   4.237   1.536
 7939TIP3    H248013   7.328   4.347   1.494
 7940TIP3   OH248014   7.250   4.375   3.180
 7940TIP3    H148015   7.348   4.368   3.147
 7940TIP3    H248016   7.246   4.375   3.474
 7941TIP3   OH248017   7.288   4.419   3.996
 7941TIP3    H148018   7.206   4.456   4.110
 7941TIP3    H248019   7.338   4.502   3.939
 7942TIP3   OH248020   5.720   4.269   5.007
 7942TIP3    H148021   5.811   4.264   5.115
 7942TIP3    H248022   5.687   4.178   5.052
 7943TIP3   OH248023   7.515   3.802   5.556
 7943TIP3    H148024   7.557   3.743   5.361
 7943TIP3    H248025   7.506   3.883   5.394
 7944TIP3   OH248026   7.267   4.058   1.515
 7944TIP3    H148027   7.290   4.030   1.788
 7944TIP3    H248028   7.219   3.979   1.422
 7945TIP3   OH248029   5.851   4.113   2.997
 7945TIP3    H148030   5.890   4.023   3.030
 7945TIP3    H248031   5.931   4.170   2.982
 7946TIP3   OH248032   5.692   4.419   3.240
 7946TIP3    H148033   5.746   4.392   3.009
 7946TIP3    H248034   5.734   4.503   3.306
 7947TIP3   OH248035   7.453   4.023   5.154
 7947TIP3    H148036   7.366   4.071   5.190
 7947TIP3    H248037   7.444   4.003   4.869
 7948TIP3   OH248038   7.526   4.049   0.459
 7948TIP3    H148039   7.554   3.963   0.357
 7948TIP3    H248040   7.588   4.112   0.327
 7949TIP3   OH248041   5.717   4.034   1.452
 7949TIP3    H148042   5.624   4.060   1.467
 7949TIP3    H248043   5.742   4.078   1.200
 7950TIP3   OH248044   7.179   5.498   2.010
 7950TIP3    H148045   7.236   5.489   1.773
 7950TIP3    H248046   7.242   5.540   2.187
 7951TIP3   OH248047   5.698   3.892   3.900
 7951TIP3    H148048   5.643   3.860   4.122
 7951TIP3    H248049   5.642   3.957   3.765
 7952TIP3   OH248050   5.936   5.220   5.100
 7952TIP3    H148051   5.847   5.248   5.022
 7952TIP3    H248052   5.924   5.171   5.346
 7953TIP3   OH248053   6.233   5.385   4.155
 7953TIP3    H148054   6.228   5.472   4.014
 7953TIP3    H248055   6.327   5.364   4.125
 7954TIP3   OH248056   6.642   5.482   4.872
 7954TIP3    H148057   6.651   5.455   5.154
 7954TIP3    H248058   6.732   5.517   4.815
 7955TIP3   OH248059   6.866   5.625   4.749
 7955TIP3    H148060   6.942   5.580   4.635
 7955TIP3    H248061   6.902   5.662   4.995
 7956TIP3   OH248062   7.372   3.847   4.509
 7956TIP3    H148063   7.290   3.887   4.407
 7956TIP3    H248064   7.372   3.758   4.392
 7957TIP3   OH248065   5.962   5.662   4.023
 7957TIP3    H148066   5.886   5.718   3.939
 7957TIP3    H248067   5.954   5.664   4.311
 7958TIP3   OH248068   6.201   5.621   3.738
 7958TIP3    H148069   6.109   5.637   3.837
 7958TIP3    H248070   6.202   5.677   3.501
 7959TIP3   OH248071   6.678   5.577   3.516
 7959TIP3    H148072   6.628   5.625   3.318
 7959TIP3    H248073   6.692   5.647   3.720
 7960TIP3   OH248074   6.863   5.438   3.963
 7960TIP3    H148075   6.795   5.478   3.786
 7960TIP3    H248076   6.934   5.503   3.930
 7961TIP3   OH248077   7.131   5.588   3.816
 7961TIP3    H148078   7.140   5.679   3.720
 7961TIP3    H248079   7.182   5.541   3.606
 7962TIP3   OH248080   5.913   5.504   3.117
 7962TIP3    H148081   5.884   5.456   3.363
 7962TIP3    H248082   6.001   5.463   3.072
 7963TIP3   OH248083   6.133   5.398   2.766
 7963TIP3    H148084   6.122   5.304   2.835
 7963TIP3    H248085   6.221   5.415   2.886
 7964TIP3   OH248086   6.366   5.403   3.120
 7964TIP3    H148087   6.398   5.313   3.057
 7964TIP3    H248088   6.384   5.405   3.405
 7965TIP3   OH248089   6.725   4.001   2.850
 7965TIP3    H148090   6.645   3.948   2.898
 7965TIP3    H248091   6.774   3.944   2.664
 7966TIP3   OH248092   7.217   3.796   2.745
 7966TIP3    H148093   7.261   3.865   2.577
 7966TIP3    H248094   7.124   3.820   2.685
 7967TIP3   OH248095   7.357   3.940   2.205
 7967TIP3    H148096   7.429   3.875   2.145
 7967TIP3    H248097   7.413   4.016   2.295
 7968TIP3   OH248098   5.974   3.822   2.115
 7968TIP3    H148099   5.885   3.812   1.995
 7968TIP3    H248100   6.012   3.733   2.067
 7969TIP3   OH248101   5.831   3.823   0.798
 7969TIP3    H148102   5.892   3.886   0.666
 7969TIP3    H248103   5.790   3.879   1.002
 7970TIP3   OH248104   6.376   3.796   2.025
 7970TIP3    H148105   6.453   3.832   1.890
 7970TIP3    H248106   6.402   3.805   2.307
 7971TIP3   OH248107   6.953   3.854   2.478
 7971TIP3    H148108   6.941   3.839   2.193
 7971TIP3    H248109   6.909   3.775   2.595
 7972TIP3   OH248110   7.114   3.832   1.266
 7972TIP3    H148111   7.036   3.888   1.272
 7972TIP3    H248112   7.076   3.747   1.368
 7973TIP3   OH248113   5.825   5.437   1.128
 7973TIP3    H148114   5.736   5.435   1.014
 7973TIP3    H248115   5.847   5.531   1.092
 7974TIP3   OH248116   6.013   3.958   0.363
 7974TIP3    H148117   6.091   3.904   0.408
 7974TIP3    H248118   6.035   4.041   0.492
 7975TIP3   OH248119   6.551   4.071   1.104
 7975TIP3    H148120   6.606   4.022   1.296
 7975TIP3    H248121   6.556   4.159   1.233
 7976TIP3   OH248122   6.696   5.560   0.543
 7976TIP3    H148123   6.793   5.580   0.498
 7976TIP3    H248124   6.678   5.513   0.291
 7977TIP3   OH248125   7.365   5.493   1.428
 7977TIP3    H148126   7.349   5.400   1.344
 7977TIP3    H248127   7.361   5.540   1.173
 7978TIP3   OH248128   5.937   3.926   4.854
 7978TIP3    H148129   5.906   3.835   4.809
 7978TIP3    H248130   6.018   3.905   5.007
 7979TIP3   OH248131   6.120   3.850   5.487
 7979TIP3    H148132   6.206   3.827   5.370
 7979TIP3    H248133   6.081   3.761   5.514
 7980TIP3   OH248134   6.043   5.562   0.399
 7980TIP3    H148135   5.980   5.583   0.609
 7980TIP3    H248136   6.073   5.473   0.471
 7981TIP3   OH248137   7.015   3.770   5.610
 7981TIP3    H148138   7.027   3.677   5.688
 7981TIP3    H248139   7.090   3.776   5.418
 7982TIP3   OH248140   7.290   5.367   5.028
 7982TIP3    H148141   7.235   5.376   4.785
 7982TIP3    H248142   7.279   5.458   5.127
 7983TIP3   OH248143   7.574   4.452   1.734
 7983TIP3    H148144   7.547   4.545   1.731
 7983TIP3    H248145   7.536   4.423   1.476
 7984TIP3   OH248146   7.582   4.902   4.050
 7984TIP3    H148147   7.533   4.899   3.795
 7984TIP3    H248148   7.581   4.810   4.146
 7985TIP3   OH248149   7.548   5.192   3.114
 7985TIP3    H148150   7.641   5.200   3.015
 7985TIP3    H248151   7.546   5.267   3.297
 7986TIP3   OH248152   7.545   4.128   2.220
 7986TIP3    H148153   7.627   4.179   2.283
 7986TIP3    H248154   7.550   4.126   1.929
 7987TIP3   OH248155   7.597   4.655   4.380
 7987TIP3    H148156   7.578   4.600   4.620
 7987TIP3    H248157   7.525   4.626   4.203
 7988TIP3   OH248158   7.642   4.857   5.325
 7988TIP3    H148159   7.606   4.771   5.406
 7988TIP3    H248160   7.571   4.897   5.160
 7989TIP3   OH248161   7.511   5.621   1.989
 7989TIP3    H148162   7.454   5.580   1.782
 7989TIP3    H248163   7.536   5.539   2.136
 7990TIP3   OH248164   7.558   5.405   2.451
 7990TIP3    H148165   7.525   5.314   2.487
 7990TIP3    H248166   7.593   5.423   2.718
 7991TIP3   OH248167   7.633   4.681   3.300
 7991TIP3    H148168   7.594   4.730   3.075
 7991TIP3    H248169   7.711   4.738   3.351
 7992TIP3   OH248170   7.554   4.274   5.154
 7992TIP3    H148171   7.649   4.269   5.076
 7992TIP3    H248172   7.524   4.181   5.148
 7993TIP3   OH248173   7.511   4.397   3.123
 7993TIP3    H148174   7.608   4.384   3.081
 7993TIP3    H248175   7.513   4.488   3.216
 7994TIP3   OH248176   7.519   4.067   1.284
 7994TIP3    H148177   7.423   4.076   1.344
 7994TIP3    H248178   7.518   4.067   0.987
 7995TIP3   OH248179   7.493   3.878   3.816
 7995TIP3    H148180   7.474   3.885   4.101
 7995TIP3    H248181   7.443   3.953   3.702
 7996TIP3   OH248182   1.224   6.668   2.070
 7996TIP3    H148183   1.203   6.756   2.166
 7996TIP3    H248184   1.154   6.656   1.869
 7997TIP3   OH248185   1.115   6.542   3.087
 7997TIP3    H148186   1.105   6.502   3.357
 7997TIP3    H248187   1.053   6.489   2.925
 7998TIP3   OH248188   0.311   6.548   3.498
 7998TIP3    H148189   0.296   6.464   3.639
 7998TIP3    H248190   0.384   6.583   3.657
 7999TIP3   OH248191   1.438   6.834   2.643
 7999TIP3    H148192   1.431   6.765   2.847
 7999TIP3    H248193   1.432   6.915   2.802
 8000TIP3   OH248194   0.376   6.979   3.189
 8000TIP3    H148195   0.377   6.892   3.039
 8000TIP3    H248196   0.465   7.009   3.108
 8001TIP3   OH248197   0.153   6.376   1.638
 8001TIP3    H148198   0.134   6.405   1.908
 8001TIP3    H248199   0.070   6.328   1.584
 8002TIP3   OH248200   0.104   6.548   2.505
 8002TIP3    H148201   0.160   6.472   2.589
 8002TIP3    H248202   0.166   6.601   2.352
 8003TIP3   OH248203   1.156   7.344   2.514
 8003TIP3    H148204   1.248   7.311   2.472
 8003TIP3    H248205   1.129   7.285   2.730
 8004TIP3   OH248206   0.947   6.834   3.216
 8004TIP3    H148207   0.977   6.757   3.066
 8004TIP3    H248208   1.026   6.854   3.375
 8005TIP3   OH248209   1.789   5.990   3.246
 8005TIP3    H148210   1.788   6.038   3.504
 8005TIP3    H248211   1.879   6.011   3.159
 8006TIP3   OH248212   1.272   6.278   3.435
 8006TIP3    H148213   1.292   6.183   3.459
 8006TIP3    H248214   1.255   6.286   3.150
 8007TIP3   OH248215   0.585   6.053   2.418
 8007TIP3    H148216   0.592   6.132   2.244
 8007TIP3    H248217   0.545   5.990   2.229
 8008TIP3   OH248218   1.312   6.082   2.028
 8008TIP3    H148219   1.369   6.036   2.229
 8008TIP3    H248220   1.376   6.146   1.920
 8009TIP3   OH248221   0.278   6.337   2.631
 8009TIP3    H148222   0.332   6.280   2.808
 8009TIP3    H248223   0.292   6.291   2.376
 8010TIP3   OH248224   0.698   6.464   2.535
 8010TIP3    H148225   0.786   6.425   2.589
 8010TIP3    H248226   0.660   6.392   2.367
 8011TIP3   OH248227   1.796   6.104   3.996
 8011TIP3    H148228   1.754   6.194   4.014
 8011TIP3    H248229   1.869   6.118   4.185
 8012TIP3   OH248230   0.470   5.970   3.657
 8012TIP3    H148231   0.438   6.020   3.423
 8012TIP3    H248232   0.412   6.007   3.864
 8013TIP3   OH248233   1.148   6.924   1.773
 8013TIP3    H148234   1.144   6.910   1.482
 8013TIP3    H248235   1.126   7.018   1.788
 8014TIP3   OH248236   0.734   6.732   3.609
 8014TIP3    H148237   0.682   6.804   3.729
 8014TIP3    H248238   0.800   6.784   3.459
 8015TIP3   OH248239   1.512   6.011   2.520
 8015TIP3    H148240   1.501   5.948   2.739
 8015TIP3    H248241   1.596   6.052   2.592
 8016TIP3   OH248242   0.416   6.159   3.081
 8016TIP3    H148243   0.474   6.225   3.219
 8016TIP3    H248244   0.477   6.129   2.865
 8017TIP3   OH248245   0.599   6.952   3.960
 8017TIP3    H148246   0.600   7.048   4.014
 8017TIP3    H248247   0.535   6.915   4.155
 8018TIP3   OH248248   0.134   6.844   1.230
 8018TIP3    H148249   0.122   6.890   0.969
 8018TIP3    H248250   0.157   6.917   1.413
 8019TIP3   OH248251   1.512   7.107   3.369
 8019TIP3    H148252   1.415   7.101   3.387
 8019TIP3    H248253   1.520   7.169   3.147
 8020TIP3   OH248254   1.529   5.916   3.612
 8020TIP3    H148255   1.455   5.932   3.420
 8020TIP3    H248256   1.605   5.953   3.462
 8021TIP3   OH248257   0.825   5.714   2.844
 8021TIP3    H148258   0.798   5.622   2.874
 8021TIP3    H248259   0.741   5.759   2.928
 8022TIP3   OH248260   1.392   7.232   2.376
 8022TIP3    H148261   1.387   7.151   2.214
 8022TIP3    H248262   1.456   7.282   2.208
 8023TIP3   OH248263   1.472   7.007   1.893
 8023TIP3    H148264   1.434   6.976   1.641
 8023TIP3    H248265   1.464   6.927   2.058
 8024TIP3   OH248266   1.618   6.897   4.377
 8024TIP3    H148267   1.637   6.825   4.185
 8024TIP3    H248268   1.638   6.974   4.206
 8025TIP3   OH248269   1.084   6.616   1.344
 8025TIP3    H148270   1.028   6.692   1.257
 8025TIP3    H248271   1.159   6.617   1.158
 8026TIP3   OH248272   1.104   6.459   0.426
 8026TIP3    H148273   1.173   6.502   0.594
 8026TIP3    H248274   1.145   6.371   0.381
 8027TIP3   OH248275   1.820   6.532   3.753
 8027TIP3    H148276   1.761   6.609   3.771
 8027TIP3    H248277   1.882   6.562   3.546
 8028TIP3   OH248278   1.434   6.575   1.626
 8028TIP3    H148279   1.365   6.612   1.806
 8028TIP3    H248280   1.501   6.543   1.821
 8029TIP3   OH248281   1.424   6.438   4.317
 8029TIP3    H148282   1.406   6.523   4.446
 8029TIP3    H248283   1.364   6.441   4.089
 8030TIP3   OH248284   0.584   6.681   2.172
 8030TIP3    H148285   0.524   6.653   1.956
 8030TIP3    H248286   0.621   6.595   2.253
 8031TIP3   OH248287   0.708   7.000   2.955
 8031TIP3    H148288   0.736   6.997   2.673
 8031TIP3    H248289   0.783   6.960   3.090
 8032TIP3   OH248290   0.618   6.519   3.267
 8032TIP3    H148291   0.649   6.528   2.988
 8032TIP3    H248292   0.662   6.596   3.396
 8033TIP3   OH248293   1.246   7.104   3.465
 8033TIP3    H148294   1.209   7.174   3.636
 8033TIP3    H248295   1.223   7.023   3.615
 8034TIP3   OH248296   0.701   6.997   4.758
 8034TIP3    H148297   0.631   7.059   4.854
 8034TIP3    H248298   0.674   6.983   4.482
 8035TIP3   OH248299   1.306   6.552   0.921
 8035TIP3    H148300   1.355   6.556   1.179
 8035TIP3    H248301   1.370   6.597   0.738
 8036TIP3   OH248302   0.438   6.613   4.296
 8036TIP3    H148303   0.446   6.666   4.542
 8036TIP3    H248304   0.346   6.583   4.314
 8037TIP3   OH248305   1.087   7.208   1.758
 8037TIP3    H148306   1.104   7.234   2.037
 8037TIP3    H248307   1.026   7.277   1.677
 8038TIP3   OH248308   0.506   7.181   4.890
 8038TIP3    H148309   0.492   7.188   4.602
 8038TIP3    H248310   0.417   7.155   4.986
 8039TIP3   OH248311   1.710   5.690   0.960
 8039TIP3    H148312   1.612   5.691   0.981
 8039TIP3    H248313   1.725   5.783   0.891
 8040TIP3   OH248314   0.426   6.556   1.560
 8040TIP3    H148315   0.396   6.623   1.362
 8040TIP3    H248316   0.411   6.474   1.416
 8041TIP3   OH248317   1.805   7.151   0.456
 8041TIP3    H148318   1.857   7.232   0.396
 8041TIP3    H248319   1.872   7.080   0.441
 8042TIP3   OH248320   0.164   6.798   4.131
 8042TIP3    H148321   0.066   6.792   4.125
 8042TIP3    H248322   0.185   6.705   4.080
 8043TIP3   OH248323   0.118   7.115   2.973
 8043TIP3    H148324   0.190   7.050   3.024
 8043TIP3    H248325   0.100   7.147   3.240
 8044TIP3   OH248326   1.864   7.157   4.905
 8044TIP3    H148327   1.845   7.062   4.929
 8044TIP3    H248328   1.774   7.193   4.968
 8045TIP3   OH248329   0.975   7.086   4.521
 8045TIP3    H148330   0.981   7.180   4.602
 8045TIP3    H248331   0.885   7.061   4.611
 8046TIP3   OH248332   1.073   7.518   1.464
 8046TIP3    H148333   1.069   7.502   1.176
 8046TIP3    H248334   1.038   7.607   1.494
 8047TIP3   OH248335   0.408   7.335   2.004
 8047TIP3    H148336   0.430   7.329   2.289
 8047TIP3    H248337   0.319   7.296   2.007
 8048TIP3   OH248338   1.327   7.420   0.681
 8048TIP3    H148339   1.375   7.357   0.504
 8048TIP3    H248340   1.335   7.373   0.939
 8049TIP3   OH248341   1.290   7.367   1.443
 8049TIP3    H148342   1.213   7.420   1.524
 8049TIP3    H248343   1.258   7.277   1.500
 8050TIP3   OH248344   1.555   6.301   4.989
 8050TIP3    H148345   1.519   6.328   4.731
 8050TIP3    H248346   1.580   6.209   4.935
 8051TIP3   OH248347   0.382   6.907   4.416
 8051TIP3    H148348   0.372   6.890   4.701
 8051TIP3    H248349   0.313   6.845   4.311
 8052TIP3   OH248350   0.598   5.813   3.132
 8052TIP3    H148351   0.510   5.819   3.003
 8052TIP3    H248352   0.578   5.858   3.384
 8053TIP3   OH248353   1.064   5.753   4.092
 8053TIP3    H148354   1.102   5.697   4.308
 8053TIP3    H248355   0.967   5.748   4.140
 8054TIP3   OH248356   1.351   6.158   4.458
 8054TIP3    H148357   1.312   6.121   4.704
 8054TIP3    H248358   1.314   6.248   4.449
 8055TIP3   OH248359   1.469   6.661   0.420
 8055TIP3    H148360   1.430   6.672   0.150
 8055TIP3    H248361   1.562   6.679   0.351
 8056TIP3   OH248362   1.025   6.038   0.438
 8056TIP3    H148363   0.978   5.999   0.672
 8056TIP3    H248364   0.978   5.993   0.222
 8057TIP3   OH248365   0.600   6.274   3.543
 8057TIP3    H148366   0.520   6.286   3.708
 8057TIP3    H248367   0.614   6.368   3.453
 8058TIP3   OH248368   0.613   6.278   1.998
 8058TIP3    H148369   0.517   6.287   1.929
 8058TIP3    H248370   0.649   6.253   1.737
 8059TIP3   OH248371   1.168   6.383   1.713
 8059TIP3    H148372   1.131   6.462   1.581
 8059TIP3    H248373   1.220   6.344   1.494
 8060TIP3   OH248374   1.048   6.377   5.067
 8060TIP3    H148375   1.001   6.300   5.187
 8060TIP3    H248376   1.128   6.381   5.229
 8061TIP3   OH248377   1.241   6.306   2.556
 8061TIP3    H148378   1.239   6.383   2.373
 8061TIP3    H248379   1.230   6.233   2.364
 8062TIP3   OH248380   0.356   6.289   3.915
 8062TIP3    H148381   0.385   6.321   4.176
 8062TIP3    H248382   0.327   6.197   3.984
 8063TIP3   OH248383   0.667   6.067   0.159
 8063TIP3    H148384   0.638   6.023   0.402
 8063TIP3    H248385   0.598   6.131   0.102
 8064TIP3   OH248386   0.139   6.069   2.193
 8064TIP3    H148387   0.160   6.008   2.415
 8064TIP3    H248388   0.127   6.011   1.962
 8065TIP3   OH248389   0.116   6.091   0.828
 8065TIP3    H148390   0.186   6.134   0.672
 8065TIP3    H248391   0.050   6.161   0.846
 8066TIP3   OH248392   1.121   6.451   3.837
 8066TIP3    H148393   1.193   6.397   3.714
 8066TIP3    H248394   1.084   6.384   4.023
 8067TIP3   OH248395   0.871   6.054   2.343
 8067TIP3    H148396   0.776   6.065   2.403
 8067TIP3    H248397   0.906   6.012   2.586
 8068TIP3   OH248398   0.360   6.234   1.884
 8068TIP3    H148399   0.289   6.264   1.701
 8068TIP3    H248400   0.343   6.138   1.896
 8069TIP3   OH248401   0.689   6.205   1.230
 8069TIP3    H148402   0.782   6.234   1.260
 8069TIP3    H248403   0.650   6.277   1.068
 8070TIP3   OH248404   1.302   5.973   3.237
 8070TIP3    H148405   1.238   5.978   3.462
 8070TIP3    H248406   1.254   5.923   3.030
 8071TIP3   OH248407   0.592   6.372   0.639
 8071TIP3    H148408   0.517   6.325   0.510
 8071TIP3    H248409   0.664   6.369   0.441
 8072TIP3   OH248410   1.566   7.542   5.145
 8072TIP3    H148411   1.584   7.575   4.875
 8072TIP3    H248412   1.653   7.563   5.277
 8073TIP3   OH248413   0.411   6.762   5.094
 8073TIP3    H148414   0.485   6.793   5.262
 8073TIP3    H248415   0.339   6.801   5.253
 8074TIP3   OH248416   0.959   6.335   2.781
 8074TIP3    H148417   1.042   6.303   2.667
 8074TIP3    H248418   0.941   6.268   2.985
 8075TIP3   OH248419   0.409   5.964   1.824
 8075TIP3    H148420   0.358   5.889   1.938
 8075TIP3    H248421   0.413   5.940   1.542
 8076TIP3   OH248422   0.838   6.144   3.567
 8076TIP3    H148423   0.757   6.199   3.534
 8076TIP3    H248424   0.894   6.205   3.717
 8077TIP3   OH248425   0.899   6.804   1.158
 8077TIP3    H148426   0.821   6.755   1.053
 8077TIP3    H248427   0.864   6.828   1.425
 8078TIP3   OH248428   1.638   6.739   3.762
 8078TIP3    H148429   1.683   6.792   3.552
 8078TIP3    H248430   1.550   6.731   3.639
 8079TIP3   OH248431   1.277   6.080   0.582
 8079TIP3    H148432   1.179   6.083   0.534
 8079TIP3    H248433   1.294   6.168   0.699
 8080TIP3   OH248434   0.990   6.812   4.479
 8080TIP3    H148435   1.011   6.781   4.743
 8080TIP3    H248436   0.994   6.909   4.512
 8081TIP3   OH248437   1.335   6.289   1.032
 8081TIP3    H148438   1.416   6.266   1.185
 8081TIP3    H248439   1.354   6.379   0.945
 8082TIP3   OH248440   0.422   6.751   2.787
 8082TIP3    H148441   0.468   6.738   2.523
 8082TIP3    H248442   0.458   6.676   2.934
 8083TIP3   OH248443   1.109   6.951   0.993
 8083TIP3    H148444   1.072   7.043   0.993
 8083TIP3    H248445   1.027   6.895   1.020
 8084TIP3   OH248446   0.180   6.528   4.299
 8084TIP3    H148447   0.180   6.518   4.593
 8084TIP3    H248448   0.084   6.515   4.251
 8085TIP3   OH248449   0.811   6.532   4.989
 8085TIP3    H148450   0.748   6.477   4.833
 8085TIP3    H248451   0.893   6.477   4.998
 8086TIP3   OH248452   1.290   7.046   4.536
 8086TIP3    H148453   1.208   7.067   4.398
 8086TIP3    H248454   1.275   7.098   4.782
 8087TIP3   OH248455   1.841   6.278   1.053
 8087TIP3    H148456   1.769   6.262   0.861
 8087TIP3    H248457   1.849   6.375   1.026
 8088TIP3   OH248458   1.850   6.872   4.788
 8088TIP3    H148459   1.761   6.883   4.668
 8088TIP3    H248460   1.904   6.858   4.545
 8089TIP3   OH248461   1.675   7.117   1.152
 8089TIP3    H148462   1.602   7.054   1.143
 8089TIP3    H248463   1.710   7.117   0.876
 8090TIP3   OH248464   1.397   6.639   3.186
 8090TIP3    H148465   1.305   6.639   3.090
 8090TIP3    H248466   1.438   6.577   2.994
 8091TIP3   OH248467   0.637   7.072   2.136
 8091TIP3    H148468   0.666   7.153   1.992
 8091TIP3    H248469   0.542   7.071   2.082
 8092TIP3   OH248470   0.229   6.552   0.387
 8092TIP3    H148471   0.290   6.616   0.513
 8092TIP3    H248472   0.151   6.557   0.558
 8093TIP3   OH248473   0.783   6.854   1.911
 8093TIP3    H148474   0.728   6.934   1.962
 8093TIP3    H248475   0.735   6.786   2.061
 8094TIP3   OH248476   0.830   7.258   3.999
 8094TIP3    H148477   0.862   7.350   3.987
 8094TIP3    H248478   0.912   7.207   4.038
 8095TIP3   OH248479   0.664   7.314   1.794
 8095TIP3    H148480   0.568   7.336   1.803
 8095TIP3    H248481   0.705   7.392   1.923
 8096TIP3   OH248482   1.150   6.851   3.768
 8096TIP3    H148483   1.100   6.811   3.990
 8096TIP3    H248484   1.213   6.779   3.717
 8097TIP3   OH248485   1.420   6.965   0.387
 8097TIP3    H148486   1.450   6.922   0.636
 8097TIP3    H248487   1.325   6.960   0.435
 8098TIP3   OH248488   1.454   7.316   4.479
 8098TIP3    H148489   1.380   7.260   4.383
 8098TIP3    H248490   1.465   7.386   4.278
 8099TIP3   OH248491   1.902   7.398   0.396
 8099TIP3    H148492   1.964   7.471   0.444
 8099TIP3    H248493   1.820   7.433   0.528
 8100TIP3   OH248494   0.294   6.057   4.275
 8100TIP3    H148495   0.256   6.096   4.521
 8100TIP3    H248496   0.266   5.965   4.305
 8101TIP3   OH248497   1.496   6.836   1.068
 8101TIP3    H148498   1.482   6.741   1.086
 8101TIP3    H248499   1.594   6.839   1.074
 8102TIP3   OH248500   0.233   7.233   3.903
 8102TIP3    H148501   0.199   7.273   3.657
 8102TIP3    H248502   0.241   7.317   4.053
 8103TIP3   OH248503   0.679   7.021   0.714
 8103TIP3    H148504   0.756   6.974   0.819
 8103TIP3    H248505   0.691   7.113   0.807
 8104TIP3   OH248506   0.356   6.729   0.957
 8104TIP3    H148507   0.278   6.773   1.080
 8104TIP3    H248508   0.404   6.804   0.837
 8105TIP3   OH248509   1.170   6.011   3.993
 8105TIP3    H148510   1.244   6.032   4.170
 8105TIP3    H248511   1.139   5.924   4.089
 8106TIP3   OH248512   1.237   5.943   1.392
 8106TIP3    H148513   1.249   6.006   1.170
 8106TIP3    H248514   1.282   5.990   1.617
 8107TIP3   OH248515   1.019   7.198   0.852
 8107TIP3    H148516   0.936   7.208   0.993
 8107TIP3    H248517   1.033   7.289   0.753
 8108TIP3   OH248518   0.950   6.155   1.617
 8108TIP3    H148519   1.014   6.227   1.656
 8108TIP3    H248520   0.922   6.132   1.890
 8109TIP3   OH248521   1.034   6.263   4.332
 8109TIP3    H148522   1.033   6.298   4.608
 8109TIP3    H248523   1.067   6.171   4.359
 8110TIP3   OH248524   1.014   5.835   1.722
 8110TIP3    H148525   0.981   5.916   1.848
 8110TIP3    H248526   1.098   5.871   1.605
 8111TIP3   OH248527   0.722   7.294   0.945
 8111TIP3    H148528   0.733   7.378   0.798
 8111TIP3    H248529   0.677   7.324   1.191
 8112TIP3   OH248530   0.571   5.961   0.981
 8112TIP3    H148531   0.584   6.048   1.110
 8112TIP3    H248532   0.661   5.923   1.008
 8113TIP3   OH248533   1.596   6.044   4.596
 8113TIP3    H148534   1.506   6.073   4.515
 8113TIP3    H248535   1.645   6.050   4.344
 8114TIP3   OH248536   1.486   6.401   2.739
 8114TIP3    H148537   1.406   6.345   2.745
 8114TIP3    H248538   1.547   6.354   2.922
 8115TIP3   OH248539   0.412   6.979   0.546
 8115TIP3    H148540   0.486   7.032   0.651
 8115TIP3    H248541   0.462   6.928   0.348
 8116TIP3   OH248542   0.329   6.284   0.426
 8116TIP3    H148543   0.307   6.376   0.501
 8116TIP3    H248544   0.246   6.265   0.273
 8117TIP3   OH248545   1.596   7.412   3.333
 8117TIP3    H148546   1.587   7.440   3.051
 8117TIP3    H248547   1.694   7.396   3.339
 8118TIP3   OH248548   0.341   5.768   2.913
 8118TIP3    H148549   0.327   5.743   2.631
 8118TIP3    H248550   0.313   5.684   3.045
 8119TIP3   OH248551   0.212   7.113   1.602
 8119TIP3    H148552   0.126   7.145   1.683
 8119TIP3    H248553   0.232   7.177   1.386
 8120TIP3   OH248554   0.148   7.420   5.031
 8120TIP3    H148555   0.228   7.413   5.196
 8120TIP3    H248556   0.093   7.348   5.130
 8121TIP3   OH248557   0.608   7.257   5.646
 8121TIP3    H148558   0.700   7.288   5.640
 8121TIP3    H248559   0.587   7.242   5.364
 8122TIP3   OH248560   1.041   7.229  29.937
 8122TIP3    H148561   0.967   7.167  29.916
 8122TIP3    H248562   1.101   7.186  30.123
 8123TIP3   OH248563   1.251   7.159   5.286
 8123TIP3    H148564   1.209   7.074   5.367
 8123TIP3    H248565   1.327   7.159   5.466
 8124TIP3   OH248566   1.428   7.228   0.243
 8124TIP3    H148567   1.466   7.139   0.279
 8124TIP3    H248568   1.495   7.277   0.081
 8125TIP3   OH248569   0.178   6.841   5.484
 8125TIP3    H148570   0.188   6.747   5.430
 8125TIP3    H248571   0.083   6.844   5.412
 8126TIP3   OH248572   0.613   6.806   0.147
 8126TIP3    H148573   0.642   6.779   0.414
 8126TIP3    H248574   0.684   6.772  -0.024
 8127TIP3   OH248575   0.797   6.795   5.226
 8127TIP3    H148576   0.772   6.849   4.992
 8127TIP3    H248577   0.804   6.704   5.112
 8128TIP3   OH248578   1.367   6.765   4.482
 8128TIP3    H148579   1.453   6.814   4.479
 8128TIP3    H248580   1.309   6.843   4.503
 8129TIP3   OH248581   0.222   6.495   5.310
 8129TIP3    H148582   0.312   6.460   5.331
 8129TIP3    H248583   0.206   6.535   5.574
 8130TIP3   OH248584   0.702   6.637   0.873
 8130TIP3    H148585   0.633   6.583   1.002
 8130TIP3    H248586   0.739   6.573   0.681
 8131TIP3   OH248587   0.630   6.422   4.440
 8131TIP3    H148588   0.565   6.492   4.380
 8131TIP3    H248589   0.699   6.445   4.242
 8132TIP3   OH248590   0.828   6.464   0.258
 8132TIP3    H148591   0.851   6.420   0.006
 8132TIP3    H248592   0.917   6.465   0.384
 8133TIP3   OH248593   1.150   6.672   5.463
 8133TIP3    H148594   1.228   6.630   5.343
 8133TIP3    H248595   1.116   6.599   5.634
 8134TIP3   OH248596   1.694   6.647  30.018
 8134TIP3    H148597   1.752   6.618  29.802
 8134TIP3    H248598   1.718   6.743  30.018
 8135TIP3   OH248599   0.674   6.169   4.665
 8135TIP3    H148600   0.694   6.110   4.437
 8135TIP3    H248601   0.668   6.258   4.539
 8136TIP3   OH248602   0.712   5.989   4.059
 8136TIP3    H148603   0.774   6.027   3.861
 8136TIP3    H248604   0.629   5.996   3.903
 8137TIP3   OH248605   0.838   6.511   3.990
 8137TIP3    H148606   0.935   6.514   3.975
 8137TIP3    H248607   0.811   6.599   3.891
 8138TIP3   OH248608   1.341   6.282   5.547
 8138TIP3    H148609   1.355   6.189   5.484
 8138TIP3    H248610   1.430   6.317   5.481
 8139TIP3   OH248611   1.446   6.606   5.139
 8139TIP3    H148612   1.419   6.659   4.905
 8139TIP3    H248613   1.537   6.578   5.067
 8140TIP3   OH248614   0.492   6.278   5.313
 8140TIP3    H148615   0.422   6.211   5.325
 8140TIP3    H248616   0.540   6.251   5.073
 8141TIP3   OH248617   0.790   5.733   4.098
 8141TIP3    H148618   0.755   5.825   4.104
 8141TIP3    H248619   0.713   5.684   3.999
 8142TIP3   OH248620   0.905   6.158   5.286
 8142TIP3    H148621   0.843   6.124   5.490
 8142TIP3    H248622   0.849   6.150   5.049
 8143TIP3   OH248623   1.176   6.068   5.043
 8143TIP3    H148624   1.081   6.068   5.106
 8143TIP3    H248625   1.211   6.017   5.271
 8144TIP3   OH248626   1.333   5.925   5.568
 8144TIP3    H148627   1.326   5.828   5.553
 8144TIP3    H248628   1.319   5.945   5.853
 8145TIP3   OH248629   0.312   6.076   5.343
 8145TIP3    H148630   0.348   5.998   5.208
 8145TIP3    H248631   0.285   6.036   5.604
 8146TIP3   OH248632   0.788   5.702   4.950
 8146TIP3    H148633   0.866   5.644   4.947
 8146TIP3    H248634   0.777   5.712   4.659
 8147TIP3   OH248635   0.789   5.798   5.715
 8147TIP3    H148636   0.782   5.762   5.439
 8147TIP3    H248637   0.750   5.887   5.685
 8148TIP3   OH248638   0.785   7.522   0.522
 8148TIP3    H148639   0.870   7.537   0.651
 8148TIP3    H248640   0.808   7.531   0.237
 8149TIP3   OH248641   0.147   6.950   0.489
 8149TIP3    H148642   0.243   6.970   0.543
 8149TIP3    H248643   0.155   6.914   0.222
 8150TIP3   OH248644   0.058   7.517   1.617
 8150TIP3    H148645  -0.039   7.531   1.617
 8150TIP3    H248646   0.062   7.463   1.857
 8151TIP3   OH248647   0.164   7.324   2.331
 8151TIP3    H148648   0.146   7.229   2.313
 8151TIP3    H248649   0.166   7.338   2.616
 8152TIP3   OH248650   1.868   7.413   3.297
 8152TIP3    H148651   1.885   7.462   3.546
 8152TIP3    H248652   1.937   7.450   3.126
 8153TIP3   OH248653   1.809   7.330   4.275
 8153TIP3    H148654   1.779   7.264   4.080
 8153TIP3    H248655   1.849   7.270   4.473
 8154TIP3   OH248656   1.668   6.949   5.613
 8154TIP3    H148657   1.584   6.946   5.769
 8154TIP3    H248658   1.704   7.036   5.706
 8155TIP3   OH248659   1.760   6.785   1.128
 8155TIP3    H148660   1.848   6.823   1.185
 8155TIP3    H248661   1.743   6.734   1.371
 8156TIP3   OH248662   1.810   6.585   1.878
 8156TIP3    H148663   1.732   6.527   1.926
 8156TIP3    H248664   1.835   6.610   2.151
 8157TIP3   OH248665   1.788   6.846   3.201
 8157TIP3    H148666   1.846   6.766   3.192
 8157TIP3    H248667   1.849   6.916   3.114
 8158TIP3   OH248668   1.666   7.125   3.987
 8158TIP3    H148669   1.595   7.174   4.119
 8158TIP3    H248670   1.624   7.110   3.723
 8159TIP3   OH248671   1.866   6.572   0.669
 8159TIP3    H148672   1.801   6.598   0.465
 8159TIP3    H248673   1.860   6.650   0.846
 8160TIP3   OH248674   1.633   6.259   0.480
 8160TIP3    H148675   1.607   6.341   0.339
 8160TIP3    H248676   1.688   6.217   0.273
 8161TIP3   OH248677   1.615   6.423   2.040
 8161TIP3    H148678   1.593   6.332   1.968
 8161TIP3    H248679   1.587   6.426   2.322
 8162TIP3   OH248680   0.160   6.730   3.102
 8162TIP3    H148681   0.160   6.669   2.871
 8162TIP3    H248682   0.234   6.691   3.255
 8163TIP3   OH248683   1.713   6.619   4.854
 8163TIP3    H148684   1.758   6.531   4.866
 8163TIP3    H248685   1.786   6.682   4.845
 8164TIP3   OH248686   1.824   6.369   4.932
 8164TIP3    H148687   1.735   6.341   5.019
 8164TIP3    H248688   1.879   6.337   5.157
 8165TIP3   OH248689   1.623   6.027  -0.048
 8165TIP3    H148690   1.680   5.986   0.153
 8165TIP3    H248691   1.535   6.013   0.063
 8166TIP3   OH248692   1.542   6.202   1.494
 8166TIP3    H148693   1.575   6.115   1.584
 8166TIP3    H248694   1.619   6.228   1.338
 8167TIP3   OH248695   1.657   6.262   3.234
 8167TIP3    H148696   1.756   6.272   3.234
 8167TIP3    H248697   1.643   6.269   3.522
 8168TIP3   OH248698   1.651   6.328   4.014
 8168TIP3    H148699   1.558   6.356   4.059
 8168TIP3    H248700   1.694   6.416   3.987
 8169TIP3   OH248701   0.121   6.137   4.833
 8169TIP3    H148702   0.188   6.167   5.025
 8169TIP3    H248703   0.111   6.044   4.911
 8170TIP3   OH248704   1.904   5.734   5.628
 8170TIP3    H148705   1.934   5.664   5.445
 8170TIP3    H248706   1.885   5.804   5.427
 8171TIP3   OH248707   1.662   5.955   1.560
 8171TIP3    H148708   1.692   5.912   1.809
 8171TIP3    H248709   1.601   5.885   1.467
 8172TIP3   OH248710   0.183   5.986   3.015
 8172TIP3    H148711   0.245   5.910   3.048
 8172TIP3    H248712   0.238   6.064   3.066
 8173TIP3   OH248713   0.077   6.297   3.204
 8173TIP3    H148714   0.150   6.296   3.009
 8173TIP3    H248715   0.102   6.370   3.378
 8174TIP3   OH248716   1.800   5.914   5.142
 8174TIP3    H148717   1.741   5.976   5.283
 8174TIP3    H248718   1.764   5.920   4.872
 8175TIP3   OH248719   1.835   5.941   0.501
 8175TIP3    H148720   1.882   5.899   0.279
 8175TIP3    H248721   1.903   6.005   0.588
 8176TIP3   OH248722   0.103   5.924   1.437
 8176TIP3    H148723   0.006   5.917   1.443
 8176TIP3    H248724   0.113   5.975   1.185
 8177TIP3   OH248725   1.525   7.407   1.932
 8177TIP3    H148726   1.611   7.400   1.794
 8177TIP3    H248727   1.549   7.459   2.169
 8178TIP3   OH248728   0.071   5.762   3.969
 8178TIP3    H148729  -0.017   5.750   4.083
 8178TIP3    H248730   0.050   5.822   3.747
 8179TIP3   OH248731   0.265   7.104   5.160
 8179TIP3    H148732   0.181   7.110   5.022
 8179TIP3    H248733   0.239   7.126   5.433
 8180TIP3   OH248734   0.561   7.208   4.086
 8180TIP3    H148735   0.538   7.296   3.969
 8180TIP3    H248736   0.658   7.224   4.116
 8181TIP3   OH248737   1.009   7.335   4.860
 8181TIP3    H148738   0.997   7.308   5.136
 8181TIP3    H248739   1.094   7.383   4.866
 8182TIP3   OH248740   1.247   7.512   4.740
 8182TIP3    H148741   1.313   7.448   4.650
 8182TIP3    H248742   1.277   7.523   5.019
 8183TIP3   OH248743   1.719   5.724   4.461
 8183TIP3    H148744   1.651   5.767   4.299
 8183TIP3    H248745   1.732   5.639   4.323
 8184TIP3   OH248746   0.284   7.499   4.041
 8184TIP3    H148747   0.215   7.552   3.888
 8184TIP3    H248748   0.267   7.537   4.302
 8185TIP3   OH248749   0.539   7.446   3.771
 8185TIP3    H148750   0.456   7.488   3.870
 8185TIP3    H248751   0.559   7.499   3.531
 8186TIP3   OH248752   1.033   7.463   3.558
 8186TIP3    H148753   0.958   7.480   3.372
 8186TIP3    H248754   1.040   7.550   3.681
 8187TIP3   OH248755   1.216   7.322   3.981
 8187TIP3    H148756   1.142   7.370   3.849
 8187TIP3    H248757   1.290   7.376   3.885
 8188TIP3   OH248758   1.470   7.541   3.900
 8188TIP3    H148759   1.437   7.628   3.816
 8188TIP3    H248760   1.504   7.503   3.645
 8189TIP3   OH248761   0.278   7.380   3.234
 8189TIP3    H148762   0.333   7.408   3.459
 8189TIP3    H248763   0.348   7.350   3.045
 8190TIP3   OH248764   0.473   7.286   2.748
 8190TIP3    H148765   0.500   7.195   2.685
 8190TIP3    H248766   0.550   7.310   2.919
 8191TIP3   OH248767   0.697   7.277   3.165
 8191TIP3    H148768   0.745   7.199   3.060
 8191TIP3    H248769   0.728   7.278   3.441
 8192TIP3   OH248770   1.057   5.860   2.766
 8192TIP3    H148771   0.977   5.822   2.892
 8192TIP3    H248772   1.067   5.802   2.538
 8193TIP3   OH248773   1.589   5.684   2.712
 8193TIP3    H148774   1.655   5.740   2.568
 8193TIP3    H248775   1.506   5.704   2.562
 8194TIP3   OH248776   1.757   5.799   2.175
 8194TIP3    H148777   1.821   5.741   2.031
 8194TIP3    H248778   1.816   5.874   2.256
 8195TIP3   OH248779   0.341   5.716   2.076
 8195TIP3    H148780   0.256   5.703   1.938
 8195TIP3    H248781   0.387   5.631   2.022
 8196TIP3   OH248782   0.146   5.737   0.696
 8196TIP3    H148783   0.204   5.798   0.546
 8196TIP3    H248784   0.129   5.792   0.927
 8197TIP3   OH248785   0.748   5.669   2.064
 8197TIP3    H148786   0.804   5.733   1.932
 8197TIP3    H248787   0.760   5.694   2.346
 8198TIP3   OH248788   1.339   5.718   2.370
 8198TIP3    H148789   1.282   5.722   2.136
 8198TIP3    H248790   1.290   5.653   2.538
 8199TIP3   OH248791   1.468   5.716   1.233
 8199TIP3    H148792   1.402   5.784   1.182
 8199TIP3    H248793   1.424   5.652   1.410
 8200TIP3   OH248794   0.202   7.317   1.083
 8200TIP3    H148795   0.110   7.295   1.017
 8200TIP3    H248796   0.196   7.414   1.056
 8201TIP3   OH248797   0.353   5.880   0.405
 8201TIP3    H148798   0.410   5.826   0.240
 8201TIP3    H248799   0.417   5.909   0.606
 8202TIP3   OH248800   0.880   5.935   1.062
 8202TIP3    H148801   0.916   5.874   1.263
 8202TIP3    H248802   0.885   6.019   1.212
 8203TIP3   OH248803   1.071   7.447   0.579
 8203TIP3    H148804   1.169   7.451   0.612
 8203TIP3    H248805   1.065   7.405   0.315
 8204TIP3   OH248806   1.726   7.367   1.473
 8204TIP3    H148807   1.703   7.280   1.356
 8204TIP3    H248808   1.716   7.427   1.242
 8205TIP3   OH248809   0.251   5.795   4.917
 8205TIP3    H148810   0.206   5.708   4.959
 8205TIP3    H248811   0.337   5.777   5.043
 8206TIP3   OH248812   0.496   5.735   5.523
 8206TIP3    H148813   0.589   5.727   5.436
 8206TIP3    H248814   0.481   5.643   5.604
 8207TIP3   OH248815   0.426   7.477   0.297
 8207TIP3    H148816   0.367   7.494   0.525
 8207TIP3    H248817   0.462   7.393   0.381
 8208TIP3   OH248818   1.325   5.656   5.442
 8208TIP3    H148819   1.336   5.599   5.682
 8208TIP3    H248820   1.418   5.653   5.352
 8209TIP3   OH248821   1.622   7.260   5.079
 8209TIP3    H148822   1.543   7.267   4.905
 8209TIP3    H248823   1.637   7.355   5.130
 8210TIP3   OH248824   3.103   6.656   2.064
 8210TIP3    H148825   3.088   6.744   2.178
 8210TIP3    H248826   3.034   6.655   1.857
 8211TIP3   OH248827   2.986   6.563   3.081
 8211TIP3    H148828   2.988   6.517   3.342
 8211TIP3    H248829   2.923   6.510   2.925
 8212TIP3   OH248830   2.187   6.525   3.516
 8212TIP3    H148831   2.201   6.453   3.708
 8212TIP3    H248832   2.247   6.593   3.621
 8213TIP3   OH248833   3.317   6.824   2.679
 8213TIP3    H148834   3.300   6.760   2.901
 8213TIP3    H248835   3.319   6.909   2.817
 8214TIP3   OH248836   2.302   7.009   3.042
 8214TIP3    H148837   2.270   6.919   2.967
 8214TIP3    H248838   2.397   6.991   3.009
 8215TIP3   OH248839   1.974   6.339   1.743
 8215TIP3    H148840   1.936   6.427   1.797
 8215TIP3    H248841   1.917   6.306   1.530
 8216TIP3   OH248842   2.021   6.568   2.490
 8216TIP3    H148843   2.061   6.478   2.523
 8216TIP3    H248844   2.079   6.610   2.292
 8217TIP3   OH248845   3.042   7.356   2.550
 8217TIP3    H148846   3.130   7.317   2.496
 8217TIP3    H248847   3.015   7.306   2.784
 8218TIP3   OH248848   2.813   6.848   3.261
 8218TIP3    H148849   2.839   6.779   3.072
 8218TIP3    H248850   2.896   6.859   3.414
 8219TIP3   OH248851   3.665   5.971   3.360
 8219TIP3    H148852   3.670   6.028   3.600
 8219TIP3    H248853   3.753   5.991   3.252
 8220TIP3   OH248854   3.165   6.268   3.423
 8220TIP3    H148855   3.183   6.172   3.408
 8220TIP3    H248856   3.131   6.282   3.153
 8221TIP3   OH248857   2.449   6.046   2.397
 8221TIP3    H148858   2.466   6.126   2.229
 8221TIP3    H248859   2.411   5.987   2.196
 8222TIP3   OH248860   3.216   6.070   1.977
 8222TIP3    H148861   3.264   6.050   2.229
 8222TIP3    H248862   3.265   6.148   1.875
 8223TIP3   OH248863   2.113   6.324   2.673
 8223TIP3    H148864   2.175   6.269   2.829
 8223TIP3    H248865   2.130   6.289   2.406
 8224TIP3   OH248866   2.596   6.475   2.547
 8224TIP3    H148867   2.679   6.434   2.649
 8224TIP3    H248868   2.577   6.412   2.331
 8225TIP3   OH248869   3.685   6.110   4.068
 8225TIP3    H148870   3.653   6.196   3.960
 8225TIP3    H248871   3.697   6.135   4.347
 8226TIP3   OH248872   2.375   5.963   3.657
 8226TIP3    H148873   2.332   6.015   3.447
 8226TIP3    H248874   2.304   5.966   3.858
 8227TIP3   OH248875   3.038   6.920   1.743
 8227TIP3    H148876   3.035   6.912   1.452
 8227TIP3    H248877   3.019   7.015   1.776
 8228TIP3   OH248878   2.575   6.738   3.615
 8228TIP3    H148879   2.522   6.812   3.723
 8228TIP3    H248880   2.644   6.786   3.465
 8229TIP3   OH248881   3.378   6.034   2.628
 8229TIP3    H148882   3.374   5.954   2.790
 8229TIP3    H248883   3.469   6.062   2.667
 8230TIP3   OH248884   2.301   6.155   3.045
 8230TIP3    H148885   2.364   6.221   3.159
 8230TIP3    H248886   2.352   6.121   2.811
 8231TIP3   OH248887   2.444   6.956   3.960
 8231TIP3    H148888   2.434   7.049   3.882
 8231TIP3    H248889   2.356   6.937   4.080
 8232TIP3   OH248890   2.028   6.878   1.209
 8232TIP3    H148891   2.026   6.932   0.960
 8232TIP3    H248892   2.038   6.947   1.413
 8233TIP3   OH248893   3.397   7.111   3.381
 8233TIP3    H148894   3.300   7.103   3.393
 8233TIP3    H248895   3.405   7.166   3.144
 8234TIP3   OH248896   3.385   5.922   3.630
 8234TIP3    H148897   3.306   5.963   3.504
 8234TIP3    H248898   3.459   5.950   3.459
 8235TIP3   OH248899   2.697   5.706   2.925
 8235TIP3    H148900   2.670   5.616   2.871
 8235TIP3    H248901   2.608   5.748   2.967
 8236TIP3   OH248902   3.266   7.228   2.346
 8236TIP3    H148903   3.269   7.151   2.163
 8236TIP3    H248904   3.332   7.284   2.205
 8237TIP3   OH248905   3.353   7.018   1.872
 8237TIP3    H148906   3.321   6.978   1.623
 8237TIP3    H248907   3.346   6.942   2.052
 8238TIP3   OH248908   3.500   6.894   4.416
 8238TIP3    H148909   3.516   6.821   4.224
 8238TIP3    H248910   3.512   6.970   4.233
 8239TIP3   OH248911   2.962   6.607   1.293
 8239TIP3    H148912   2.903   6.680   1.209
 8239TIP3    H248913   3.040   6.614   1.116
 8240TIP3   OH248914   3.008   6.435   0.414
 8240TIP3    H148915   3.084   6.478   0.555
 8240TIP3    H248916   3.054   6.355   0.306
 8241TIP3   OH248917   3.705   6.541   3.747
 8241TIP3    H148918   3.646   6.617   3.786
 8241TIP3    H248919   3.760   6.577   3.531
 8242TIP3   OH248920   3.321   6.588   1.617
 8242TIP3    H148921   3.250   6.623   1.794
 8242TIP3    H248922   3.382   6.546   1.815
 8243TIP3   OH248923   3.326   6.423   4.332
 8243TIP3    H148924   3.306   6.505   4.479
 8243TIP3    H248925   3.267   6.435   4.098
 8244TIP3   OH248926   2.461   6.674   2.163
 8244TIP3    H148927   2.438   6.633   1.902
 8244TIP3    H248928   2.516   6.604   2.283
 8245TIP3   OH248929   2.594   6.995   2.925
 8245TIP3    H148930   2.607   6.982   2.640
 8245TIP3    H248931   2.676   6.957   3.042
 8246TIP3   OH248932   2.465   6.535   3.264
 8246TIP3    H148933   2.510   6.527   3.003
 8246TIP3    H248934   2.516   6.608   3.393
 8247TIP3   OH248935   3.122   7.105   3.444
 8247TIP3    H148936   3.087   7.174   3.621
 8247TIP3    H248937   3.092   7.023   3.582
 8248TIP3   OH248938   2.592   6.987   4.653
 8248TIP3    H148939   2.528   7.053   4.764
 8248TIP3    H248940   2.552   6.972   4.386
 8249TIP3   OH248941   3.192   6.550   0.906
 8249TIP3    H148942   3.234   6.555   1.173
 8249TIP3    H248943   3.257   6.599   0.735
 8250TIP3   OH248944   2.291   6.594   4.332
 8250TIP3    H148945   2.299   6.685   4.428
 8250TIP3    H248946   2.233   6.560   4.545
 8251TIP3   OH248947   2.974   7.217   1.749
 8251TIP3    H148948   2.999   7.223   2.028
 8251TIP3    H248949   2.899   7.279   1.734
 8252TIP3   OH248950   2.407   7.181   4.866
 8252TIP3    H148951   2.390   7.194   4.578
 8252TIP3    H248952   2.319   7.150   4.962
 8253TIP3   OH248953   3.593   5.687   0.957
 8253TIP3    H148954   3.498   5.692   1.041
 8253TIP3    H248955   3.609   5.781   0.903
 8254TIP3   OH248956   2.359   6.549   1.458
 8254TIP3    H148957   2.313   6.625   1.335
 8254TIP3    H248958   2.314   6.475   1.332
 8255TIP3   OH248959   3.690   7.154   0.438
 8255TIP3    H148960   3.743   7.235   0.402
 8255TIP3    H248961   3.758   7.082   0.432
 8256TIP3   OH248962   2.000   6.824   4.113
 8256TIP3    H148963   1.948   6.824   3.870
 8256TIP3    H248964   2.032   6.730   4.122
 8257TIP3   OH248965   1.973   7.060   3.078
 8257TIP3    H148966   2.069   7.047   3.087
 8257TIP3    H248967   1.960   7.140   3.234
 8258TIP3   OH248968   3.752   7.163   4.956
 8258TIP3    H148969   3.733   7.068   4.941
 8258TIP3    H248970   3.663   7.194   5.049
 8259TIP3   OH248971   2.854   7.094   4.464
 8259TIP3    H148972   2.864   7.179   4.608
 8259TIP3    H248973   2.765   7.063   4.542
 8260TIP3   OH248974   2.948   7.508   1.437
 8260TIP3    H148975   2.950   7.504   1.146
 8260TIP3    H248976   2.916   7.597   1.491
 8261TIP3   OH248977   2.283   7.324   2.040
 8261TIP3    H148978   2.322   7.336   2.310
 8261TIP3    H248979   2.216   7.256   2.109
 8262TIP3   OH248980   3.209   7.432   0.654
 8262TIP3    H148981   3.256   7.367   0.483
 8262TIP3    H248982   3.213   7.385   0.915
 8263TIP3   OH248983   3.177   7.372   1.407
 8263TIP3    H148984   3.093   7.409   1.509
 8263TIP3    H248985   3.181   7.287   1.545
 8264TIP3   OH248986   3.454   6.287   4.986
 8264TIP3    H148987   3.408   6.337   4.773
 8264TIP3    H248988   3.460   6.197   4.869
 8265TIP3   OH248989   2.218   6.933   4.386
 8265TIP3    H148990   2.214   6.893   4.659
 8265TIP3    H248991   2.130   6.907   4.281
 8266TIP3   OH248992   2.464   5.800   3.090
 8266TIP3    H148993   2.372   5.785   3.003
 8266TIP3    H248994   2.450   5.861   3.315
 8267TIP3   OH248995   2.958   5.739   4.101
 8267TIP3    H148996   3.002   5.711   4.353
 8267TIP3    H248997   2.864   5.735   4.182
 8268TIP3   OH248998   3.220   6.171   4.437
 8268TIP3    H148999   3.207   6.146   4.719
 8268TIP3    H249000   3.271   6.255   4.452
 8269TIP3   OH249001   3.351   6.664   0.408
 8269TIP3    H149002   3.314   6.667   0.132
 8269TIP3    H249003   3.445   6.679   0.336
 8270TIP3   OH249004   2.887   6.058   0.426
 8270TIP3    H149005   2.846   6.014   0.651
 8270TIP3    H249006   2.858   5.999   0.216
 8271TIP3   OH249007   2.477   6.287   3.540
 8271TIP3    H149008   2.397   6.286   3.711
 8271TIP3    H249009   2.471   6.378   3.432
 8272TIP3   OH249010   2.477   6.254   1.902
 8272TIP3    H149011   2.382   6.273   1.872
 8272TIP3    H249012   2.509   6.238   1.623
 8273TIP3   OH249013   3.057   6.382   1.707
 8273TIP3    H149014   3.020   6.462   1.572
 8273TIP3    H249015   3.109   6.344   1.485
 8274TIP3   OH249016   2.926   6.368   5.043
 8274TIP3    H149017   2.883   6.298   5.196
 8274TIP3    H249018   3.002   6.389   5.217
 8275TIP3   OH249019   3.133   6.311   2.517
 8275TIP3    H149020   3.127   6.396   2.373
 8275TIP3    H249021   3.121   6.252   2.289
 8276TIP3   OH249022   2.246   6.287   3.924
 8276TIP3    H149023   2.271   6.319   4.188
 8276TIP3    H249024   2.214   6.196   3.981
 8277TIP3   OH249025   2.565   6.016   0.123
 8277TIP3    H149026   2.530   6.019   0.399
 8277TIP3    H249027   2.511   6.080  -0.021
 8278TIP3   OH249028   1.917   6.010   2.274
 8278TIP3    H149029   1.981   6.022   2.493
 8278TIP3    H249030   1.968   6.022   2.031
 8279TIP3   OH249031   2.034   6.088   0.849
 8279TIP3    H149032   2.110   6.140   0.744
 8279TIP3    H249033   1.974   6.162   0.915
 8280TIP3   OH249034   3.030   6.455   3.810
 8280TIP3    H149035   3.096   6.394   3.687
 8280TIP3    H249036   2.978   6.398   3.990
 8281TIP3   OH249037   2.769   6.069   2.295
 8281TIP3    H149038   2.674   6.061   2.340
 8281TIP3    H249039   2.808   6.009   2.499
 8282TIP3   OH249040   2.204   6.229   1.947
 8282TIP3    H149041   2.124   6.258   1.803
 8282TIP3    H249042   2.219   6.138   1.860
 8283TIP3   OH249043   2.606   6.219   1.197
 8283TIP3    H149044   2.694   6.254   1.233
 8283TIP3    H249045   2.560   6.286   1.029
 8284TIP3   OH249046   3.161   6.000   3.273
 8284TIP3    H149047   3.097   5.963   3.459
 8284TIP3    H249048   3.128   5.972   3.012
 8285TIP3   OH249049   2.446   6.350   0.648
 8285TIP3    H149050   2.373   6.315   0.492
 8285TIP3    H249051   2.506   6.383   0.441
 8286TIP3   OH249052   3.427   7.576   5.160
 8286TIP3    H149053   3.455   7.586   4.881
 8286TIP3    H249054   3.517   7.565   5.283
 8287TIP3   OH249055   2.238   6.772   5.070
 8287TIP3    H149056   2.308   6.806   5.247
 8287TIP3    H249057   2.162   6.766   5.253
 8288TIP3   OH249058   2.829   6.350   2.817
 8288TIP3    H149059   2.904   6.317   2.658
 8288TIP3    H249060   2.821   6.279   3.009
 8289TIP3   OH249061   2.315   5.925   1.767
 8289TIP3    H149062   2.249   5.874   1.923
 8289TIP3    H249063   2.356   5.852   1.626
 8290TIP3   OH249064   2.692   6.143   3.576
 8290TIP3    H149065   2.610   6.196   3.513
 8290TIP3    H249066   2.755   6.213   3.645
 8291TIP3   OH249067   2.783   6.813   1.167
 8291TIP3    H149068   2.712   6.755   1.062
 8291TIP3    H249069   2.746   6.830   1.437
 8292TIP3   OH249070   3.513   6.735   3.798
 8292TIP3    H149071   3.564   6.786   3.594
 8292TIP3    H249072   3.426   6.733   3.669
 8293TIP3   OH249073   3.143   6.076   0.597
 8293TIP3    H149074   3.046   6.085   0.558
 8293TIP3    H249075   3.165   6.165   0.705
 8294TIP3   OH249076   2.884   6.824   4.491
 8294TIP3    H149077   2.885   6.792   4.764
 8294TIP3    H249078   2.886   6.921   4.527
 8295TIP3   OH249079   3.224   6.286   1.065
 8295TIP3    H149080   3.311   6.261   1.185
 8295TIP3    H249081   3.244   6.374   0.951
 8296TIP3   OH249082   2.302   6.753   2.781
 8296TIP3    H149083   2.356   6.742   2.538
 8296TIP3    H249084   2.322   6.673   2.934
 8297TIP3   OH249085   3.001   6.956   0.924
 8297TIP3    H149086   2.961   7.046   0.927
 8297TIP3    H249087   2.923   6.897   0.954
 8298TIP3   OH249088   1.997   6.567   4.392
 8298TIP3    H149089   1.997   6.515   4.638
 8298TIP3    H249090   1.937   6.514   4.224
 8299TIP3   OH249091   2.675   6.518   4.983
 8299TIP3    H149092   2.622   6.457   4.821
 8299TIP3    H249093   2.763   6.478   4.974
 8300TIP3   OH249094   3.178   7.063   4.545
 8300TIP3    H149095   3.105   7.077   4.365
 8300TIP3    H249096   3.144   7.112   4.779
 8301TIP3   OH249097   3.727   6.282   1.035
 8301TIP3    H149098   3.650   6.267   0.858
 8301TIP3    H249099   3.738   6.378   0.999
 8302TIP3   OH249100   3.735   6.876   4.818
 8302TIP3    H149101   3.642   6.890   4.728
 8302TIP3    H249102   3.782   6.869   4.560
 8303TIP3   OH249103   3.559   7.128   1.143
 8303TIP3    H149104   3.483   7.070   1.149
 8303TIP3    H249105   3.591   7.122   0.867
 8304TIP3   OH249106   3.264   6.632   3.222
 8304TIP3    H149107   3.173   6.622   3.120
 8304TIP3    H249108   3.311   6.567   3.051
 8305TIP3   OH249109   2.519   7.073   2.085
 8305TIP3    H149110   2.551   7.163   2.013
 8305TIP3    H249111   2.439   7.069   1.926
 8306TIP3   OH249112   2.123   6.556   0.303
 8306TIP3    H149113   2.176   6.611   0.489
 8306TIP3    H249114   2.036   6.559   0.435
 8307TIP3   OH249115   2.669   6.850   1.908
 8307TIP3    H149116   2.623   6.936   1.956
 8307TIP3    H249117   2.615   6.791   2.073
 8308TIP3   OH249118   2.714   7.257   3.957
 8308TIP3    H149119   2.762   7.340   3.900
 8308TIP3    H249120   2.785   7.203   4.077
 8309TIP3   OH249121   2.540   7.324   1.761
 8309TIP3    H149122   2.445   7.340   1.824
 8309TIP3    H249123   2.584   7.403   1.878
 8310TIP3   OH249124   3.030   6.854   3.744
 8310TIP3    H149125   2.980   6.830   3.990
 8310TIP3    H249126   3.076   6.770   3.684
 8311TIP3   OH249127   3.305   6.976   0.447
 8311TIP3    H149128   3.321   6.927   0.696
 8311TIP3    H249129   3.208   6.974   0.447
 8312TIP3   OH249130   3.337   7.322   4.497
 8312TIP3    H149131   3.258   7.269   4.425
 8312TIP3    H249132   3.346   7.383   4.269
 8313TIP3   OH249133   3.786   7.405   0.411
 8313TIP3    H149134   3.851   7.473   0.480
 8313TIP3    H249135   3.704   7.445   0.525
 8314TIP3   OH249136   2.162   6.020   4.230
 8314TIP3    H149137   2.105   6.070   4.416
 8314TIP3    H249138   2.177   5.943   4.401
 8315TIP3   OH249139   3.380   6.835   1.083
 8315TIP3    H149140   3.368   6.740   1.113
 8315TIP3    H249141   3.478   6.838   1.074
 8316TIP3   OH249142   2.133   7.203   3.846
 8316TIP3    H149143   2.182   7.120   3.837
 8316TIP3    H249144   2.187   7.253   4.038
 8317TIP3   OH249145   2.571   7.026   0.741
 8317TIP3    H149146   2.649   6.980   0.846
 8317TIP3    H249147   2.585   7.118   0.834
 8318TIP3   OH249148   2.231   6.732   0.882
 8318TIP3    H149149   2.158   6.781   1.017
 8318TIP3    H249150   2.283   6.807   0.774
 8319TIP3   OH249151   3.017   6.016   4.062
 8319TIP3    H149152   3.108   6.037   4.158
 8319TIP3    H249153   3.011   5.920   4.095
 8320TIP3   OH249154   3.133   5.920   1.368
 8320TIP3    H149155   3.138   5.998   1.191
 8320TIP3    H249156   3.167   5.959   1.620
 8321TIP3   OH249157   2.892   7.202   0.858
 8321TIP3    H149158   2.815   7.219   1.023
 8321TIP3    H249159   2.910   7.292   0.759
 8322TIP3   OH249160   2.867   6.135   1.542
 8322TIP3    H149161   2.913   6.221   1.560
 8322TIP3    H249162   2.824   6.126   1.803
 8323TIP3   OH249163   2.915   6.267   4.281
 8323TIP3    H149164   2.934   6.315   4.533
 8323TIP3    H249165   2.992   6.206   4.254
 8324TIP3   OH249166   2.903   5.834   1.746
 8324TIP3    H149167   2.871   5.906   1.917
 8324TIP3    H249168   2.984   5.878   1.632
 8325TIP3   OH249169   2.602   7.287   0.963
 8325TIP3    H149170   2.621   7.372   0.825
 8325TIP3    H249171   2.563   7.318   1.218
 8326TIP3   OH249172   2.484   5.988   0.897
 8326TIP3    H149173   2.486   6.071   1.053
 8326TIP3    H249174   2.566   5.946   0.987
 8327TIP3   OH249175   3.469   6.055   4.560
 8327TIP3    H149176   3.376   6.046   4.476
 8327TIP3    H249177   3.518   6.052   4.305
 8328TIP3   OH249178   3.373   6.420   2.775
 8328TIP3    H149179   3.296   6.362   2.745
 8328TIP3    H249180   3.439   6.362   2.910
 8329TIP3   OH249181   2.297   6.987   0.555
 8329TIP3    H149182   2.371   7.040   0.657
 8329TIP3    H249183   2.326   6.972   0.279
 8330TIP3   OH249184   2.147   6.278   0.399
 8330TIP3    H149185   2.155   6.375   0.384
 8330TIP3    H249186   2.077   6.260   0.204
 8331TIP3   OH249187   3.491   7.419   3.354
 8331TIP3    H149188   3.475   7.442   3.072
 8331TIP3    H249189   3.589   7.404   3.330
 8332TIP3   OH249190   2.202   5.754   2.988
 8332TIP3    H149191   2.196   5.747   2.694
 8332TIP3    H249192   2.173   5.664   3.069
 8333TIP3   OH249193   2.081   7.111   1.683
 8333TIP3    H149194   2.000   7.162   1.680
 8333TIP3    H249195   2.128   7.162   1.479
 8334TIP3   OH249196   2.030   7.430   5.181
 8334TIP3    H149197   2.118   7.425   5.304
 8334TIP3    H249198   2.003   7.337   5.178
 8335TIP3   OH249199   2.515   7.261   5.604
 8335TIP3    H149200   2.610   7.269   5.583
 8335TIP3    H249201   2.489   7.243   5.328
 8336TIP3   OH249202   2.910   7.202  29.844
 8336TIP3    H149203   2.827   7.171  29.961
 8336TIP3    H249204   2.976   7.176  30.042
 8337TIP3   OH249205   3.125   7.169   5.280
 8337TIP3    H149206   3.094   7.078   5.355
 8337TIP3    H249207   3.202   7.179   5.460
 8338TIP3   OH249208   3.311   7.232   0.246
 8338TIP3    H149209   3.349   7.145   0.315
 8338TIP3    H249210   3.378   7.277   0.078
 8339TIP3   OH249211   1.989   6.795   5.436
 8339TIP3    H149212   1.941   6.712   5.487
 8339TIP3    H249213   1.939   6.828   5.202
 8340TIP3   OH249214   2.514   6.747   0.231
 8340TIP3    H149215   2.512   6.707   0.498
 8340TIP3    H249216   2.601   6.791   0.255
 8341TIP3   OH249217   2.676   6.790   5.136
 8341TIP3    H149218   2.649   6.844   4.899
 8341TIP3    H249219   2.668   6.697   5.043
 8342TIP3   OH249220   3.243   6.774   4.494
 8342TIP3    H149221   3.324   6.830   4.494
 8342TIP3    H249222   3.178   6.846   4.503
 8343TIP3   OH249223   2.123   6.484   5.301
 8343TIP3    H149224   2.167   6.401   5.370
 8343TIP3    H249225   2.157   6.545   5.505
 8344TIP3   OH249226   2.596   6.628   0.894
 8344TIP3    H149227   2.518   6.578   0.990
 8344TIP3    H249228   2.633   6.569   0.687
 8345TIP3   OH249229   2.477   6.407   4.362
 8345TIP3    H149230   2.417   6.484   4.323
 8345TIP3    H249231   2.555   6.438   4.212
 8346TIP3   OH249232   2.715   6.467   0.315
 8346TIP3    H149233   2.728   6.428   0.051
 8346TIP3    H249234   2.807   6.463   0.423
 8347TIP3   OH249235   3.023   6.669   5.454
 8347TIP3    H149236   3.090   6.631   5.277
 8347TIP3    H249237   3.007   6.594   5.640
 8348TIP3   OH249238   3.589   6.653  30.051
 8348TIP3    H149239   3.655   6.619  29.865
 8348TIP3    H249240   3.609   6.749  30.015
 8349TIP3   OH249241   2.575   6.167   4.617
 8349TIP3    H149242   2.553   6.098   4.416
 8349TIP3    H249243   2.531   6.246   4.497
 8350TIP3   OH249244   2.608   5.971   4.089
 8350TIP3    H149245   2.647   6.020   3.861
 8350TIP3    H249246   2.517   5.956   3.978
 8351TIP3   OH249247   2.708   6.548   4.050
 8351TIP3    H149248   2.791   6.589   3.966
 8351TIP3    H249249   2.646   6.620   3.978
 8352TIP3   OH249250   3.160   6.290   5.520
 8352TIP3    H149251   3.198   6.201   5.550
 8352TIP3    H249252   3.231   6.345   5.625
 8353TIP3   OH249253   3.322   6.608   5.079
 8353TIP3    H149254   3.292   6.670   4.869
 8353TIP3    H249255   3.419   6.610   5.034
 8354TIP3   OH249256   2.405   6.262   5.343
 8354TIP3    H149257   2.315   6.223   5.361
 8354TIP3    H249258   2.438   6.223   5.100
 8355TIP3   OH249259   2.678   5.719   4.092
 8355TIP3    H149260   2.642   5.809   4.125
 8355TIP3    H249261   2.603   5.675   3.963
 8356TIP3   OH249262   2.794   6.131   5.397
 8356TIP3    H149263   2.852   6.094   5.613
 8356TIP3    H249264   2.707   6.114   5.526
 8357TIP3   OH249265   3.044   6.076   5.034
 8357TIP3    H149266   3.024   6.135   5.256
 8357TIP3    H249267   3.091   6.006   5.187
 8358TIP3   OH249268   3.201   5.933   5.508
 8358TIP3    H149269   3.211   5.835   5.523
 8358TIP3    H249270   3.199   5.961   5.787
 8359TIP3   OH249271   2.196   6.088   5.304
 8359TIP3    H149272   2.176   6.004   5.166
 8359TIP3    H249273   2.164   6.068   5.574
 8360TIP3   OH249274   2.672   5.700   4.920
 8360TIP3    H149275   2.747   5.638   4.947
 8360TIP3    H249276   2.656   5.690   4.629
 8361TIP3   OH249277   2.699   5.821   5.664
 8361TIP3    H149278   2.680   5.770   5.421
 8361TIP3    H249279   2.638   5.898   5.631
 8362TIP3   OH249280   2.674   7.512   0.516
 8362TIP3    H149281   2.764   7.524   0.624
 8362TIP3    H249282   2.691   7.520   0.222
 8363TIP3   OH249283   2.028   6.982   0.459
 8363TIP3    H149284   2.126   6.985   0.495
 8363TIP3    H249285   2.021   6.957   0.180
 8364TIP3   OH249286   1.903   7.501   1.878
 8364TIP3    H149287   1.823   7.458   1.764
 8364TIP3    H249288   1.920   7.437   2.094
 8365TIP3   OH249289   1.987   7.317   2.466
 8365TIP3    H149290   1.918   7.257   2.559
 8365TIP3    H249291   2.050   7.319   2.694
 8366TIP3   OH249292   3.759   7.416   3.249
 8366TIP3    H149293   3.773   7.450   3.522
 8366TIP3    H249294   3.804   7.486   3.102
 8367TIP3   OH249295   3.691   7.349   4.266
 8367TIP3    H149296   3.667   7.272   4.095
 8367TIP3    H249297   3.738   7.302   4.482
 8368TIP3   OH249298   3.546   6.933   5.670
 8368TIP3    H149299   3.458   6.938   5.799
 8368TIP3    H249300   3.585   7.021   5.730
 8369TIP3   OH249301   3.640   6.785   1.155
 8369TIP3    H149302   3.728   6.825   1.212
 8369TIP3    H249303   3.625   6.731   1.395
 8370TIP3   OH249304   3.697   6.591   1.845
 8370TIP3    H149305   3.616   6.541   1.920
 8370TIP3    H249306   3.744   6.598   2.103
 8371TIP3   OH249307   3.670   6.847   3.243
 8371TIP3    H149308   3.731   6.773   3.180
 8371TIP3    H249309   3.718   6.922   3.120
 8372TIP3   OH249310   3.544   7.129   4.023
 8372TIP3    H149311   3.485   7.187   4.176
 8372TIP3    H249312   3.492   7.117   3.774
 8373TIP3   OH249313   3.751   6.582   0.684
 8373TIP3    H149314   3.688   6.608   0.474
 8373TIP3    H249315   3.741   6.657   0.870
 8374TIP3   OH249316   3.531   6.261   0.468
 8374TIP3    H149317   3.500   6.328   0.279
 8374TIP3    H249318   3.594   6.215   0.297
 8375TIP3   OH249319   3.495   6.438   2.064
 8375TIP3    H149320   3.481   6.346   2.001
 8375TIP3    H249321   3.467   6.441   2.346
 8376TIP3   OH249322   1.982   6.659   3.252
 8376TIP3    H149323   1.983   6.629   2.970
 8376TIP3    H249324   2.068   6.622   3.342
 8377TIP3   OH249325   3.600   6.630   4.914
 8377TIP3    H149326   3.647   6.544   4.932
 8377TIP3    H249327   3.669   6.697   4.854
 8378TIP3   OH249328   3.701   6.372   4.992
 8378TIP3    H149329   3.608   6.338   4.998
 8378TIP3    H249330   3.756   6.291   5.037
 8379TIP3   OH249331   3.505   6.026  -0.054
 8379TIP3    H149332   3.561   5.986   0.156
 8379TIP3    H249333   3.416   6.008   0.045
 8380TIP3   OH249334   3.448   6.206   1.482
 8380TIP3    H149335   3.461   6.113   1.572
 8380TIP3    H249336   3.538   6.223   1.389
 8381TIP3   OH249337   3.551   6.253   3.147
 8381TIP3    H149338   3.648   6.264   3.189
 8381TIP3    H249339   3.520   6.258   3.423
 8382TIP3   OH249340   3.535   6.319   3.936
 8382TIP3    H149341   3.453   6.349   4.071
 8382TIP3    H249342   3.583   6.404   3.909
 8383TIP3   OH249343   1.979   6.110   4.785
 8383TIP3    H149344   2.035   6.147   5.001
 8383TIP3    H249345   1.910   6.072   4.959
 8384TIP3   OH249346   3.763   5.773   5.523
 8384TIP3    H149347   3.796   5.694   5.382
 8384TIP3    H249348   3.760   5.838   5.298
 8385TIP3   OH249349   3.538   5.947   1.593
 8385TIP3    H149350   3.571   5.896   1.824
 8385TIP3    H249351   3.479   5.881   1.473
 8386TIP3   OH249352   2.080   5.997   3.009
 8386TIP3    H149353   2.111   5.904   3.030
 8386TIP3    H249354   2.161   6.050   3.003
 8387TIP3   OH249355   1.916   6.316   3.192
 8387TIP3    H149356   1.974   6.308   2.958
 8387TIP3    H249357   1.971   6.374   3.354
 8388TIP3   OH249358   3.700   5.964   5.007
 8388TIP3    H149359   3.620   6.004   5.136
 8388TIP3    H249360   3.659   5.917   4.782
 8389TIP3   OH249361   3.710   5.955   0.504
 8389TIP3    H149362   3.762   5.898   0.327
 8389TIP3    H249363   3.775   6.026   0.558
 8390TIP3   OH249364   1.943   5.918   1.440
 8390TIP3    H149365   1.851   5.948   1.452
 8390TIP3    H249366   1.971   5.955   1.182
 8391TIP3   OH249367   3.398   7.403   1.929
 8391TIP3    H149368   3.481   7.392   1.776
 8391TIP3    H249369   3.427   7.462   2.142
 8392TIP3   OH249370   1.935   5.778   3.933
 8392TIP3    H149371   1.861   5.733   4.071
 8392TIP3    H249372   1.890   5.847   3.783
 8393TIP3   OH249373   2.164   7.087   5.145
 8393TIP3    H149374   2.082   7.099   4.989
 8393TIP3    H249375   2.134   7.098   5.418
 8394TIP3   OH249376   2.442   7.228   4.086
 8394TIP3    H149377   2.437   7.324   4.023
 8394TIP3    H249378   2.540   7.223   4.113
 8395TIP3   OH249379   2.886   7.321   4.896
 8395TIP3    H149380   2.876   7.308   5.187
 8395TIP3    H249381   2.964   7.380   4.881
 8396TIP3   OH249382   3.120   7.521   4.728
 8396TIP3    H149383   3.200   7.470   4.668
 8396TIP3    H249384   3.128   7.526   5.022
 8397TIP3   OH249385   3.611   5.732   4.482
 8397TIP3    H149386   3.540   5.771   4.323
 8397TIP3    H249387   3.625   5.646   4.344
 8398TIP3   OH249388   2.181   7.557   4.008
 8398TIP3    H149389   2.094   7.567   3.885
 8398TIP3    H249390   2.156   7.558   4.290
 8399TIP3   OH249391   2.427   7.482   3.873
 8399TIP3    H149392   2.337   7.517   3.945
 8399TIP3    H249393   2.431   7.508   3.591
 8400TIP3   OH249394   2.912   7.461   3.525
 8400TIP3    H149395   2.846   7.479   3.312
 8400TIP3    H249396   2.916   7.548   3.660
 8401TIP3   OH249397   3.100   7.324   3.978
 8401TIP3    H149398   3.027   7.370   3.837
 8401TIP3    H249399   3.173   7.386   3.927
 8402TIP3   OH249400   3.333   7.536   3.882
 8402TIP3    H149401   3.315   7.627   3.792
 8402TIP3    H249402   3.384   7.500   3.648
 8403TIP3   OH249403   2.142   7.344   3.114
 8403TIP3    H149404   2.127   7.288   3.354
 8403TIP3    H249405   2.229   7.312   3.018
 8404TIP3   OH249406   2.366   7.273   2.781
 8404TIP3    H149407   2.354   7.176   2.829
 8404TIP3    H249408   2.450   7.285   2.928
 8405TIP3   OH249409   2.593   7.271   3.159
 8405TIP3    H149410   2.620   7.181   3.078
 8405TIP3    H249411   2.615   7.273   3.444
 8406TIP3   OH249412   2.900   5.848   2.664
 8406TIP3    H149413   2.835   5.816   2.865
 8406TIP3    H249414   2.942   5.764   2.595
 8407TIP3   OH249415   3.475   5.676   2.715
 8407TIP3    H149416   3.545   5.729   2.583
 8407TIP3    H249417   3.394   5.709   2.580
 8408TIP3   OH249418   3.644   5.804   2.223
 8408TIP3    H149419   3.708   5.750   2.067
 8408TIP3    H249420   3.699   5.885   2.271
 8409TIP3   OH249421   2.189   5.729   2.136
 8409TIP3    H149422   2.108   5.730   1.974
 8409TIP3    H249423   2.226   5.641   2.064
 8410TIP3   OH249424   2.066   5.702   0.774
 8410TIP3    H149425   2.113   5.776   0.636
 8410TIP3    H249426   2.015   5.749   0.978
 8411TIP3   OH249427   2.637   5.680   2.085
 8411TIP3    H149428   2.717   5.707   1.947
 8411TIP3    H249429   2.638   5.737   2.325
 8412TIP3   OH249430   3.228   5.724   2.367
 8412TIP3    H149431   3.171   5.742   2.139
 8412TIP3    H249432   3.177   5.653   2.502
 8413TIP3   OH249433   3.358   5.712   1.275
 8413TIP3    H149434   3.281   5.770   1.245
 8413TIP3    H249435   3.320   5.640   1.440
 8414TIP3   OH249436   2.058   7.305   1.131
 8414TIP3    H149437   1.967   7.296   1.032
 8414TIP3    H249438   2.079   7.394   1.035
 8415TIP3   OH249439   2.226   5.858   0.366
 8415TIP3    H149440   2.310   5.818   0.291
 8415TIP3    H249441   2.255   5.939   0.504
 8416TIP3   OH249442   2.758   5.918   1.071
 8416TIP3    H149443   2.809   5.875   1.287
 8416TIP3    H249444   2.762   6.009   1.179
 8417TIP3   OH249445   2.952   7.461   0.570
 8417TIP3    H149446   3.051   7.460   0.591
 8417TIP3    H249447   2.942   7.416   0.312
 8418TIP3   OH249448   3.602   7.373   1.476
 8418TIP3    H149449   3.582   7.285   1.356
 8418TIP3    H249450   3.602   7.430   1.236
 8419TIP3   OH249451   2.165   5.800   4.947
 8419TIP3    H149452   2.110   5.719   4.977
 8419TIP3    H249453   2.240   5.781   5.127
 8420TIP3   OH249454   2.360   5.717   5.514
 8420TIP3    H149455   2.453   5.702   5.454
 8420TIP3    H249456   2.335   5.629   5.625
 8421TIP3   OH249457   2.266   7.476   0.273
 8421TIP3    H149458   2.203   7.483   0.492
 8421TIP3    H249459   2.325   7.408   0.381
 8422TIP3   OH249460   3.213   5.667   5.460
 8422TIP3    H149461   3.203   5.604   5.685
 8422TIP3    H249462   3.308   5.652   5.397
 8423TIP3   OH249463   3.510   7.260   5.103
 8423TIP3    H149464   3.430   7.259   4.932
 8423TIP3    H249465   3.532   7.355   5.094
 8424TIP3   OH249466   5.002   6.668   2.052
 8424TIP3    H149467   4.978   6.759   2.121
 8424TIP3    H249468   4.929   6.647   1.869
 8425TIP3   OH249469   4.870   6.547   3.075
 8425TIP3    H149470   4.875   6.506   3.345
 8425TIP3    H249471   4.809   6.487   2.937
 8426TIP3   OH249472   4.069   6.538   3.513
 8426TIP3    H149473   4.082   6.465   3.699
 8426TIP3    H249474   4.140   6.598   3.585
 8427TIP3   OH249475   5.200   6.830   2.655
 8427TIP3    H149476   5.181   6.762   2.856
 8427TIP3    H249477   5.197   6.910   2.814
 8428TIP3   OH249478   4.191   7.001   3.042
 8428TIP3    H149479   4.159   6.913   2.958
 8428TIP3    H249480   4.287   6.983   3.027
 8429TIP3   OH249481   3.861   6.341   1.725
 8429TIP3    H149482   3.819   6.426   1.797
 8429TIP3    H249483   3.831   6.332   1.446
 8430TIP3   OH249484   3.898   6.567   2.433
 8430TIP3    H149485   3.936   6.478   2.499
 8430TIP3    H249486   3.968   6.610   2.277
 8431TIP3   OH249487   4.915   7.352   2.499
 8431TIP3    H149488   5.006   7.314   2.481
 8431TIP3    H249489   4.885   7.312   2.748
 8432TIP3   OH249490   4.697   6.815   3.291
 8432TIP3    H149491   4.725   6.749   3.093
 8432TIP3    H249492   4.783   6.844   3.399
 8433TIP3   OH249493   5.551   5.972   3.375
 8433TIP3    H149494   5.557   6.021   3.627
 8433TIP3    H249495   5.636   6.001   3.261
 8434TIP3   OH249496   5.045   6.272   3.393
 8434TIP3    H149497   5.069   6.179   3.429
 8434TIP3    H249498   5.017   6.269   3.114
 8435TIP3   OH249499   4.334   6.045   2.382
 8435TIP3    H149500   4.348   6.126   2.217
 8435TIP3    H249501   4.290   5.987   2.181
 8436TIP3   OH249502   5.098   6.088   1.998
 8436TIP3    H149503   5.146   6.052   2.232
 8436TIP3    H249504   5.162   6.152   1.890
 8437TIP3   OH249505   3.985   6.325   2.685
 8437TIP3    H149506   4.049   6.276   2.847
 8437TIP3    H249507   4.012   6.292   2.421
 8438TIP3   OH249508   4.472   6.465   2.541
 8438TIP3    H149509   4.559   6.427   2.616
 8438TIP3    H249510   4.432   6.392   2.388
 8439TIP3   OH249511   5.573   6.113   4.065
 8439TIP3    H149512   5.537   6.199   3.975
 8439TIP3    H249513   5.578   6.130   4.353
 8440TIP3   OH249514   4.236   5.965   3.696
 8440TIP3    H149515   4.197   6.008   3.459
 8440TIP3    H249516   4.169   5.991   3.897
 8441TIP3   OH249517   4.924   6.916   1.749
 8441TIP3    H149518   4.919   6.907   1.455
 8441TIP3    H249519   4.902   7.010   1.776
 8442TIP3   OH249520   4.455   6.730   3.594
 8442TIP3    H149521   4.404   6.804   3.711
 8442TIP3    H249522   4.529   6.778   3.459
 8443TIP3   OH249523   5.274   6.017   2.574
 8443TIP3    H149524   5.273   5.939   2.742
 8443TIP3    H249525   5.358   6.058   2.649
 8444TIP3   OH249526   4.185   6.155   3.021
 8444TIP3    H149527   4.250   6.213   3.162
 8444TIP3    H249528   4.238   6.125   2.790
 8445TIP3   OH249529   4.326   6.947   3.960
 8445TIP3    H149530   4.312   7.036   3.849
 8445TIP3    H249531   4.239   6.931   4.095
 8446TIP3   OH249532   3.903   6.870   1.221
 8446TIP3    H149533   3.908   6.925   0.975
 8446TIP3    H249534   3.921   6.937   1.425
 8447TIP3   OH249535   5.284   7.108   3.387
 8447TIP3    H149536   5.186   7.099   3.402
 8447TIP3    H249537   5.290   7.175   3.180
 8448TIP3   OH249538   5.279   5.910   3.591
 8448TIP3    H149539   5.200   5.922   3.420
 8448TIP3    H249540   5.349   5.939   3.408
 8449TIP3   OH249541   4.590   5.717   2.898
 8449TIP3    H149542   4.556   5.627   2.868
 8449TIP3    H249543   4.505   5.762   2.967
 8450TIP3   OH249544   5.155   7.238   2.364
 8450TIP3    H149545   5.153   7.159   2.193
 8450TIP3    H249546   5.217   7.293   2.202
 8451TIP3   OH249547   5.236   7.016   1.878
 8451TIP3    H149548   5.208   6.977   1.626
 8451TIP3    H249549   5.226   6.940   2.058
 8452TIP3   OH249550   5.383   6.900   4.398
 8452TIP3    H149551   5.401   6.825   4.215
 8452TIP3    H249552   5.399   6.975   4.218
 8453TIP3   OH249553   4.844   6.609   1.293
 8453TIP3    H149554   4.789   6.686   1.215
 8453TIP3    H249555   4.918   6.612   1.098
 8454TIP3   OH249556   4.877   6.440   0.405
 8454TIP3    H149557   4.944   6.488   0.567
 8454TIP3    H249558   4.926   6.356   0.354
 8455TIP3   OH249559   5.592   6.539   3.741
 8455TIP3    H149560   5.527   6.612   3.771
 8455TIP3    H249561   5.645   6.579   3.522
 8456TIP3   OH249562   5.207   6.574   1.590
 8456TIP3    H149563   5.139   6.614   1.767
 8456TIP3    H249564   5.271   6.540   1.791
 8457TIP3   OH249565   5.183   6.435   4.383
 8457TIP3    H149566   5.169   6.529   4.443
 8457TIP3    H249567   5.118   6.424   4.167
 8458TIP3   OH249568   4.349   6.661   2.124
 8458TIP3    H149569   4.329   6.639   1.839
 8458TIP3    H249570   4.399   6.581   2.208
 8459TIP3   OH249571   4.485   6.994   2.931
 8459TIP3    H149572   4.495   6.969   2.652
 8459TIP3    H249573   4.566   6.956   3.051
 8460TIP3   OH249574   4.357   6.516   3.261
 8460TIP3    H149575   4.395   6.516   2.991
 8460TIP3    H249576   4.406   6.590   3.387
 8461TIP3   OH249577   5.013   7.097   3.444
 8461TIP3    H149578   4.977   7.172   3.600
 8461TIP3    H249579   4.977   7.020   3.591
 8462TIP3   OH249580   4.488   6.983   4.656
 8462TIP3    H149581   4.426   7.046   4.788
 8462TIP3    H249582   4.444   6.971   4.395
 8463TIP3   OH249583   5.068   6.551   0.858
 8463TIP3    H149584   5.116   6.554   1.119
 8463TIP3    H249585   5.134   6.593   0.675
 8464TIP3   OH249586   4.185   6.600   4.356
 8464TIP3    H149587   4.173   6.693   4.428
 8464TIP3    H249588   4.132   6.560   4.566
 8465TIP3   OH249589   4.850   7.222   1.755
 8465TIP3    H149590   4.871   7.236   2.034
 8465TIP3    H249591   4.784   7.293   1.722
 8466TIP3   OH249592   4.294   7.167   4.842
 8466TIP3    H149593   4.283   7.173   4.551
 8466TIP3    H249594   4.209   7.126   4.923
 8467TIP3   OH249595   5.483   5.689   0.957
 8467TIP3    H149596   5.386   5.686   0.999
 8467TIP3    H249597   5.494   5.783   0.891
 8468TIP3   OH249598   4.245   6.551   1.443
 8468TIP3    H149599   4.194   6.625   1.332
 8468TIP3    H249600   4.196   6.475   1.341
 8469TIP3   OH249601   5.580   7.154   0.468
 8469TIP3    H149602   5.626   7.239   0.411
 8469TIP3    H249603   5.653   7.088   0.459
 8470TIP3   OH249604   3.879   6.817   4.140
 8470TIP3    H149605   3.844   6.807   3.873
 8470TIP3    H249606   3.911   6.726   4.194
 8471TIP3   OH249607   3.858   7.066   3.012
 8471TIP3    H149608   3.955   7.062   3.024
 8471TIP3    H249609   3.841   7.141   3.189
 8472TIP3   OH249610   5.644   7.162   4.932
 8472TIP3    H149611   5.623   7.068   4.878
 8472TIP3    H249612   5.559   7.192   5.052
 8473TIP3   OH249613   4.743   7.093   4.500
 8473TIP3    H149614   4.754   7.182   4.623
 8473TIP3    H249615   4.651   7.070   4.563
 8474TIP3   OH249616   4.834   7.515   1.449
 8474TIP3    H149617   4.837   7.505   1.158
 8474TIP3    H249618   4.806   7.607   1.485
 8475TIP3   OH249619   4.167   7.324   2.043
 8475TIP3    H149620   4.200   7.336   2.319
 8475TIP3    H249621   4.100   7.254   2.097
 8476TIP3   OH249622   5.094   7.429   0.678
 8476TIP3    H149623   5.142   7.366   0.501
 8476TIP3    H249624   5.099   7.381   0.936
 8477TIP3   OH249625   5.060   7.375   1.431
 8477TIP3    H149626   4.971   7.404   1.509
 8477TIP3    H249627   5.064   7.285   1.542
 8478TIP3   OH249628   5.340   6.279   5.004
 8478TIP3    H149629   5.307   6.326   4.767
 8478TIP3    H249630   5.361   6.191   4.887
 8479TIP3   OH249631   4.099   6.939   4.386
 8479TIP3    H149632   4.098   6.904   4.662
 8479TIP3    H249633   4.009   6.914   4.290
 8480TIP3   OH249634   4.362   5.818   3.129
 8480TIP3    H149635   4.272   5.807   3.015
 8480TIP3    H249636   4.341   5.865   3.378
 8481TIP3   OH249637   4.849   5.754   4.068
 8481TIP3    H149638   4.885   5.712   4.314
 8481TIP3    H249639   4.751   5.751   4.107
 8482TIP3   OH249640   5.108   6.175   4.527
 8482TIP3    H149641   5.049   6.137   4.731
 8482TIP3    H249642   5.138   6.256   4.659
 8483TIP3   OH249643   5.246   6.664   0.417
 8483TIP3    H149644   5.212   6.668   0.135
 8483TIP3    H249645   5.341   6.671   0.360
 8484TIP3   OH249646   4.809   6.028   0.420
 8484TIP3    H149647   4.765   5.994   0.663
 8484TIP3    H249648   4.741   6.005   0.225
 8485TIP3   OH249649   4.368   6.268   3.537
 8485TIP3    H149650   4.290   6.279   3.714
 8485TIP3    H249651   4.373   6.360   3.432
 8486TIP3   OH249652   4.352   6.272   1.974
 8486TIP3    H149653   4.256   6.278   1.920
 8486TIP3    H249654   4.394   6.273   1.704
 8487TIP3   OH249655   4.933   6.391   1.719
 8487TIP3    H149656   4.898   6.467   1.563
 8487TIP3    H249657   4.994   6.352   1.518
 8488TIP3   OH249658   4.810   6.394   5.034
 8488TIP3    H149659   4.768   6.311   5.130
 8488TIP3    H249660   4.890   6.393   5.193
 8489TIP3   OH249661   5.032   6.314   2.496
 8489TIP3    H149662   5.014   6.398   2.364
 8489TIP3    H249663   5.023   6.256   2.262
 8490TIP3   OH249664   4.128   6.295   3.918
 8490TIP3    H149665   4.153   6.331   4.176
 8490TIP3    H249666   4.087   6.210   3.996
 8491TIP3   OH249667   4.466   6.053   0.177
 8491TIP3    H149668   4.423   6.029   0.429
 8491TIP3    H249669   4.413   6.129   0.087
 8492TIP3   OH249670   3.805   6.021   2.298
 8492TIP3    H149671   3.874   6.029   2.496
 8492TIP3    H249672   3.844   6.061   2.061
 8493TIP3   OH249673   3.917   6.086   0.867
 8493TIP3    H149674   3.992   6.137   0.753
 8493TIP3    H249675   3.856   6.160   0.921
 8494TIP3   OH249676   4.924   6.459   3.822
 8494TIP3    H149677   4.978   6.390   3.684
 8494TIP3    H249678   4.864   6.402   3.984
 8495TIP3   OH249679   4.647   6.046   2.349
 8495TIP3    H149680   4.552   6.055   2.394
 8495TIP3    H249681   4.680   6.005   2.592
 8496TIP3   OH249682   4.074   6.208   2.007
 8496TIP3    H149683   4.000   6.237   1.836
 8496TIP3    H249684   4.101   6.120   1.905
 8497TIP3   OH249685   4.484   6.231   1.251
 8497TIP3    H149686   4.578   6.246   1.200
 8497TIP3    H249687   4.437   6.288   1.053
 8498TIP3   OH249688   5.057   5.984   3.225
 8498TIP3    H149689   4.996   5.973   3.450
 8498TIP3    H249690   5.014   5.932   3.015
 8499TIP3   OH249691   4.305   6.346   0.717
 8499TIP3    H149692   4.225   6.339   0.552
 8499TIP3    H249693   4.375   6.346   0.513
 8500TIP3   OH249694   5.330   7.602   5.130
 8500TIP3    H149695   5.358   7.602   4.851
 8500TIP3    H249696   5.417   7.585   5.262
 8501TIP3   OH249697   4.134   6.775   5.103
 8501TIP3    H149698   4.200   6.788   5.313
 8501TIP3    H249699   4.052   6.761   5.259
 8502TIP3   OH249700   4.740   6.328   2.850
 8502TIP3    H149701   4.805   6.291   2.667
 8502TIP3    H249702   4.713   6.250   3.003
 8503TIP3   OH249703   4.191   5.932   1.800
 8503TIP3    H149704   4.125   5.873   1.929
 8503TIP3    H249705   4.229   5.869   1.611
 8504TIP3   OH249706   4.602   6.137   3.558
 8504TIP3    H149707   4.524   6.198   3.552
 8504TIP3    H249708   4.668   6.190   3.696
 8505TIP3   OH249709   4.666   6.802   1.149
 8505TIP3    H149710   4.591   6.748   1.053
 8505TIP3    H249711   4.631   6.829   1.416
 8506TIP3   OH249712   5.408   6.734   3.798
 8506TIP3    H149713   5.455   6.790   3.594
 8506TIP3    H249714   5.322   6.724   3.666
 8507TIP3   OH249715   5.060   6.079   0.630
 8507TIP3    H149716   4.965   6.072   0.561
 8507TIP3    H249717   5.071   6.175   0.660
 8508TIP3   OH249718   4.781   6.821   4.470
 8508TIP3    H149719   4.772   6.787   4.740
 8508TIP3    H249720   4.763   6.916   4.509
 8509TIP3   OH249721   5.119   6.301   1.068
 8509TIP3    H149722   5.202   6.272   1.191
 8509TIP3    H249723   5.143   6.382   0.921
 8510TIP3   OH249724   4.186   6.747   2.775
 8510TIP3    H149725   4.240   6.727   2.535
 8510TIP3    H249726   4.201   6.668   2.934
 8511TIP3   OH249727   4.876   6.950   0.978
 8511TIP3    H149728   4.841   7.042   0.972
 8511TIP3    H249729   4.795   6.895   0.981
 8512TIP3   OH249730   3.879   6.560   4.443
 8512TIP3    H149731   3.866   6.502   4.674
 8512TIP3    H249732   3.824   6.517   4.239
 8513TIP3   OH249733   4.558   6.517   5.004
 8513TIP3    H149734   4.529   6.447   4.827
 8513TIP3    H249735   4.654   6.499   5.019
 8514TIP3   OH249736   5.065   7.058   4.533
 8514TIP3    H149737   4.978   7.067   4.404
 8514TIP3    H249738   5.044   7.103   4.788
 8515TIP3   OH249739   5.611   6.280   1.050
 8515TIP3    H149740   5.542   6.262   0.846
 8515TIP3    H249741   5.618   6.376   1.023
 8516TIP3   OH249742   5.629   6.871   4.773
 8516TIP3    H149743   5.538   6.883   4.668
 8516TIP3    H249744   5.681   6.857   4.524
 8517TIP3   OH249745   5.449   7.124   1.167
 8517TIP3    H149746   5.373   7.064   1.161
 8517TIP3    H249747   5.482   7.121   0.891
 8518TIP3   OH249748   5.151   6.640   3.213
 8518TIP3    H149749   5.059   6.611   3.180
 8518TIP3    H249750   5.195   6.587   3.006
 8519TIP3   OH249751   4.399   7.061   2.097
 8519TIP3    H149752   4.440   7.147   2.031
 8519TIP3    H249753   4.311   7.071   1.977
 8520TIP3   OH249754   4.003   6.551   0.303
 8520TIP3    H149755   4.058   6.611   0.465
 8520TIP3    H249756   3.916   6.563   0.429
 8521TIP3   OH249757   4.549   6.844   1.890
 8521TIP3    H149758   4.497   6.926   1.929
 8521TIP3    H249759   4.502   6.781   2.061
 8522TIP3   OH249760   4.597   7.256   3.975
 8522TIP3    H149761   4.647   7.337   3.915
 8522TIP3    H249762   4.668   7.199   4.080
 8523TIP3   OH249763   4.431   7.316   1.776
 8523TIP3    H149764   4.337   7.336   1.842
 8523TIP3    H249765   4.478   7.396   1.878
 8524TIP3   OH249766   4.915   6.858   3.738
 8524TIP3    H149767   4.873   6.838   3.999
 8524TIP3    H249768   4.947   6.771   3.654
 8525TIP3   OH249769   5.199   6.979   0.465
 8525TIP3    H149770   5.222   6.930   0.711
 8525TIP3    H249771   5.103   6.976   0.495
 8526TIP3   OH249772   5.239   7.313   4.431
 8526TIP3    H149773   5.164   7.254   4.359
 8526TIP3    H249774   5.234   7.386   4.236
 8527TIP3   OH249775   5.669   7.407   0.402
 8527TIP3    H149776   5.743   7.465   0.483
 8527TIP3    H249777   5.593   7.453   0.528
 8528TIP3   OH249778   4.059   6.049   4.275
 8528TIP3    H149779   3.997   6.093   4.458
 8528TIP3    H249780   4.077   5.968   4.431
 8529TIP3   OH249781   5.263   6.832   1.110
 8529TIP3    H149782   5.248   6.737   1.122
 8529TIP3    H249783   5.361   6.832   1.098
 8530TIP3   OH249784   4.019   7.195   3.882
 8530TIP3    H149785   4.071   7.114   3.855
 8530TIP3    H249786   4.073   7.246   4.068
 8531TIP3   OH249787   4.454   7.039   0.762
 8531TIP3    H149788   4.533   6.990   0.837
 8531TIP3    H249789   4.471   7.130   0.864
 8532TIP3   OH249790   4.121   6.729   0.849
 8532TIP3    H149791   4.050   6.777   0.987
 8532TIP3    H249792   4.177   6.802   0.753
 8533TIP3   OH249793   4.907   6.035   4.011
 8533TIP3    H149794   4.992   6.054   4.140
 8533TIP3    H249795   4.888   5.943   4.095
 8534TIP3   OH249796   5.007   5.942   1.392
 8534TIP3    H149797   5.029   6.014   1.203
 8534TIP3    H249798   5.051   5.974   1.638
 8535TIP3   OH249799   4.787   7.199   0.816
 8535TIP3    H149800   4.711   7.209   0.990
 8535TIP3    H249801   4.799   7.291   0.723
 8536TIP3   OH249802   4.749   6.146   1.614
 8536TIP3    H149803   4.800   6.230   1.614
 8536TIP3    H249804   4.710   6.141   1.878
 8537TIP3   OH249805   4.795   6.283   4.272
 8537TIP3    H149806   4.801   6.322   4.542
 8537TIP3    H249807   4.855   6.206   4.284
 8538TIP3   OH249808   4.787   5.840   1.776
 8538TIP3    H149809   4.742   5.912   1.917
 8538TIP3    H249810   4.865   5.889   1.656
 8539TIP3   OH249811   4.485   7.311   0.966
 8539TIP3    H149812   4.508   7.400   0.864
 8539TIP3    H249813   4.445   7.330   1.227
 8540TIP3   OH249814   4.376   5.994   0.906
 8540TIP3    H149815   4.381   6.072   1.083
 8540TIP3    H249816   4.456   5.946   0.981
 8541TIP3   OH249817   5.357   6.049   4.560
 8541TIP3    H149818   5.261   6.055   4.509
 8541TIP3    H249819   5.395   6.042   4.290
 8542TIP3   OH249820   5.263   6.421   2.778
 8542TIP3    H149821   5.186   6.363   2.742
 8542TIP3    H249822   5.323   6.365   2.937
 8543TIP3   OH249823   4.184   6.990   0.549
 8543TIP3    H149824   4.257   7.046   0.651
 8543TIP3    H249825   4.218   6.966   0.285
 8544TIP3   OH249826   4.018   6.277   0.420
 8544TIP3    H149827   4.020   6.374   0.417
 8544TIP3    H249828   3.954   6.258   0.210
 8545TIP3   OH249829   5.373   7.419   3.333
 8545TIP3    H149830   5.360   7.445   3.051
 8545TIP3    H249831   5.471   7.412   3.321
 8546TIP3   OH249832   4.102   5.758   2.967
 8546TIP3    H149833   4.098   5.740   2.676
 8546TIP3    H249834   4.074   5.669   3.069
 8547TIP3   OH249835   3.976   7.114   1.725
 8547TIP3    H149836   3.900   7.167   1.803
 8547TIP3    H249837   4.000   7.162   1.479
 8548TIP3   OH249838   3.902   7.421   5.091
 8548TIP3    H149839   3.977   7.413   5.277
 8548TIP3    H249840   3.859   7.333   5.133
 8549TIP3   OH249841   4.327   7.313   5.616
 8549TIP3    H149842   4.414   7.355   5.640
 8549TIP3    H249843   4.347   7.245   5.412
 8550TIP3   OH249844   4.803   7.207  29.886
 8550TIP3    H149845   4.721   7.155  29.910
 8550TIP3    H249846   4.860   7.159  30.069
 8551TIP3   OH249847   5.023   7.162   5.262
 8551TIP3    H149848   4.995   7.076   5.376
 8551TIP3    H249849   5.106   7.182   5.409
 8552TIP3   OH249850   5.205   7.238   0.267
 8552TIP3    H149851   5.238   7.148   0.324
 8552TIP3    H249852   5.269   7.280   0.084
 8553TIP3   OH249853   3.881   6.785   5.457
 8553TIP3    H149854   3.846   6.694   5.466
 8553TIP3    H249855   3.835   6.821   5.220
 8554TIP3   OH249856   4.361   6.748   0.198
 8554TIP3    H149857   4.375   6.703   0.456
 8554TIP3    H249858   4.449   6.733   0.069
 8555TIP3   OH249859   4.565   6.782   5.124
 8555TIP3    H149860   4.537   6.847   4.914
 8555TIP3    H249861   4.543   6.694   5.010
 8556TIP3   OH249862   5.135   6.781   4.515
 8556TIP3    H149863   5.215   6.838   4.494
 8556TIP3    H249864   5.069   6.852   4.506
 8557TIP3   OH249865   4.012   6.506   5.325
 8557TIP3    H149866   4.079   6.440   5.268
 8557TIP3    H249867   4.049   6.553   5.556
 8558TIP3   OH249868   4.454   6.603   0.846
 8558TIP3    H149869   4.381   6.548   0.954
 8558TIP3    H249870   4.499   6.538   0.669
 8559TIP3   OH249871   4.368   6.408   4.359
 8559TIP3    H149872   4.316   6.491   4.371
 8559TIP3    H249873   4.441   6.440   4.194
 8560TIP3   OH249874   4.583   6.436   0.375
 8560TIP3    H149875   4.572   6.484   0.120
 8560TIP3    H249876   4.680   6.432   0.399
 8561TIP3   OH249877   4.926   6.676   5.496
 8561TIP3    H149878   4.983   6.628   5.310
 8561TIP3    H249879   4.885   6.606   5.661
 8562TIP3   OH249880   5.480   6.652  30.069
 8562TIP3    H149881   5.539   6.622  29.859
 8562TIP3    H249882   5.495   6.750  30.039
 8563TIP3   OH249883   4.446   6.164   4.626
 8563TIP3    H149884   4.450   6.095   4.416
 8563TIP3    H249885   4.427   6.246   4.476
 8564TIP3   OH249886   4.477   5.970   4.056
 8564TIP3    H149887   4.526   6.021   3.849
 8564TIP3    H249888   4.385   5.970   3.948
 8565TIP3   OH249889   4.600   6.555   4.062
 8565TIP3    H149890   4.688   6.592   4.005
 8565TIP3    H249891   4.541   6.621   3.936
 8566TIP3   OH249892   5.030   6.306   5.523
 8566TIP3    H149893   5.052   6.211   5.499
 8566TIP3    H249894   5.091   6.345   5.331
 8567TIP3   OH249895   5.205   6.606   5.094
 8567TIP3    H149896   5.175   6.671   4.896
 8567TIP3    H249897   5.301   6.608   5.049
 8568TIP3   OH249898   4.298   6.245   5.313
 8568TIP3    H149899   4.211   6.201   5.274
 8568TIP3    H249900   4.347   6.214   5.076
 8569TIP3   OH249901   4.577   5.726   4.071
 8569TIP3    H149902   4.538   5.816   4.104
 8569TIP3    H249903   4.499   5.674   3.999
 8570TIP3   OH249904   4.666   6.165   5.259
 8570TIP3    H149905   4.618   6.120   5.475
 8570TIP3    H249906   4.603   6.151   5.040
 8571TIP3   OH249907   4.936   6.082   5.046
 8571TIP3    H149908   4.840   6.080   5.091
 8571TIP3    H249909   4.969   6.018   5.247
 8572TIP3   OH249910   5.084   5.935   5.544
 8572TIP3    H149911   5.086   5.837   5.535
 8572TIP3    H249912   5.090   5.959   5.826
 8573TIP3   OH249913   4.080   6.075   5.325
 8573TIP3    H149914   4.071   5.992   5.169
 8573TIP3    H249915   4.061   6.042   5.601
 8574TIP3   OH249916   4.561   5.697   4.947
 8574TIP3    H149917   4.633   5.634   4.995
 8574TIP3    H249918   4.566   5.700   4.656
 8575TIP3   OH249919   4.586   5.819   5.676
 8575TIP3    H149920   4.568   5.780   5.409
 8575TIP3    H249921   4.516   5.887   5.685
 8576TIP3   OH249922   4.566   7.527   0.513
 8576TIP3    H149923   4.660   7.527   0.588
 8576TIP3    H249924   4.574   7.536   0.219
 8577TIP3   OH249925   3.916   6.983   0.483
 8577TIP3    H149926   4.014   6.990   0.513
 8577TIP3    H249927   3.908   6.960   0.204
 8578TIP3   OH249928   3.782   7.515   1.848
 8578TIP3    H149929   3.707   7.465   1.731
 8578TIP3    H249930   3.798   7.456   2.076
 8579TIP3   OH249931   3.876   7.316   2.478
 8579TIP3    H149932   3.807   7.252   2.559
 8579TIP3    H249933   3.926   7.326   2.730
 8580TIP3   OH249934   5.648   7.425   3.195
 8580TIP3    H149935   5.660   7.466   3.459
 8580TIP3    H249936   5.698   7.484   3.027
 8581TIP3   OH249937   5.579   7.351   4.227
 8581TIP3    H149938   5.549   7.277   4.050
 8581TIP3    H249939   5.629   7.296   4.416
 8582TIP3   OH249940   5.438   6.945   5.574
 8582TIP3    H149941   5.347   6.959   5.484
 8582TIP3    H249942   5.466   7.034   5.664
 8583TIP3   OH249943   5.530   6.784   1.152
 8583TIP3    H149944   5.618   6.822   1.215
 8583TIP3    H249945   5.513   6.726   1.383
 8584TIP3   OH249946   5.592   6.587   1.863
 8584TIP3    H149947   5.512   6.540   1.962
 8584TIP3    H249948   5.641   6.604   2.112
 8585TIP3   OH249949   5.561   6.852   3.252
 8585TIP3    H149950   5.628   6.781   3.210
 8585TIP3    H249951   5.607   6.928   3.129
 8586TIP3   OH249952   5.439   7.142   4.008
 8586TIP3    H149953   5.368   7.192   4.143
 8586TIP3    H249954   5.393   7.122   3.753
 8587TIP3   OH249955   5.642   6.577   0.687
 8587TIP3    H149956   5.580   6.606   0.474
 8587TIP3    H249957   5.633   6.652   0.873
 8588TIP3   OH249958   5.423   6.260   0.444
 8588TIP3    H149959   5.414   6.328   0.234
 8588TIP3    H249960   5.473   6.194   0.294
 8589TIP3   OH249961   5.389   6.435   2.064
 8589TIP3    H149962   5.370   6.345   1.977
 8589TIP3    H249963   5.353   6.436   2.340
 8590TIP3   OH249964   3.868   6.660   3.201
 8590TIP3    H149965   3.874   6.630   2.919
 8590TIP3    H249966   3.953   6.624   3.300
 8591TIP3   OH249967   5.489   6.624   4.902
 8591TIP3    H149968   5.535   6.538   4.956
 8591TIP3    H249969   5.562   6.684   4.830
 8592TIP3   OH249970   5.586   6.370   5.016
 8592TIP3    H149971   5.494   6.336   5.013
 8592TIP3    H249972   5.639   6.291   5.091
 8593TIP3   OH249973   5.396   6.012  -0.063
 8593TIP3    H149974   5.453   5.978   0.153
 8593TIP3    H249975   5.307   6.001   0.045
 8594TIP3   OH249976   5.336   6.202   1.524
 8594TIP3    H149977   5.355   6.110   1.608
 8594TIP3    H249978   5.408   6.215   1.335
 8595TIP3   OH249979   5.433   6.252   3.231
 8595TIP3    H149980   5.532   6.259   3.255
 8595TIP3    H249981   5.408   6.259   3.513
 8596TIP3   OH249982   5.423   6.330   4.026
 8596TIP3    H149983   5.334   6.359   4.107
 8596TIP3    H249984   5.467   6.414   3.951
 8597TIP3   OH249985   3.861   6.166   5.025
 8597TIP3    H149986   3.946   6.148   5.157
 8597TIP3    H249987   3.812   6.082   5.067
 8598TIP3   OH249988   5.645   5.766   5.517
 8598TIP3    H149989   5.680   5.686   5.388
 8598TIP3    H249990   5.647   5.831   5.295
 8599TIP3   OH249991   5.409   5.948   1.599
 8599TIP3    H149992   5.449   5.902   1.830
 8599TIP3    H249993   5.359   5.875   1.476
 8600TIP3   OH249994   3.955   5.992   3.111
 8600TIP3    H149995   3.996   5.903   3.093
 8600TIP3    H249996   4.029   6.050   3.039
 8601TIP3   OH249997   3.809   6.301   3.279
 8601TIP3    H149998   3.864   6.276   3.048
 8601TIP3    H249999   3.855   6.381   3.363
 8602TIP3   OH250000   5.595   5.948   4.929
 8602TIP3    H150001   5.513   5.993   5.013
 8602TIP3    H250002   5.558   5.883   4.740
 8603TIP3   OH250003   5.589   5.952   0.528
 8603TIP3    H150004   5.632   5.884   0.366
 8603TIP3    H250005   5.665   6.012   0.576
 8604TIP3   OH250006   3.822   5.921   1.446
 8604TIP3    H150007   3.729   5.947   1.476
 8604TIP3    H250008   3.843   5.957   1.179
 8605TIP3   OH250009   5.285   7.411   1.914
 8605TIP3    H150010   5.370   7.404   1.770
 8605TIP3    H250011   5.315   7.461   2.151
 8606TIP3   OH250012   3.827   5.782   3.939
 8606TIP3    H150013   3.756   5.755   4.119
 8606TIP3    H250014   3.786   5.850   3.774
 8607TIP3   OH250015   4.058   7.078   5.145
 8607TIP3    H150016   3.975   7.077   4.992
 8607TIP3    H250017   4.026   7.083   5.415
 8608TIP3   OH250018   4.329   7.217   4.035
 8608TIP3    H150019   4.319   7.315   4.005
 8608TIP3    H250020   4.426   7.216   4.074
 8609TIP3   OH250021   4.785   7.329   4.890
 8609TIP3    H150022   4.777   7.296   5.169
 8609TIP3    H250023   4.862   7.388   4.914
 8610TIP3   OH250024   5.004   7.506   4.734
 8610TIP3    H150025   5.067   7.437   4.668
 8610TIP3    H250026   5.024   7.518   5.022
 8611TIP3   OH250027   5.496   5.729   4.449
 8611TIP3    H150028   5.417   5.759   4.305
 8611TIP3    H250029   5.509   5.640   4.329
 8612TIP3   OH250030   4.057   7.539   4.017
 8612TIP3    H150031   3.966   7.554   3.912
 8612TIP3    H250032   4.042   7.552   4.302
 8613TIP3   OH250033   4.312   7.474   3.879
 8613TIP3    H150034   4.220   7.502   3.951
 8613TIP3    H250035   4.316   7.501   3.597
 8614TIP3   OH250036   4.809   7.465   3.456
 8614TIP3    H150037   4.733   7.479   3.276
 8614TIP3    H250038   4.808   7.547   3.612
 8615TIP3   OH250039   4.990   7.323   3.912
 8615TIP3    H150040   4.920   7.380   3.792
 8615TIP3    H250041   5.066   7.381   3.861
 8616TIP3   OH250042   5.222   7.536   3.879
 8616TIP3    H150043   5.200   7.628   3.822
 8616TIP3    H250044   5.266   7.505   3.627
 8617TIP3   OH250045   4.029   7.338   3.165
 8617TIP3    H150046   4.021   7.292   3.426
 8617TIP3    H250047   4.112   7.302   3.054
 8618TIP3   OH250048   4.244   7.266   2.769
 8618TIP3    H150049   4.237   7.169   2.811
 8618TIP3    H250050   4.329   7.283   2.907
 8619TIP3   OH250051   4.474   7.274   3.141
 8619TIP3    H150052   4.496   7.181   3.093
 8619TIP3    H250053   4.495   7.287   3.426
 8620TIP3   OH250054   4.835   5.857   2.790
 8620TIP3    H150055   4.755   5.817   2.904
 8620TIP3    H250056   4.846   5.804   2.553
 8621TIP3   OH250057   5.357   5.683   2.706
 8621TIP3    H150058   5.426   5.739   2.568
 8621TIP3    H250059   5.275   5.710   2.565
 8622TIP3   OH250060   5.525   5.807   2.217
 8622TIP3    H150061   5.587   5.747   2.076
 8622TIP3    H250062   5.585   5.884   2.265
 8623TIP3   OH250063   4.073   5.719   2.145
 8623TIP3    H150064   3.987   5.717   2.007
 8623TIP3    H250065   4.110   5.632   2.064
 8624TIP3   OH250066   3.947   5.709   0.819
 8624TIP3    H150067   4.005   5.775   0.681
 8624TIP3    H250068   3.908   5.763   1.032
 8625TIP3   OH250069   4.495   5.693   2.082
 8625TIP3    H150070   4.578   5.707   1.941
 8625TIP3    H250071   4.503   5.751   2.313
 8626TIP3   OH250072   5.110   5.733   2.391
 8626TIP3    H150073   5.057   5.742   2.151
 8626TIP3    H250074   5.063   5.660   2.529
 8627TIP3   OH250075   5.242   5.719   1.254
 8627TIP3    H150076   5.162   5.773   1.212
 8627TIP3    H250077   5.207   5.649   1.431
 8628TIP3   OH250078   3.937   7.307   1.185
 8628TIP3    H150079   3.844   7.297   1.116
 8628TIP3    H250080   3.960   7.391   1.050
 8629TIP3   OH250081   4.114   5.855   0.399
 8629TIP3    H150082   4.189   5.794   0.357
 8629TIP3    H250083   4.156   5.938   0.477
 8630TIP3   OH250084   4.670   5.923   1.068
 8630TIP3    H150085   4.702   5.865   1.281
 8630TIP3    H250086   4.672   6.009   1.209
 8631TIP3   OH250087   4.839   7.459   0.552
 8631TIP3    H150088   4.937   7.461   0.588
 8631TIP3    H250089   4.835   7.412   0.294
 8632TIP3   OH250090   5.492   7.373   1.473
 8632TIP3    H150091   5.472   7.283   1.365
 8632TIP3    H250092   5.484   7.428   1.230
 8633TIP3   OH250093   4.049   5.811   4.956
 8633TIP3    H150094   3.999   5.727   4.962
 8633TIP3    H250095   4.115   5.793   5.169
 8634TIP3   OH250096   4.240   5.733   5.496
 8634TIP3    H150097   4.333   5.718   5.424
 8634TIP3    H250098   4.215   5.643   5.592
 8635TIP3   OH250099   4.159   7.481   0.258
 8635TIP3    H150100   4.098   7.492   0.483
 8635TIP3    H250101   4.210   7.405   0.360
 8636TIP3   OH250102   5.092   5.660   5.442
 8636TIP3    H150103   5.097   5.609   5.694
 8636TIP3    H250104   5.186   5.659   5.367
 8637TIP3   OH250105   5.400   7.271   5.070
 8637TIP3    H150106   5.347   7.277   4.821
 8637TIP3    H250107   5.435   7.361   5.079
 8638TIP3   OH250108   6.868   6.661   2.079
 8638TIP3    H150109   6.847   6.746   2.208
 8638TIP3    H250110   6.799   6.659   1.875
 8639TIP3   OH250111   6.733   6.546   3.048
 8639TIP3    H150112   6.757   6.505   3.306
 8639TIP3    H250113   6.657   6.491   2.961
 8640TIP3   OH250114   5.963   6.539   3.495
 8640TIP3    H150115   5.982   6.467   3.681
 8640TIP3    H250116   6.023   6.607   3.594
 8641TIP3   OH250117   7.125   6.878   2.688
 8641TIP3    H150118   7.111   6.797   2.847
 8641TIP3    H250119   7.114   6.945   2.892
 8642TIP3   OH250120   6.072   7.003   3.048
 8642TIP3    H150121   6.042   6.914   2.961
 8642TIP3    H250122   6.168   6.986   3.024
 8643TIP3   OH250123   5.742   6.343   1.731
 8643TIP3    H150124   5.704   6.431   1.788
 8643TIP3    H250125   5.692   6.318   1.494
 8644TIP3   OH250126   5.794   6.577   2.496
 8644TIP3    H150127   5.829   6.486   2.538
 8644TIP3    H250128   5.857   6.617   2.310
 8645TIP3   OH250129   6.814   7.391   2.730
 8645TIP3    H150130   6.878   7.338   2.568
 8645TIP3    H250131   6.784   7.320   2.904
 8646TIP3   OH250132   6.586   6.819   3.291
 8646TIP3    H150133   6.617   6.749   3.114
 8646TIP3    H250134   6.670   6.846   3.423
 8647TIP3   OH250135   7.427   6.026   3.273
 8647TIP3    H150136   7.453   6.066   3.528
 8647TIP3    H250137   7.509   6.035   3.117
 8648TIP3   OH250138   6.917   6.253   3.375
 8648TIP3    H150139   6.965   6.171   3.435
 8648TIP3    H250140   6.906   6.242   3.087
 8649TIP3   OH250141   6.221   6.050   2.385
 8649TIP3    H150142   6.234   6.130   2.217
 8649TIP3    H250143   6.176   5.992   2.190
 8650TIP3   OH250144   7.007   6.073   1.953
 8650TIP3    H150145   7.061   6.057   2.199
 8650TIP3    H250146   7.054   6.148   1.836
 8651TIP3   OH250147   5.861   6.323   2.685
 8651TIP3    H150148   5.928   6.280   2.853
 8651TIP3    H250149   5.887   6.287   2.424
 8652TIP3   OH250150   6.379   6.460   2.529
 8652TIP3    H150151   6.449   6.400   2.625
 8652TIP3    H250152   6.340   6.405   2.319
 8653TIP3   OH250153   7.453   6.087   4.113
 8653TIP3    H150154   7.405   6.170   4.053
 8653TIP3    H250155   7.507   6.113   4.341
 8654TIP3   OH250156   6.118   5.964   3.681
 8654TIP3    H150157   6.080   6.018   3.465
 8654TIP3    H250158   6.055   5.986   3.897
 8655TIP3   OH250159   6.799   6.920   1.695
 8655TIP3    H150160   6.789   6.927   1.401
 8655TIP3    H250161   6.771   7.008   1.776
 8656TIP3   OH250162   6.345   6.735   3.606
 8656TIP3    H150163   6.296   6.810   3.720
 8656TIP3    H250164   6.418   6.782   3.468
 8657TIP3   OH250165   7.149   6.049   2.643
 8657TIP3    H150166   7.118   5.973   2.799
 8657TIP3    H250167   7.230   6.076   2.784
 8658TIP3   OH250168   6.074   6.158   3.054
 8658TIP3    H150169   6.137   6.222   3.177
 8658TIP3    H250170   6.126   6.129   2.817
 8659TIP3   OH250171   6.222   6.946   3.963
 8659TIP3    H150172   6.208   7.036   3.855
 8659TIP3    H250173   6.134   6.930   4.089
 8660TIP3   OH250174   5.796   6.876   1.194
 8660TIP3    H150175   5.800   6.935   0.957
 8660TIP3    H250176   5.806   6.941   1.413
 8661TIP3   OH250177   7.164   7.106   3.381
 8661TIP3    H150178   7.066   7.106   3.357
 8661TIP3    H250179   7.181   7.198   3.291
 8662TIP3   OH250180   7.201   5.933   3.606
 8662TIP3    H150181   7.120   5.940   3.441
 8662TIP3    H250182   7.266   5.984   3.447
 8663TIP3   OH250183   6.471   5.713   2.844
 8663TIP3    H150184   6.445   5.622   2.901
 8663TIP3    H250185   6.387   5.759   2.928
 8664TIP3   OH250186   6.984   7.246   2.295
 8664TIP3    H150187   7.015   7.160   2.181
 8664TIP3    H250188   7.059   7.303   2.217
 8665TIP3   OH250189   7.078   7.023   1.914
 8665TIP3    H150190   7.072   6.959   1.695
 8665TIP3    H250191   7.112   6.967   2.133
 8666TIP3   OH250192   7.245   6.881   4.383
 8666TIP3    H150193   7.256   6.816   4.164
 8666TIP3    H250194   7.267   6.963   4.242
 8667TIP3   OH250195   6.724   6.593   1.299
 8667TIP3    H150196   6.684   6.681   1.248
 8667TIP3    H250197   6.804   6.596   1.137
 8668TIP3   OH250198   6.765   6.459   0.405
 8668TIP3    H150199   6.835   6.492   0.591
 8668TIP3    H250200   6.803   6.371   0.342
 8669TIP3   OH250201   7.419   6.509   3.735
 8669TIP3    H150202   7.358   6.582   3.663
 8669TIP3    H250203   7.494   6.531   3.552
 8670TIP3   OH250204   7.089   6.615   1.611
 8670TIP3    H150205   7.015   6.643   1.788
 8670TIP3    H250206   7.144   6.565   1.806
 8671TIP3   OH250207   7.061   6.423   4.278
 8671TIP3    H150208   7.031   6.496   4.449
 8671TIP3    H250209   7.000   6.435   4.050
 8672TIP3   OH250210   6.221   6.661   2.151
 8672TIP3    H150211   6.191   6.642   1.875
 8672TIP3    H250212   6.285   6.587   2.199
 8673TIP3   OH250213   6.365   6.999   2.934
 8673TIP3    H150214   6.376   7.000   2.643
 8673TIP3    H250215   6.445   6.952   3.027
 8674TIP3   OH250216   6.251   6.523   3.246
 8674TIP3    H150217   6.293   6.523   2.982
 8674TIP3    H250218   6.298   6.596   3.384
 8675TIP3   OH250219   6.895   7.105   3.453
 8675TIP3    H150220   6.861   7.172   3.639
 8675TIP3    H250221   6.881   7.024   3.612
 8676TIP3   OH250222   6.380   6.985   4.650
 8676TIP3    H150223   6.315   7.046   4.773
 8676TIP3    H250224   6.342   6.975   4.380
 8677TIP3   OH250225   6.955   6.544   0.906
 8677TIP3    H150226   7.009   6.566   1.143
 8677TIP3    H250227   7.008   6.589   0.696
 8678TIP3   OH250228   6.073   6.598   4.338
 8678TIP3    H150229   6.084   6.688   4.443
 8678TIP3    H250230   6.003   6.564   4.515
 8679TIP3   OH250231   6.725   7.207   1.716
 8679TIP3    H150232   6.763   7.213   1.980
 8679TIP3    H250233   6.661   7.280   1.716
 8680TIP3   OH250234   6.177   7.165   4.842
 8680TIP3    H150235   6.167   7.171   4.551
 8680TIP3    H250236   6.093   7.124   4.929
 8681TIP3   OH250237   7.324   5.666   0.735
 8681TIP3    H150238   7.227   5.677   0.771
 8681TIP3    H250239   7.357   5.749   0.843
 8682TIP3   OH250240   6.127   6.553   1.443
 8682TIP3    H150241   6.091   6.629   1.293
 8682TIP3    H250242   6.083   6.478   1.314
 8683TIP3   OH250243   7.446   7.104   0.513
 8683TIP3    H150244   7.448   7.203   0.519
 8683TIP3    H250245   7.539   7.091   0.432
 8684TIP3   OH250246   5.765   6.823   4.113
 8684TIP3    H150247   5.715   6.819   3.864
 8684TIP3    H250248   5.802   6.731   4.116
 8685TIP3   OH250249   5.746   7.071   3.042
 8685TIP3    H150250   5.842   7.063   3.057
 8685TIP3    H250251   5.732   7.152   3.192
 8686TIP3   OH250252   7.530   7.147   4.809
 8686TIP3    H150253   7.513   7.051   4.803
 8686TIP3    H250254   7.455   7.175   4.977
 8687TIP3   OH250255   6.635   7.100   4.413
 8687TIP3    H150256   6.648   7.179   4.584
 8687TIP3    H250257   6.551   7.064   4.509
 8688TIP3   OH250258   6.708   7.507   1.467
 8688TIP3    H150259   6.692   7.512   1.182
 8688TIP3    H250260   6.665   7.588   1.563
 8689TIP3   OH250261   6.055   7.320   2.031
 8689TIP3    H150262   6.091   7.328   2.304
 8689TIP3    H250263   5.986   7.253   2.082
 8690TIP3   OH250264   6.964   7.443   0.669
 8690TIP3    H150265   7.002   7.385   0.459
 8690TIP3    H250266   6.985   7.390   0.909
 8691TIP3   OH250267   6.951   7.382   1.437
 8691TIP3    H150268   6.858   7.410   1.485
 8691TIP3    H250269   6.965   7.313   1.638
 8692TIP3   OH250270   7.243   6.309   4.923
 8692TIP3    H150271   7.182   6.330   4.707
 8692TIP3    H250272   7.261   6.214   4.881
 8693TIP3   OH250273   5.990   6.936   4.380
 8693TIP3    H150274   5.983   6.900   4.653
 8693TIP3    H250275   5.900   6.917   4.278
 8694TIP3   OH250276   6.246   5.815   3.120
 8694TIP3    H150277   6.160   5.806   2.994
 8694TIP3    H250278   6.219   5.865   3.360
 8695TIP3   OH250279   6.729   5.746   4.119
 8695TIP3    H150280   6.760   5.699   4.359
 8695TIP3    H250281   6.630   5.746   4.140
 8696TIP3   OH250282   7.026   6.121   4.395
 8696TIP3    H150283   6.981   6.093   4.641
 8696TIP3    H250284   7.025   6.218   4.425
 8697TIP3   OH250285   7.108   6.654   0.378
 8697TIP3    H150286   7.068   6.669   0.111
 8697TIP3    H250287   7.197   6.689   0.333
 8698TIP3   OH250288   6.683   6.031   0.429
 8698TIP3    H150289   6.642   5.998   0.681
 8698TIP3    H250290   6.620   5.995   0.243
 8699TIP3   OH250291   6.257   6.281   3.546
 8699TIP3    H150292   6.174   6.282   3.708
 8699TIP3    H250293   6.255   6.373   3.441
 8700TIP3   OH250294   6.241   6.267   1.950
 8700TIP3    H150295   6.146   6.285   1.908
 8700TIP3    H250296   6.275   6.245   1.680
 8701TIP3   OH250297   6.829   6.391   1.728
 8701TIP3    H150298   6.781   6.461   1.578
 8701TIP3    H250299   6.879   6.350   1.509
 8702TIP3   OH250300   6.672   6.363   5.031
 8702TIP3    H150301   6.632   6.282   5.145
 8702TIP3    H250302   6.752   6.371   5.202
 8703TIP3   OH250303   6.900   6.329   2.511
 8703TIP3    H150304   6.883   6.417   2.391
 8703TIP3    H250305   6.899   6.278   2.262
 8704TIP3   OH250306   6.018   6.285   3.924
 8704TIP3    H150307   6.039   6.325   4.179
 8704TIP3    H250308   5.976   6.201   4.011
 8705TIP3   OH250309   6.350   6.071   0.192
 8705TIP3    H150310   6.301   6.030   0.414
 8705TIP3    H250311   6.289   6.066  -0.030
 8706TIP3   OH250312   5.691   6.015   2.301
 8706TIP3    H150313   5.754   6.029   2.517
 8706TIP3    H250314   5.737   6.051   2.070
 8707TIP3   OH250315   5.801   6.088   0.858
 8707TIP3    H150316   5.878   6.137   0.747
 8707TIP3    H250317   5.740   6.164   0.900
 8708TIP3   OH250318   6.822   6.471   3.762
 8708TIP3    H150319   6.868   6.398   3.618
 8708TIP3    H250320   6.768   6.418   3.948
 8709TIP3   OH250321   6.511   6.040   2.337
 8709TIP3    H150322   6.416   6.042   2.397
 8709TIP3    H250323   6.550   5.995   2.568
 8710TIP3   OH250324   5.961   6.211   1.995
 8710TIP3    H150325   5.890   6.244   1.818
 8710TIP3    H250326   5.987   6.123   1.893
 8711TIP3   OH250327   6.365   6.222   1.230
 8711TIP3    H150328   6.457   6.251   1.227
 8711TIP3    H250329   6.320   6.285   1.047
 8712TIP3   OH250330   6.952   5.968   3.207
 8712TIP3    H150331   6.887   5.962   3.426
 8712TIP3    H250332   6.893   5.953   2.976
 8713TIP3   OH250333   6.214   6.349   0.672
 8713TIP3    H150334   6.130   6.325   0.549
 8713TIP3    H250335   6.276   6.345   0.447
 8714TIP3   OH250336   7.248   7.527   5.175
 8714TIP3    H150337   7.294   7.548   4.923
 8714TIP3    H250338   7.314   7.555   5.370
 8715TIP3   OH250339   6.009   6.771   5.085
 8715TIP3    H150340   6.076   6.800   5.280
 8715TIP3    H250341   5.930   6.756   5.253
 8716TIP3   OH250342   6.608   6.311   2.844
 8716TIP3    H150343   6.690   6.299   2.691
 8716TIP3    H250344   6.604   6.228   2.991
 8717TIP3   OH250345   6.068   5.933   1.815
 8717TIP3    H150346   6.003   5.874   1.947
 8717TIP3    H250347   6.108   5.868   1.632
 8718TIP3   OH250348   6.479   6.144   3.582
 8718TIP3    H150349   6.399   6.201   3.570
 8718TIP3    H250350   6.542   6.203   3.714
 8719TIP3   OH250351   6.550   6.808   1.152
 8719TIP3    H150352   6.479   6.750   1.050
 8719TIP3    H250353   6.513   6.829   1.419
 8720TIP3   OH250354   7.258   6.725   3.735
 8720TIP3    H150355   7.303   6.766   3.507
 8720TIP3    H250356   7.171   6.707   3.624
 8721TIP3   OH250357   6.935   6.079   0.606
 8721TIP3    H150358   6.838   6.068   0.561
 8721TIP3    H250359   6.937   6.171   0.705
 8722TIP3   OH250360   6.653   6.810   4.581
 8722TIP3    H150361   6.664   6.782   4.860
 8722TIP3    H250362   6.671   6.905   4.593
 8723TIP3   OH250363   6.987   6.287   1.080
 8723TIP3    H150364   7.076   6.258   1.161
 8723TIP3    H250365   7.004   6.378   0.981
 8724TIP3   OH250366   6.075   6.749   2.814
 8724TIP3    H150367   6.130   6.728   2.577
 8724TIP3    H250368   6.084   6.669   2.976
 8725TIP3   OH250369   6.775   6.944   0.870
 8725TIP3    H150370   6.746   7.038   0.897
 8725TIP3    H250371   6.691   6.895   0.894
 8726TIP3   OH250372   5.768   6.557   4.410
 8726TIP3    H150373   5.752   6.503   4.647
 8726TIP3    H250374   5.709   6.515   4.209
 8727TIP3   OH250375   6.450   6.512   5.001
 8727TIP3    H150376   6.410   6.455   4.800
 8727TIP3    H250377   6.540   6.472   5.013
 8728TIP3   OH250378   6.945   7.045   4.560
 8728TIP3    H150379   6.864   7.069   4.425
 8728TIP3    H250380   6.929   7.086   4.824
 8729TIP3   OH250381   7.475   6.245   1.014
 8729TIP3    H150382   7.402   6.234   0.819
 8729TIP3    H250383   7.514   6.324   0.891
 8730TIP3   OH250384   7.474   6.866   4.752
 8730TIP3    H150385   7.378   6.888   4.719
 8730TIP3    H250386   7.502   6.857   4.470
 8731TIP3   OH250387   7.311   7.148   1.185
 8731TIP3    H150388   7.240   7.083   1.221
 8731TIP3    H250389   7.357   7.114   0.948
 8732TIP3   OH250390   7.055   6.668   3.156
 8732TIP3    H150391   6.962   6.658   3.078
 8732TIP3    H250392   7.090   6.589   3.015
 8733TIP3   OH250393   6.283   7.067   2.130
 8733TIP3    H150394   6.318   7.156   2.070
 8733TIP3    H250395   6.204   7.068   1.962
 8734TIP3   OH250396   5.892   6.552   0.312
 8734TIP3    H150397   5.942   6.611   0.495
 8734TIP3    H250398   5.804   6.553   0.441
 8735TIP3   OH250399   6.432   6.846   1.905
 8735TIP3    H150400   6.386   6.929   1.971
 8735TIP3    H250401   6.392   6.783   2.091
 8736TIP3   OH250402   6.480   7.273   3.879
 8736TIP3    H150403   6.526   7.359   3.858
 8736TIP3    H250404   6.556   7.216   3.945
 8737TIP3   OH250405   6.313   7.321   1.764
 8737TIP3    H150406   6.219   7.339   1.827
 8737TIP3    H250407   6.359   7.401   1.869
 8738TIP3   OH250408   6.801   6.850   3.765
 8738TIP3    H150409   6.753   6.839   4.020
 8738TIP3    H250410   6.837   6.760   3.729
 8739TIP3   OH250411   7.069   6.986   0.435
 8739TIP3    H150412   7.108   6.938   0.666
 8739TIP3    H250413   6.975   6.970   0.498
 8740TIP3   OH250414   7.092   7.322   4.485
 8740TIP3    H150415   7.026   7.257   4.389
 8740TIP3    H250416   7.110   7.383   4.263
 8741TIP3   OH250417   7.508   7.364   0.435
 8741TIP3    H150418   7.568   7.437   0.375
 8741TIP3    H250419   7.433   7.415   0.552
 8742TIP3   OH250420   5.939   6.045   4.266
 8742TIP3    H150421   5.851   6.085   4.293
 8742TIP3    H250422   5.940   5.976   4.470
 8743TIP3   OH250423   7.172   6.841   1.023
 8743TIP3    H150424   7.126   6.766   1.152
 8743TIP3    H250425   7.266   6.813   1.050
 8744TIP3   OH250426   5.904   7.199   3.852
 8744TIP3    H150427   5.955   7.117   3.840
 8744TIP3    H250428   5.958   7.251   4.038
 8745TIP3   OH250429   6.342   7.015   0.744
 8745TIP3    H150430   6.421   6.970   0.843
 8745TIP3    H250431   6.360   7.108   0.828
 8746TIP3   OH250432   6.009   6.729   0.891
 8746TIP3    H150433   5.930   6.774   1.002
 8746TIP3    H250434   6.056   6.807   0.774
 8747TIP3   OH250435   6.788   6.031   4.080
 8747TIP3    H150436   6.881   6.045   4.158
 8747TIP3    H250437   6.766   5.946   4.203
 8748TIP3   OH250438   6.867   5.953   1.347
 8748TIP3    H150439   6.895   6.007   1.119
 8748TIP3    H250440   6.926   5.987   1.557
 8749TIP3   OH250441   6.654   7.194   0.789
 8749TIP3    H150442   6.573   7.209   0.945
 8749TIP3    H250443   6.692   7.283   0.795
 8750TIP3   OH250444   6.632   6.146   1.689
 8750TIP3    H150445   6.667   6.236   1.713
 8750TIP3    H250446   6.598   6.124   1.956
 8751TIP3   OH250447   6.689   6.283   4.251
 8751TIP3    H150448   6.680   6.299   4.542
 8751TIP3    H250449   6.733   6.195   4.230
 8752TIP3   OH250450   6.667   5.834   1.770
 8752TIP3    H150451   6.617   5.911   1.872
 8752TIP3    H250452   6.748   5.878   1.665
 8753TIP3   OH250453   6.381   7.277   0.960
 8753TIP3    H150454   6.404   7.360   0.831
 8753TIP3    H250455   6.334   7.307   1.203
 8754TIP3   OH250456   6.233   5.966   0.927
 8754TIP3    H150457   6.234   6.052   1.062
 8754TIP3    H250458   6.325   5.938   0.978
 8755TIP3   OH250459   7.259   6.019   4.647
 8755TIP3    H150460   7.174   6.037   4.512
 8755TIP3    H250461   7.322   6.039   4.428
 8756TIP3   OH250462   7.125   6.449   2.760
 8756TIP3    H150463   7.046   6.391   2.736
 8756TIP3    H250464   7.183   6.385   2.904
 8757TIP3   OH250465   6.072   6.982   0.555
 8757TIP3    H150466   6.156   7.018   0.660
 8757TIP3    H250467   6.095   6.970   0.276
 8758TIP3   OH250468   5.914   6.275   0.426
 8758TIP3    H150469   5.912   6.372   0.426
 8758TIP3    H250470   5.848   6.256   0.216
 8759TIP3   OH250471   7.272   7.363   3.306
 8759TIP3    H150472   7.249   7.416   3.066
 8759TIP3    H250473   7.369   7.362   3.279
 8760TIP3   OH250474   5.982   5.756   2.958
 8760TIP3    H150475   5.974   5.743   2.667
 8760TIP3    H250476   5.957   5.665   3.048
 8761TIP3   OH250477   5.858   7.115   1.707
 8761TIP3    H150478   5.775   7.161   1.758
 8761TIP3    H250479   5.888   7.171   1.482
 8762TIP3   OH250480   5.802   7.429   5.151
 8762TIP3    H150481   5.894   7.428   5.241
 8762TIP3    H250482   5.778   7.335   5.154
 8763TIP3   OH250483   6.283   7.269   5.628
 8763TIP3    H150484   6.378   7.250   5.628
 8763TIP3    H250485   6.261   7.251   5.352
 8764TIP3   OH250486   6.692   7.210  29.898
 8764TIP3    H150487   6.604   7.185  29.994
 8764TIP3    H250488   6.750   7.174  30.099
 8765TIP3   OH250489   6.911   7.159   5.298
 8765TIP3    H150490   6.871   7.073   5.370
 8765TIP3    H250491   6.991   7.160   5.466
 8766TIP3   OH250492   7.054   7.245   0.234
 8766TIP3    H150493   7.078   7.160   0.363
 8766TIP3    H250494   7.138   7.286   0.147
 8767TIP3   OH250495   5.756   6.786   5.445
 8767TIP3    H150496   5.726   6.693   5.421
 8767TIP3    H250497   5.720   6.825   5.199
 8768TIP3   OH250498   6.277   6.747   0.207
 8768TIP3    H150499   6.284   6.703   0.471
 8768TIP3    H250500   6.355   6.804   0.231
 8769TIP3   OH250501   6.455   6.779   5.208
 8769TIP3    H150502   6.448   6.834   4.965
 8769TIP3    H250503   6.457   6.687   5.097
 8770TIP3   OH250504   7.016   6.765   4.542
 8770TIP3    H150505   7.108   6.803   4.533
 8770TIP3    H250506   6.969   6.848   4.590
 8771TIP3   OH250507   5.894   6.505   5.298
 8771TIP3    H150508   5.953   6.430   5.304
 8771TIP3    H250509   5.923   6.556   5.532
 8772TIP3   OH250510   6.359   6.625   0.864
 8772TIP3    H150511   6.284   6.574   0.978
 8772TIP3    H250512   6.394   6.564   0.660
 8773TIP3   OH250513   6.260   6.408   4.359
 8773TIP3    H150514   6.199   6.484   4.323
 8773TIP3    H250515   6.336   6.443   4.212
 8774TIP3   OH250516   6.483   6.460   0.279
 8774TIP3    H150517   6.490   6.448  -0.006
 8774TIP3    H250518   6.576   6.452   0.375
 8775TIP3   OH250519   6.804   6.679   5.451
 8775TIP3    H150520   6.886   6.639   5.355
 8775TIP3    H250521   6.765   6.606   5.604
 8776TIP3   OH250522   7.347   6.712  29.979
 8776TIP3    H150523   7.336   6.616  29.946
 8776TIP3    H250524   7.426   6.724  29.805
 8777TIP3   OH250525   6.327   6.164   4.653
 8777TIP3    H150526   6.335   6.098   4.434
 8777TIP3    H250527   6.299   6.245   4.506
 8778TIP3   OH250528   6.354   5.971   4.059
 8778TIP3    H150529   6.412   6.021   3.873
 8778TIP3    H250530   6.272   5.961   3.903
 8779TIP3   OH250531   6.480   6.559   4.071
 8779TIP3    H150532   6.566   6.600   4.020
 8779TIP3    H250533   6.422   6.627   3.954
 8780TIP3   OH250534   6.881   6.314   5.514
 8780TIP3    H150535   6.890   6.222   5.433
 8780TIP3    H250536   6.970   6.334   5.625
 8781TIP3   OH250537   7.069   6.610   5.166
 8781TIP3    H150538   7.053   6.663   4.920
 8781TIP3    H250539   7.157   6.574   5.103
 8782TIP3   OH250540   6.182   6.246   5.322
 8782TIP3    H150541   6.096   6.206   5.247
 8782TIP3    H250542   6.238   6.224   5.088
 8783TIP3   OH250543   6.460   5.725   4.044
 8783TIP3    H150544   6.428   5.817   4.065
 8783TIP3    H250545   6.376   5.680   3.990
 8784TIP3   OH250546   6.548   6.139   5.292
 8784TIP3    H150547   6.484   6.114   5.502
 8784TIP3    H250548   6.489   6.136   5.058
 8785TIP3   OH250549   6.842   6.062   4.995
 8785TIP3    H150550   6.746   6.067   5.025
 8785TIP3    H250551   6.867   6.010   5.232
 8786TIP3   OH250552   6.978   5.932   5.556
 8786TIP3    H150553   6.980   5.833   5.559
 8786TIP3    H250554   6.971   5.954   5.841
 8787TIP3   OH250555   5.966   6.062   5.343
 8787TIP3    H150556   5.952   5.980   5.193
 8787TIP3    H250557   5.940   6.034   5.619
 8788TIP3   OH250558   6.440   5.701   4.968
 8788TIP3    H150559   6.522   5.650   4.980
 8788TIP3    H250560   6.426   5.701   4.680
 8789TIP3   OH250561   6.473   5.822   5.697
 8789TIP3    H150562   6.453   5.774   5.445
 8789TIP3    H250563   6.413   5.899   5.670
 8790TIP3   OH250564   6.436   7.517   0.516
 8790TIP3    H150565   6.527   7.531   0.606
 8790TIP3    H250566   6.447   7.529   0.225
 8791TIP3   OH250567   5.800   6.987   0.459
 8791TIP3    H150568   5.899   6.988   0.486
 8791TIP3    H250569   5.787   6.960   0.183
 8792TIP3   OH250570   5.671   7.518   1.866
 8792TIP3    H150571   5.596   7.471   1.737
 8792TIP3    H250572   5.681   7.461   2.100
 8793TIP3   OH250573   5.761   7.309   2.475
 8793TIP3    H150574   5.689   7.253   2.577
 8793TIP3    H250575   5.820   7.317   2.709
 8794TIP3   OH250576   7.576   7.403   3.246
 8794TIP3    H150577   7.579   7.432   3.525
 8794TIP3    H250578   7.552   7.487   3.126
 8795TIP3   OH250579   7.456   7.334   4.263
 8795TIP3    H150580   7.424   7.267   4.074
 8795TIP3    H250581   7.503   7.273   4.449
 8796TIP3   OH250582   7.278   6.945   5.577
 8796TIP3    H150583   7.203   6.946   5.772
 8796TIP3    H250584   7.335   7.017   5.676
 8797TIP3   OH250585   7.437   6.758   1.182
 8797TIP3    H150586   7.509   6.817   1.260
 8797TIP3    H250587   7.448   6.687   1.380
 8798TIP3   OH250588   7.476   6.572   1.767
 8798TIP3    H150589   7.381   6.548   1.785
 8798TIP3    H250590   7.503   6.558   2.043
 8799TIP3   OH250591   7.457   6.819   3.312
 8799TIP3    H150592   7.523   6.774   3.147
 8799TIP3    H250593   7.460   6.910   3.195
 8800TIP3   OH250594   7.326   7.119   4.002
 8800TIP3    H150595   7.256   7.168   4.137
 8800TIP3    H250596   7.283   7.103   3.741
 8801TIP3   OH250597   7.491   6.570   0.609
 8801TIP3    H150598   7.407   6.599   0.501
 8801TIP3    H250599   7.500   6.636   0.822
 8802TIP3   OH250600   7.329   6.253   0.369
 8802TIP3    H150601   7.380   6.299   0.159
 8802TIP3    H250602   7.322   6.166   0.240
 8803TIP3   OH250603   7.253   6.450   2.040
 8803TIP3    H150604   7.228   6.361   1.947
 8803TIP3    H250605   7.223   6.449   2.322
 8804TIP3   OH250606   5.752   6.665   3.252
 8804TIP3    H150607   5.761   6.632   2.970
 8804TIP3    H250608   5.839   6.636   3.354
 8805TIP3   OH250609   7.346   6.610   4.872
 8805TIP3    H150610   7.427   6.556   4.833
 8805TIP3    H250611   7.383   6.700   4.848
 8806TIP3   OH250612   7.502   6.409   5.082
 8806TIP3    H150613   7.405   6.394   5.091
 8806TIP3    H250614   7.531   6.317   5.136
 8807TIP3   OH250615   7.265   6.040  -0.051
 8807TIP3    H150616   7.321   5.974   0.081
 8807TIP3    H250617   7.179   6.030   0.084
 8808TIP3   OH250618   7.223   6.211   1.488
 8808TIP3    H150619   7.224   6.114   1.545
 8808TIP3    H250620   7.317   6.228   1.437
 8809TIP3   OH250621   7.250   6.263   3.147
 8809TIP3    H150622   7.347   6.251   3.102
 8809TIP3    H250623   7.247   6.246   3.435
 8810TIP3   OH250624   7.283   6.298   4.005
 8810TIP3    H150625   7.200   6.346   4.068
 8810TIP3    H250626   7.336   6.375   3.912
 8811TIP3   OH250627   5.743   6.160   5.061
 8811TIP3    H150628   5.833   6.141   5.166
 8811TIP3    H250629   5.701   6.070   5.064
 8812TIP3   OH250630   7.516   5.666   5.532
 8812TIP3    H150631   7.561   5.612   5.334
 8812TIP3    H250632   7.511   5.752   5.391
 8813TIP3   OH250633   7.267   5.945   1.566
 8813TIP3    H150634   7.297   5.912   1.830
 8813TIP3    H250635   7.219   5.867   1.467
 8814TIP3   OH250636   5.848   5.997   3.099
 8814TIP3    H150637   5.887   5.906   3.081
 8814TIP3    H250638   5.926   6.053   3.045
 8815TIP3   OH250639   5.693   6.304   3.273
 8815TIP3    H150640   5.747   6.288   3.036
 8815TIP3    H250641   5.737   6.384   3.369
 8816TIP3   OH250642   7.477   5.904   5.190
 8816TIP3    H150643   7.388   5.934   5.286
 8816TIP3    H250644   7.448   5.887   4.914
 8817TIP3   OH250645   7.525   5.925   0.465
 8817TIP3    H150646   7.555   5.841   0.351
 8817TIP3    H250647   7.573   5.994   0.315
 8818TIP3   OH250648   5.711   5.919   1.431
 8818TIP3    H150649   5.621   5.950   1.482
 8818TIP3    H250650   5.730   5.959   1.170
 8819TIP3   OH250651   7.159   7.407   1.959
 8819TIP3    H150652   7.228   7.409   1.746
 8819TIP3    H250653   7.212   7.435   2.190
 8820TIP3   OH250654   5.717   5.777   3.951
 8820TIP3    H150655   5.645   5.749   4.131
 8820TIP3    H250656   5.672   5.839   3.768
 8821TIP3   OH250657   5.936   7.082   5.115
 8821TIP3    H150658   5.852   7.082   4.965
 8821TIP3    H250659   5.906   7.090   5.388
 8822TIP3   OH250660   6.220   7.222   4.053
 8822TIP3    H150661   6.208   7.320   4.026
 8822TIP3    H250662   6.317   7.222   4.047
 8823TIP3   OH250663   6.680   7.325   4.866
 8823TIP3    H150664   6.666   7.305   5.151
 8823TIP3    H250665   6.755   7.389   4.881
 8824TIP3   OH250666   6.901   7.505   4.758
 8824TIP3    H150667   6.962   7.434   4.686
 8824TIP3    H250668   6.927   7.520   5.037
 8825TIP3   OH250669   7.349   5.734   4.527
 8825TIP3    H150670   7.269   5.771   4.407
 8825TIP3    H250671   7.355   5.647   4.395
 8826TIP3   OH250672   5.942   7.557   4.002
 8826TIP3    H150673   5.849   7.551   3.909
 8826TIP3    H250674   5.931   7.574   4.287
 8827TIP3   OH250675   6.198   7.480   3.894
 8827TIP3    H150676   6.107   7.513   3.966
 8827TIP3    H250677   6.201   7.504   3.612
 8828TIP3   OH250678   6.688   7.466   3.525
 8828TIP3    H150679   6.615   7.482   3.330
 8828TIP3    H250680   6.688   7.552   3.663
 8829TIP3   OH250681   6.865   7.315   3.951
 8829TIP3    H150682   6.797   7.364   3.795
 8829TIP3    H250683   6.940   7.373   3.906
 8830TIP3   OH250684   7.138   7.535   3.834
 8830TIP3    H150685   7.120   7.621   3.711
 8830TIP3    H250686   7.186   7.485   3.624
 8831TIP3   OH250687   5.919   7.333   3.135
 8831TIP3    H150688   5.918   7.282   3.387
 8831TIP3    H250689   6.003   7.304   3.006
 8832TIP3   OH250690   6.137   7.268   2.754
 8832TIP3    H150691   6.128   7.171   2.793
 8832TIP3    H250692   6.217   7.285   2.919
 8833TIP3   OH250693   6.359   7.269   3.159
 8833TIP3    H150694   6.385   7.175   3.114
 8833TIP3    H250695   6.388   7.283   3.438
 8834TIP3   OH250696   6.712   5.878   2.805
 8834TIP3    H150697   6.635   5.824   2.874
 8834TIP3    H250698   6.759   5.818   2.625
 8835TIP3   OH250699   7.212   5.678   2.766
 8835TIP3    H150700   7.263   5.742   2.604
 8835TIP3    H250701   7.121   5.703   2.676
 8836TIP3   OH250702   7.356   5.818   2.238
 8836TIP3    H150703   7.427   5.755   2.157
 8836TIP3    H250704   7.414   5.893   2.316
 8837TIP3   OH250705   5.950   5.708   2.133
 8837TIP3    H150706   5.868   5.697   1.983
 8837TIP3    H250707   5.998   5.624   2.070
 8838TIP3   OH250708   5.825   5.705   0.810
 8838TIP3    H150709   5.880   5.773   0.672
 8838TIP3    H250710   5.785   5.757   1.029
 8839TIP3   OH250711   6.380   5.685   2.028
 8839TIP3    H150712   6.462   5.713   1.905
 8839TIP3    H250713   6.397   5.705   2.307
 8840TIP3   OH250714   6.958   5.738   2.457
 8840TIP3    H150715   6.936   5.737   2.175
 8840TIP3    H250716   6.909   5.659   2.562
 8841TIP3   OH250717   7.109   5.715   1.269
 8841TIP3    H150718   7.032   5.773   1.290
 8841TIP3    H250719   7.072   5.628   1.359
 8842TIP3   OH250720   5.820   7.306   1.161
 8842TIP3    H150721   5.726   7.296   1.098
 8842TIP3    H250722   5.841   7.391   1.032
 8843TIP3   OH250723   6.006   5.842   0.390
 8843TIP3    H150724   6.084   5.786   0.426
 8843TIP3    H250725   6.034   5.925   0.513
 8844TIP3   OH250726   6.554   5.942   1.068
 8844TIP3    H150727   6.607   5.896   1.269
 8844TIP3    H250728   6.549   6.030   1.197
 8845TIP3   OH250729   6.707   7.463   0.546
 8845TIP3    H150730   6.806   7.461   0.567
 8845TIP3    H250731   6.695   7.414   0.294
 8846TIP3   OH250732   7.368   7.383   1.497
 8846TIP3    H150733   7.348   7.289   1.434
 8846TIP3    H250734   7.362   7.419   1.227
 8847TIP3   OH250735   5.926   5.807   4.968
 8847TIP3    H150736   5.874   5.724   4.965
 8847TIP3    H250737   5.998   5.785   5.154
 8848TIP3   OH250738   6.124   5.724   5.544
 8848TIP3    H150739   6.214   5.706   5.448
 8848TIP3    H250740   6.095   5.633   5.610
 8849TIP3   OH250741   6.038   7.489   0.270
 8849TIP3    H150742   5.974   7.491   0.492
 8849TIP3    H250743   6.093   7.415   0.357
 8850TIP3   OH250744   6.988   5.669   5.541
 8850TIP3    H150745   6.984   5.615   5.784
 8850TIP3    H250746   7.076   5.643   5.433
 8851TIP3   OH250747   7.290   7.248   5.091
 8851TIP3    H150748   7.230   7.280   4.881
 8851TIP3    H250749   7.328   7.332   5.181
 8852TIP3   OH250750   7.580   6.308   1.704
 8852TIP3    H150751   7.556   6.402   1.713
 8852TIP3    H250752   7.529   6.277   1.470
 8853TIP3   OH250753   7.570   6.769   4.059
 8853TIP3    H150754   7.527   6.776   3.795
 8853TIP3    H250755   7.551   6.677   4.143
 8854TIP3   OH250756   7.526   7.052   3.021
 8854TIP3    H150757   7.609   7.072   2.880
 8854TIP3    H250758   7.537   7.106   3.258
 8855TIP3   OH250759   7.549   6.005   2.220
 8855TIP3    H150760   7.634   6.052   2.253
 8855TIP3    H250761   7.542   6.005   1.932
 8856TIP3   OH250762   7.588   6.515   4.383
 8856TIP3    H150763   7.577   6.455   4.614
 8856TIP3    H250764   7.509   6.493   4.215
 8857TIP3   OH250765   7.604   6.738   5.352
 8857TIP3    H150766   7.545   6.665   5.427
 8857TIP3    H250767   7.561   6.777   5.115
 8858TIP3   OH250768   7.499   7.511   2.058
 8858TIP3    H150769   7.444   7.461   1.863
 8858TIP3    H250770   7.521   7.439   2.247
 8859TIP3   OH250771   7.557   7.277   2.496
 8859TIP3    H150772   7.479   7.234   2.616
 8859TIP3    H250773   7.615   7.289   2.730
 8860TIP3   OH250774   7.617   6.589   3.264
 8860TIP3    H150775   7.619   6.597   2.973
 8860TIP3    H250776   7.702   6.633   3.324
 8861TIP3   OH250777   7.543   6.152   5.001
 8861TIP3    H150778   7.639   6.144   4.950
 8861TIP3    H250779   7.526   6.075   5.178
 8862TIP3   OH250780   7.508   6.275   3.063
 8862TIP3    H150781   7.596   6.236   3.108
 8862TIP3    H250782   7.535   6.367   3.069
 8863TIP3   OH250783   7.517   5.942   1.305
 8863TIP3    H150784   7.424   5.968   1.353
 8863TIP3    H250785   7.522   5.946   1.011
 8864TIP3   OH250786   7.482   5.769   3.828
 8864TIP3    H150787   7.460   5.776   4.116
 8864TIP3    H250788   7.425   5.838   3.711
 8865TIP3   OH250789   0.831   7.540   3.093
 8865TIP3    H150790   0.836   7.474   2.874
 8865TIP3    H250791   0.733   7.544   3.138
 8866TIP3   OH250792   1.697   7.506   0.816
 8866TIP3    H150793   1.603   7.516   0.897
 8866TIP3    H250794   1.713   7.604   0.828
 8867TIP3   OH250795   0.584   7.628   3.186
 8867TIP3    H150796   0.491   7.623   3.090
 8867TIP3    H250797   0.599   7.725   3.129
 8868TIP3   OH250798   1.060   7.607   4.239
 8868TIP3    H150799   1.140   7.570   4.368
 8868TIP3    H250800   0.993   7.547   4.347
 8869TIP3   OH250801   0.333   7.604   2.871
 8869TIP3    H150802   0.324   7.605   2.577
 8869TIP3    H250803   0.276   7.528   2.943
 8870TIP3   OH250804   0.786   7.519   4.116
 8870TIP3    H150805   0.785   7.618   4.110
 8870TIP3    H250806   0.714   7.494   3.936
 8871TIP3   OH250807   0.760   7.493   4.899
 8871TIP3    H150808   0.846   7.468   5.007
 8871TIP3    H250809   0.776   7.482   4.611
 8872TIP3   OH250810   1.811   7.565   5.391
 8872TIP3    H150811   1.890   7.517   5.298
 8872TIP3    H250812   1.852   7.629   5.571
 8873TIP3   OH250813   0.081   7.642   3.849
 8873TIP3    H150814  -0.005   7.646   3.978
 8873TIP3    H250815   0.100   7.738   3.816
 8874TIP3   OH250816   1.689   7.571   4.392
 8874TIP3    H150817   1.623   7.561   4.176
 8874TIP3    H250818   1.720   7.478   4.425
 8875TIP3   OH250819   1.591   7.521   2.622
 8875TIP3    H150820   1.631   7.607   2.679
 8875TIP3    H250821   1.498   7.549   2.589
 8876TIP3   OH250822   0.291   7.578   2.019
 8876TIP3    H150823   0.209   7.556   1.872
 8876TIP3    H250824   0.342   7.495   1.974
 8877TIP3   OH250825   0.183   7.544   0.645
 8877TIP3    H150826   0.208   7.609   0.444
 8877TIP3    H250827   0.151   7.605   0.852
 8878TIP3   OH250828   0.762   7.540   2.118
 8878TIP3    H150829   0.791   7.614   1.950
 8878TIP3    H250830   0.692   7.585   2.268
 8879TIP3   OH250831   1.322   7.566   2.370
 8879TIP3    H150832   1.270   7.583   2.133
 8879TIP3    H250833   1.279   7.485   2.472
 8880TIP3   OH250834   1.469   7.580   1.176
 8880TIP3    H150835   1.407   7.562   0.957
 8880TIP3    H250836   1.441   7.511   1.368
 8881TIP3   OH250837   0.465   7.553   5.253
 8881TIP3    H150838   0.525   7.500   5.091
 8881TIP3    H250839   0.447   7.493   5.478
 8882TIP3   OH250840   1.336   7.478   5.478
 8882TIP3    H150841   1.346   7.448   5.757
 8882TIP3    H250842   1.430   7.476   5.397
 8883TIP3   OH250843   2.710   7.541   3.075
 8883TIP3    H150844   2.708   7.468   2.877
 8883TIP3    H250845   2.615   7.549   3.141
 8884TIP3   OH250846   3.581   7.518   0.798
 8884TIP3    H150847   3.489   7.521   0.900
 8884TIP3    H250848   3.596   7.616   0.822
 8885TIP3   OH250849   2.453   7.634   3.192
 8885TIP3    H150850   2.364   7.625   3.072
 8885TIP3    H250851   2.465   7.731   3.177
 8886TIP3   OH250852   2.952   7.607   4.194
 8886TIP3    H150853   3.027   7.577   4.368
 8886TIP3    H250854   2.886   7.541   4.272
 8887TIP3   OH250855   2.194   7.593   2.868
 8887TIP3    H150856   2.186   7.585   2.574
 8887TIP3    H250857   2.161   7.506   2.958
 8888TIP3   OH250858   2.686   7.522   4.113
 8888TIP3    H150859   2.692   7.618   4.047
 8888TIP3    H250860   2.596   7.503   4.014
 8889TIP3   OH250861   2.616   7.490   4.881
 8889TIP3    H150862   2.689   7.446   5.016
 8889TIP3    H250863   2.650   7.495   4.602
 8890TIP3   OH250864   3.667   7.520   5.382
 8890TIP3    H150865   3.754   7.498   5.271
 8890TIP3    H250866   3.690   7.596   5.550
 8891TIP3   OH250867   1.921   7.595   3.888
 8891TIP3    H150868   1.846   7.596   4.080
 8891TIP3    H250869   1.924   7.689   3.804
 8892TIP3   OH250870   3.548   7.576   4.401
 8892TIP3    H150871   3.486   7.562   4.179
 8892TIP3    H250872   3.601   7.493   4.386
 8893TIP3   OH250873   3.483   7.517   2.622
 8893TIP3    H150874   3.521   7.605   2.682
 8893TIP3    H250875   3.391   7.542   2.574
 8894TIP3   OH250876   2.160   7.560   2.037
 8894TIP3    H150877   2.070   7.543   1.929
 8894TIP3    H250878   2.206   7.477   1.965
 8895TIP3   OH250879   2.074   7.553   0.858
 8895TIP3    H150880   2.126   7.636   0.906
 8895TIP3    H250881   2.003   7.566   1.056
 8896TIP3   OH250882   2.641   7.534   2.136
 8896TIP3    H150883   2.680   7.605   1.971
 8896TIP3    H250884   2.569   7.587   2.244
 8897TIP3   OH250885   3.209   7.569   2.367
 8897TIP3    H150886   3.160   7.571   2.118
 8897TIP3    H250887   3.167   7.492   2.493
 8898TIP3   OH250888   3.348   7.583   1.161
 8898TIP3    H150889   3.281   7.560   0.960
 8898TIP3    H250890   3.321   7.519   1.371
 8899TIP3   OH250891   2.351   7.538   5.184
 8899TIP3    H150892   2.437   7.492   5.145
 8899TIP3    H250893   2.314   7.488   5.415
 8900TIP3   OH250894   3.201   7.473   5.478
 8900TIP3    H150895   3.215   7.443   5.754
 8900TIP3    H250896   3.293   7.475   5.379
 8901TIP3   OH250897   4.593   7.539   3.093
 8901TIP3    H150898   4.581   7.469   2.895
 8901TIP3    H250899   4.502   7.551   3.195
 8902TIP3   OH250900   5.464   7.514   0.798
 8902TIP3    H150901   5.372   7.513   0.897
 8902TIP3    H250902   5.472   7.613   0.807
 8903TIP3   OH250903   4.337   7.634   3.201
 8903TIP3    H150904   4.244   7.625   3.114
 8903TIP3    H250905   4.350   7.731   3.174
 8904TIP3   OH250906   4.848   7.601   4.155
 8904TIP3    H150907   4.917   7.574   4.347
 8904TIP3    H250908   4.774   7.546   4.248
 8905TIP3   OH250909   4.067   7.587   2.856
 8905TIP3    H150910   4.058   7.577   2.565
 8905TIP3    H250911   4.039   7.499   2.955
 8906TIP3   OH250912   4.581   7.518   4.140
 8906TIP3    H150913   4.577   7.612   4.053
 8906TIP3    H250914   4.493   7.487   4.050
 8907TIP3   OH250915   4.541   7.501   4.941
 8907TIP3    H150916   4.619   7.459   5.058
 8907TIP3    H250917   4.559   7.493   4.653
 8908TIP3   OH250918   5.567   7.527   5.352
 8908TIP3    H150919   5.654   7.507   5.232
 8908TIP3    H250920   5.593   7.597   5.538
 8909TIP3   OH250921   3.794   7.591   3.849
 8909TIP3    H150922   3.734   7.606   4.071
 8909TIP3    H250923   3.818   7.684   3.780
 8910TIP3   OH250924   5.446   7.576   4.377
 8910TIP3    H150925   5.380   7.565   4.164
 8910TIP3    H250926   5.498   7.492   4.347
 8911TIP3   OH250927   5.368   7.520   2.610
 8911TIP3    H150928   5.409   7.605   2.679
 8911TIP3    H250929   5.276   7.549   2.577
 8912TIP3   OH250930   4.041   7.557   1.977
 8912TIP3    H150931   3.950   7.542   1.878
 8912TIP3    H250932   4.083   7.471   1.929
 8913TIP3   OH250933   3.975   7.548   0.849
 8913TIP3    H150934   4.023   7.633   0.879
 8913TIP3    H250935   3.901   7.569   1.032
 8914TIP3   OH250936   4.528   7.534   2.112
 8914TIP3    H150937   4.566   7.612   1.983
 8914TIP3    H250938   4.452   7.578   2.229
 8915TIP3   OH250939   5.089   7.566   2.379
 8915TIP3    H150940   5.053   7.559   2.112
 8915TIP3    H250941   5.043   7.491   2.502
 8916TIP3   OH250942   5.235   7.580   1.179
 8916TIP3    H150943   5.173   7.556   0.966
 8916TIP3    H250944   5.204   7.520   1.392
 8917TIP3   OH250945   4.234   7.539   5.193
 8917TIP3    H150946   4.321   7.501   5.133
 8917TIP3    H250947   4.195   7.464   5.340
 8918TIP3   OH250948   5.118   7.480   5.448
 8918TIP3    H150949   5.121   7.446   5.724
 8918TIP3    H250950   5.213   7.489   5.379
 8919TIP3   OH250951   6.483   7.533   3.090
 8919TIP3    H150952   6.485   7.463   2.886
 8919TIP3    H250953   6.386   7.543   3.132
 8920TIP3   OH250954   7.317   7.521   0.774
 8920TIP3    H150955   7.234   7.526   0.933
 8920TIP3    H250956   7.325   7.617   0.711
 8921TIP3   OH250957   6.230   7.627   3.177
 8921TIP3    H150958   6.137   7.617   3.087
 8921TIP3    H250959   6.239   7.725   3.177
 8922TIP3   OH250960   6.734   7.595   4.188
 8922TIP3    H150961   6.804   7.567   4.380
 8922TIP3    H250962   6.668   7.526   4.242
 8923TIP3   OH250963   5.949   7.587   2.874
 8923TIP3    H150964   5.940   7.575   2.583
 8923TIP3    H250965   5.925   7.497   2.973
 8924TIP3   OH250966   6.463   7.520   4.176
 8924TIP3    H150967   6.469   7.615   4.101
 8924TIP3    H250968   6.381   7.494   4.038
 8925TIP3   OH250969   6.419   7.508   5.004
 8925TIP3    H150970   6.491   7.455   5.115
 8925TIP3    H250971   6.434   7.494   4.716
 8926TIP3   OH250972   7.515   7.495   5.448
 8926TIP3    H150973   7.607   7.475   5.385
 8926TIP3    H250974   7.529   7.573   5.616
 8927TIP3   OH250975   5.683   7.593   3.816
 8927TIP3    H150976   5.619   7.598   4.032
 8927TIP3    H250977   5.703   7.687   3.768
 8928TIP3   OH250978   7.339   7.566   4.407
 8928TIP3    H150979   7.280   7.563   4.176
 8928TIP3    H250980   7.382   7.477   4.380
 8929TIP3   OH250981   7.248   7.511   2.649
 8929TIP3    H150982   7.285   7.601   2.652
 8929TIP3    H250983   7.155   7.534   2.580
 8930TIP3   OH250984   5.935   7.552   2.040
 8930TIP3    H150985   5.850   7.540   1.899
 8930TIP3    H250986   5.982   7.469   1.968
 8931TIP3   OH250987   5.848   7.551   0.849
 8931TIP3    H150988   5.892   7.641   0.849
 8931TIP3    H250989   5.778   7.570   1.044
 8932TIP3   OH250990   6.416   7.533   2.133
 8932TIP3    H150991   6.450   7.614   2.007
 8932TIP3    H250992   6.339   7.575   2.259
 8933TIP3   OH250993   6.997   7.579   2.424
 8933TIP3    H150994   6.979   7.551   2.151
 8933TIP3    H250995   6.937   7.518   2.568
 8934TIP3   OH250996   7.106   7.589   1.194
 8934TIP3    H150997   7.034   7.572   1.002
 8934TIP3    H250998   7.076   7.526   1.404
 8935TIP3   OH250999   6.134   7.543   5.145
 8935TIP3    H151000   6.224   7.507   5.115
 8935TIP3    H251001   6.100   7.491   5.376
 8936TIP3   OH251002   7.012   7.485   5.499
 8936TIP3    H151003   7.023   7.461   5.778
 8936TIP3    H251004   7.105   7.476   5.403
 8937TIP3   OH251005   7.478   7.607   3.684
 8937TIP3    H151006   7.476   7.612   3.975
 8937TIP3    H251007   7.489   7.701   3.615
 8938TIP3   OH251008   1.211   0.995   7.794
 8938TIP3    H151009   1.200   1.091   7.746
 8938TIP3    H251010   1.144   0.961   7.608
 8939TIP3   OH251011   1.456   1.268   8.208
 8939TIP3    H151012   1.401   1.191   8.268
 8939TIP3    H251013   1.494   1.290   8.463
 8940TIP3   OH251014   0.473   1.341   8.640
 8940TIP3    H151015   0.412   1.270   8.541
 8940TIP3    H251016   0.549   1.285   8.688
 8941TIP3   OH251017   0.150   0.725   7.233
 8941TIP3    H151018   0.135   0.793   7.437
 8941TIP3    H251019   0.062   0.684   7.239
 8942TIP3   OH251020   0.169   0.902   7.881
 8942TIP3    H151021   0.187   0.821   8.037
 8942TIP3    H251022   0.256   0.928   7.782
 8943TIP3   OH251023   1.384   0.420   7.743
 8943TIP3    H151024   1.423   0.374   7.518
 8943TIP3    H251025   1.337   0.493   7.614
 8944TIP3   OH251026   0.226   0.650   8.283
 8944TIP3    H151027   0.299   0.659   8.472
 8944TIP3    H251028   0.234   0.559   8.178
 8945TIP3   OH251029   0.735   0.830   8.175
 8945TIP3    H151030   0.810   0.789   8.316
 8945TIP3    H251031   0.697   0.748   8.064
 8946TIP3   OH251032   1.151   1.248   7.413
 8946TIP3    H151033   1.144   1.225   7.125
 8946TIP3    H251034   1.168   1.342   7.389
 8947TIP3   OH251035   0.126   1.212   6.849
 8947TIP3    H151036   0.119   1.266   6.603
 8947TIP3    H251037   0.157   1.278   7.041
 8948TIP3   OH251038   1.507   1.359   7.365
 8948TIP3    H151039   1.429   1.318   7.242
 8948TIP3    H251040   1.488   1.349   7.650
 8949TIP3   OH251041   1.080   0.921   7.029
 8949TIP3    H151042   0.991   0.957   6.978
 8949TIP3    H251043   1.126   0.940   6.780
 8950TIP3   OH251044   1.083   0.823   6.114
 8950TIP3    H151045   1.172   0.824   6.243
 8950TIP3    H251046   1.093   0.747   5.934
 8951TIP3   OH251047   1.439   0.965   7.218
 8951TIP3    H151048   1.365   0.965   7.416
 8951TIP3    H251049   1.505   0.908   7.350
 8952TIP3   OH251050   0.590   1.053   7.926
 8952TIP3    H151051   0.547   1.010   7.698
 8952TIP3    H251052   0.643   0.977   8.034
 8953TIP3   OH251053   1.320   0.862   6.528
 8953TIP3    H151054   1.365   0.900   6.759
 8953TIP3    H251055   1.363   0.916   6.318
 8954TIP3   OH251056   1.702   0.094   6.558
 8954TIP3    H151057   1.614   0.131   6.612
 8954TIP3    H251058   1.744   0.169   6.411
 8955TIP3   OH251059   0.443   0.921   7.281
 8955TIP3    H151060   0.422   0.996   7.098
 8955TIP3    H251061   0.405   0.846   7.143
 8956TIP3   OH251062   1.798   1.460   6.177
 8956TIP3    H151063   1.827   1.554   6.180
 8956TIP3    H251064   1.886   1.417   6.159
 8957TIP3   OH251065   0.070   1.451   8.709
 8957TIP3    H151066   0.099   1.379   8.880
 8957TIP3    H251067   0.133   1.522   8.760
 8958TIP3   OH251068   0.404   1.674   7.635
 8958TIP3    H151069   0.419   1.652   7.917
 8958TIP3    H251070   0.307   1.672   7.617
 8959TIP3   OH251071   1.466   0.984   5.970
 8959TIP3    H151072   1.423   0.972   5.709
 8959TIP3    H251073   1.552   0.945   5.898
 8960TIP3   OH251074   1.006   0.338   6.090
 8960TIP3    H151075   0.946   0.304   6.297
 8960TIP3    H251076   0.951   0.328   5.853
 8961TIP3   OH251077   0.626   0.618   7.770
 8961TIP3    H151078   0.535   0.635   7.695
 8961TIP3    H251079   0.669   0.606   7.512
 8962TIP3   OH251080   1.178   0.666   7.233
 8962TIP3    H151081   1.148   0.756   7.155
 8962TIP3    H251082   1.255   0.652   7.056
 8963TIP3   OH251083   0.663   0.411   5.799
 8963TIP3    H151084   0.633   0.340   5.976
 8963TIP3    H251085   0.586   0.430   5.634
 8964TIP3   OH251086   0.895   0.410   8.067
 8964TIP3    H151087   0.811   0.374   7.977
 8964TIP3    H251088   0.890   0.386   8.349
 8965TIP3   OH251089   0.704   0.602   6.900
 8965TIP3    H151090   0.744   0.518   6.816
 8965TIP3    H251091   0.654   0.628   6.663
 8966TIP3   OH251092   0.565   0.718   6.117
 8966TIP3    H151093   0.541   0.680   5.856
 8966TIP3    H251094   0.660   0.737   6.057
 8967TIP3   OH251095   0.945   0.686   8.499
 8967TIP3    H151096   0.910   0.611   8.352
 8967TIP3    H251097   0.954   0.648   8.763
 8968TIP3   OH251098   0.892   1.177   6.747
 8968TIP3    H151099   0.834   1.106   6.642
 8968TIP3    H251100   0.853   1.188   7.017
 8969TIP3   OH251101   1.255   0.426   6.201
 8969TIP3    H151102   1.157   0.438   6.192
 8969TIP3    H251103   1.289   0.489   6.402
 8970TIP3   OH251104   1.375   0.594   6.714
 8970TIP3    H151105   1.462   0.593   6.846
 8970TIP3    H251106   1.377   0.676   6.552
 8971TIP3   OH251107   0.386   1.105   8.415
 8971TIP3    H151108   0.447   1.089   8.190
 8971TIP3    H251109   0.375   1.016   8.529
 8972TIP3   OH251110   1.154   1.222   6.612
 8972TIP3    H151111   1.127   1.311   6.537
 8972TIP3    H251112   1.064   1.181   6.615
 8973TIP3   OH251113   1.800   0.638   6.642
 8973TIP3    H151114   1.758   0.616   6.384
 8973TIP3    H251115   1.828   0.732   6.603
 8974TIP3   OH251116   1.596   1.521   6.675
 8974TIP3    H151117   1.581   1.461   6.903
 8974TIP3    H251118   1.674   1.483   6.537
 8975TIP3   OH251119   0.654   1.445   7.641
 8975TIP3    H151120   0.668   1.539   7.569
 8975TIP3    H251121   0.557   1.442   7.644
 8976TIP3   OH251122   0.230   0.936   6.099
 8976TIP3    H151123   0.277   1.002   6.264
 8976TIP3    H251124   0.149   0.922   6.255
 8977TIP3   OH251125   0.782   1.187   7.485
 8977TIP3    H151126   0.737   1.271   7.557
 8977TIP3    H251127   0.733   1.122   7.644
 8978TIP3   OH251128   0.661   1.711   7.416
 8978TIP3    H151129   0.564   1.705   7.464
 8978TIP3    H251130   0.677   1.805   7.485
 8979TIP3   OH251131   1.426   1.308   6.108
 8979TIP3    H151132   1.418   1.272   6.381
 8979TIP3    H251133   1.341   1.279   5.994
 8980TIP3   OH251134   1.861   1.721   6.243
 8980TIP3    H151135   1.902   1.785   6.066
 8980TIP3    H251136   1.793   1.775   6.384
 8981TIP3   OH251137   1.489   1.180   6.762
 8981TIP3    H151138   1.471   1.091   6.879
 8981TIP3    H251139   1.537   1.224   6.978
 8982TIP3   OH251140   0.835   1.443   5.637
 8982TIP3    H151141   0.813   1.377   5.430
 8982TIP3    H251142   0.766   1.424   5.835
 8983TIP3   OH251143   0.694   1.352   6.408
 8983TIP3    H151144   0.770   1.311   6.546
 8983TIP3    H251145   0.706   1.446   6.486
 8984TIP3   OH251146   0.367   1.102   6.615
 8984TIP3    H151147   0.288   1.154   6.699
 8984TIP3    H251148   0.407   1.162   6.420
 8985TIP3   OH251149   1.201   0.307   6.951
 8985TIP3    H151150   1.165   0.314   6.681
 8985TIP3    H251151   1.189   0.398   7.035
 8986TIP3   OH251152   0.962   0.483   7.296
 8986TIP3    H151153   1.025   0.557   7.281
 8986TIP3    H251154   0.938   0.484   7.581
 8987TIP3   OH251155   1.027   0.189   7.506
 8987TIP3    H151156   1.007   0.278   7.605
 8987TIP3    H251157   1.100   0.204   7.320
 8988TIP3   OH251158   0.749   1.605   6.549
 8988TIP3    H151159   0.716   1.660   6.330
 8988TIP3    H251160   0.723   1.659   6.783
 8989TIP3   OH251161   0.438   1.360   6.105
 8989TIP3    H151162   0.517   1.371   6.276
 8989TIP3    H251163   0.476   1.297   5.913
 8990TIP3   OH251164   0.210   1.455   7.197
 8990TIP3    H151165   0.133   1.508   7.254
 8990TIP3    H251166   0.265   1.524   7.074
 8991TIP3   OH251167   1.047   1.626   5.649
 8991TIP3    H151168   0.977   1.557   5.664
 8991TIP3    H251169   1.113   1.582   5.475
 8992TIP3   OH251170   1.466   1.577   5.700
 8992TIP3    H151171   1.496   1.534   5.946
 8992TIP3    H251172   1.548   1.584   5.541
 8993TIP3   OH251173   0.578   1.171   5.682
 8993TIP3    H151174   0.608   1.126   5.922
 8993TIP3    H251175   0.665   1.184   5.547
 8994TIP3   OH251176   1.162   1.281   5.682
 8994TIP3    H151177   1.071   1.288   5.775
 8994TIP3    H251178   1.155   1.192   5.550
 8995TIP3   OH251179   0.729   0.965   6.465
 8995TIP3    H151180   0.653   0.915   6.561
 8995TIP3    H251181   0.758   0.911   6.231
 8996TIP3   OH251182   0.810   0.800   5.880
 8996TIP3    H151183   0.830   0.824   5.604
 8996TIP3    H251184   0.901   0.807   6.000
 8997TIP3   OH251185   1.729   1.045   5.640
 8997TIP3    H151186   1.710   0.997   5.388
 8997TIP3    H251187   1.780   1.119   5.529
 8998TIP3   OH251188   0.168   1.330   6.138
 8998TIP3    H151189   0.262   1.354   6.108
 8998TIP3    H251190   0.152   1.280   5.889
 8999TIP3   OH251191   0.076   1.843   7.398
 8999TIP3    H151192  -0.013   1.883   7.419
 8999TIP3    H251193   0.083   1.796   7.650
 9000TIP3   OH251194   0.166   1.658   8.046
 9000TIP3    H151195   0.213   1.573   8.079
 9000TIP3    H251196   0.202   1.708   8.277
 9001TIP3   OH251197   1.781   1.131   6.702
 9001TIP3    H151198   1.865   1.173   6.789
 9001TIP3    H251199   1.757   1.085   6.951
 9002TIP3   OH251200   1.797   0.950   7.413
 9002TIP3    H151201   1.735   0.928   7.626
 9002TIP3    H251202   1.879   0.972   7.563
 9003TIP3   OH251203   1.828   1.223   8.838
 9003TIP3    H151204   1.912   1.191   8.724
 9003TIP3    H251205   1.856   1.245   9.108
 9004TIP3   OH251206   1.865   0.896   6.348
 9004TIP3    H151207   1.787   0.894   6.171
 9004TIP3    H251208   1.841   0.968   6.531
 9005TIP3   OH251209   1.658   0.656   5.898
 9005TIP3    H151210   1.715   0.694   5.688
 9005TIP3    H251211   1.647   0.563   5.805
 9006TIP3   OH251212   1.589   0.772   7.641
 9006TIP3    H151213   1.606   0.693   7.470
 9006TIP3    H251214   1.640   0.753   7.875
 9007TIP3   OH251215   0.239   0.894   8.907
 9007TIP3    H151216   0.195   0.951   8.718
 9007TIP3    H251217   0.219   0.937   9.162
 9008TIP3   OH251218   1.618   0.409   5.679
 9008TIP3    H151219   1.664   0.337   5.823
 9008TIP3    H251220   1.526   0.375   5.655
 9009TIP3   OH251221   1.605   0.558   7.137
 9009TIP3    H151222   1.625   0.466   7.209
 9009TIP3    H251223   1.677   0.578   6.945
 9010TIP3   OH251224   1.639   0.286   7.314
 9010TIP3    H151225   1.708   0.218   7.302
 9010TIP3    H251226   1.570   0.248   7.140
 9011TIP3   OH251227   0.103   0.644   9.162
 9011TIP3    H151228   0.147   0.646   8.907
 9011TIP3    H251229   0.132   0.727   9.285
 9012TIP3   OH251230   1.834   0.282   6.159
 9012TIP3    H151231   1.870   0.221   5.955
 9012TIP3    H251232   1.902   0.351   6.174
 9013TIP3   OH251233   0.274   1.736   8.727
 9013TIP3    H151234   0.304   1.736   9.009
 9013TIP3    H251235   0.350   1.683   8.616
 9014TIP3   OH251236   0.472   1.600   8.403
 9014TIP3    H151237   0.473   1.506   8.496
 9014TIP3    H251238   0.566   1.621   8.475
 9015TIP3   OH251239   0.727   1.637   8.670
 9015TIP3    H151240   0.815   1.622   8.562
 9015TIP3    H251241   0.744   1.661   8.946
 9016TIP3   OH251242   1.552   0.103   8.244
 9016TIP3    H151243   1.644   0.123   8.175
 9016TIP3    H251244   1.511   0.107   7.983
 9017TIP3   OH251245   0.158   0.155   6.324
 9017TIP3    H151246   0.114   0.073   6.234
 9017TIP3    H251247   0.162   0.139   6.612
 9018TIP3   OH251248   0.741   0.148   7.731
 9018TIP3    H151249   0.827   0.137   7.602
 9018TIP3    H251250   0.697   0.063   7.683
 9019TIP3   OH251251   1.454   0.180   6.819
 9019TIP3    H151252   1.362   0.213   6.819
 9019TIP3    H251253   1.437   0.083   6.831
 9020TIP3   OH251254   0.197   1.687   6.753
 9020TIP3    H151255   0.101   1.690   6.738
 9020TIP3    H251256   0.217   1.778   6.657
 9021TIP3   OH251257   0.867   0.306   6.759
 9021TIP3    H151258   0.881   0.225   6.915
 9021TIP3    H251259   0.912   0.375   6.924
 9022TIP3   OH251260   1.743   1.707   7.152
 9022TIP3    H151261   1.676   1.642   7.059
 9022TIP3    H251262   1.708   1.790   7.041
 9023TIP3   OH251263   0.327   1.755   5.847
 9023TIP3    H151264   0.285   1.779   6.099
 9023TIP3    H251265   0.386   1.684   5.931
 9024TIP3   OH251266   3.112   1.009   7.680
 9024TIP3    H151267   3.079   1.099   7.728
 9024TIP3    H251268   3.040   0.973   7.521
 9025TIP3   OH251269   3.326   1.217   8.352
 9025TIP3    H151270   3.316   1.121   8.352
 9025TIP3    H251271   3.373   1.234   8.103
 9026TIP3   OH251272   1.957   0.655   7.389
 9026TIP3    H151273   1.958   0.730   7.572
 9026TIP3    H251274   1.925   0.696   7.143
 9027TIP3   OH251275   2.005   0.923   8.094
 9027TIP3    H151276   2.047   0.851   8.253
 9027TIP3    H251277   2.066   0.995   8.163
 9028TIP3   OH251278   2.820   1.113   9.057
 9028TIP3    H151279   2.808   1.097   8.772
 9028TIP3    H251280   2.804   1.210   9.072
 9029TIP3   OH251281   2.413   0.445   8.157
 9029TIP3    H151282   2.434   0.513   7.959
 9029TIP3    H251283   2.385   0.369   7.995
 9030TIP3   OH251284   3.255   0.449   7.572
 9030TIP3    H151285   3.245   0.400   7.821
 9030TIP3    H251286   3.268   0.540   7.659
 9031TIP3   OH251287   2.079   0.647   8.316
 9031TIP3    H151288   2.132   0.634   8.556
 9031TIP3    H251289   2.123   0.585   8.130
 9032TIP3   OH251290   2.627   0.770   8.142
 9032TIP3    H151291   2.703   0.758   8.322
 9032TIP3    H251292   2.642   0.699   7.953
 9033TIP3   OH251293   3.020   1.246   7.362
 9033TIP3    H151294   3.020   1.215   7.086
 9033TIP3    H251295   3.005   1.343   7.317
 9034TIP3   OH251296   2.285   0.530   8.808
 9034TIP3    H151297   2.353   0.589   8.904
 9034TIP3    H251298   2.328   0.491   8.568
 9035TIP3   OH251299   2.036   1.208   6.843
 9035TIP3    H151300   2.027   1.263   6.600
 9035TIP3    H251301   2.050   1.278   7.047
 9036TIP3   OH251302   2.976   0.935   6.960
 9036TIP3    H151303   2.924   1.016   6.900
 9036TIP3    H251304   3.053   0.942   6.783
 9037TIP3   OH251305   2.968   0.824   5.985
 9037TIP3    H151306   3.035   0.866   6.159
 9037TIP3    H251307   3.013   0.742   5.913
 9038TIP3   OH251308   3.335   0.938   7.248
 9038TIP3    H151309   3.258   0.961   7.419
 9038TIP3    H251310   3.392   0.889   7.437
 9039TIP3   OH251311   3.193   0.904   6.480
 9039TIP3    H151312   3.247   0.908   6.723
 9039TIP3    H251313   3.257   0.942   6.285
 9040TIP3   OH251314   2.987   1.513   7.368
 9040TIP3    H151315   3.019   1.534   7.635
 9040TIP3    H251316   2.931   1.586   7.287
 9041TIP3   OH251317   3.556   0.095   6.480
 9041TIP3    H151318   3.467   0.125   6.561
 9041TIP3    H251319   3.596   0.181   6.414
 9042TIP3   OH251320   2.376   0.891   6.957
 9042TIP3    H151321   2.344   0.984   6.942
 9042TIP3    H251322   2.296   0.843   7.023
 9043TIP3   OH251323   2.907   1.825   7.050
 9043TIP3    H151324   2.898   1.835   6.759
 9043TIP3    H251325   2.914   1.919   7.131
 9044TIP3   OH251326   2.292   1.683   7.638
 9044TIP3    H151327   2.295   1.692   7.929
 9044TIP3    H251328   2.202   1.647   7.593
 9045TIP3   OH251329   3.199   1.733   6.201
 9045TIP3    H151330   3.268   1.677   6.069
 9045TIP3    H251331   3.230   1.735   6.477
 9046TIP3   OH251332   3.187   1.749   7.092
 9046TIP3    H151333   3.091   1.730   7.086
 9046TIP3    H251334   3.227   1.667   7.188
 9047TIP3   OH251335   2.483   0.105   8.679
 9047TIP3    H151336   2.407   0.067   8.541
 9047TIP3    H251337   2.449   0.193   8.724
 9048TIP3   OH251338   3.360   1.004   5.958
 9048TIP3    H151339   3.341   1.022   5.676
 9048TIP3    H251340   3.458   1.016   5.955
 9049TIP3   OH251341   2.483   0.642   7.500
 9049TIP3    H151342   2.400   0.654   7.635
 9049TIP3    H251343   2.509   0.735   7.470
 9050TIP3   OH251344   3.074   0.694   7.188
 9050TIP3    H151345   3.034   0.773   7.065
 9050TIP3    H251346   3.113   0.645   6.963
 9051TIP3   OH251347   3.090   0.652   8.040
 9051TIP3    H151348   3.069   0.698   7.794
 9051TIP3    H251349   3.084   0.560   7.962
 9052TIP3   OH251350   2.541   0.405   5.715
 9052TIP3    H151351   2.481   0.331   5.754
 9052TIP3    H251352   2.479   0.473   5.616
 9053TIP3   OH251353   2.013   0.459   6.555
 9053TIP3    H151354   2.068   0.507   6.360
 9053TIP3    H251355   1.944   0.527   6.603
 9054TIP3   OH251356   2.185   0.501   7.623
 9054TIP3    H151357   2.111   0.564   7.587
 9054TIP3    H251358   2.197   0.467   7.353
 9055TIP3   OH251359   2.433   0.686   6.072
 9055TIP3    H151360   2.420   0.665   5.790
 9055TIP3    H251361   2.509   0.745   6.054
 9056TIP3   OH251362   2.852   0.686   8.565
 9056TIP3    H151363   2.932   0.666   8.412
 9056TIP3    H251364   2.874   0.638   8.805
 9057TIP3   OH251365   2.787   1.119   6.762
 9057TIP3    H151366   2.716   1.064   6.645
 9057TIP3    H251367   2.742   1.145   7.014
 9058TIP3   OH251368   3.143   0.442   6.087
 9058TIP3    H151369   3.054   0.467   6.168
 9058TIP3    H251370   3.198   0.491   6.282
 9059TIP3   OH251371   3.246   0.608   6.618
 9059TIP3    H151372   3.324   0.590   6.789
 9059TIP3    H251373   3.270   0.695   6.516
 9060TIP3   OH251374   2.977   1.271   6.453
 9060TIP3    H151375   2.930   1.356   6.504
 9060TIP3    H251376   2.910   1.204   6.531
 9061TIP3   OH251377   3.716   0.632   6.657
 9061TIP3    H151378   3.660   0.604   6.432
 9061TIP3    H251379   3.727   0.729   6.597
 9062TIP3   OH251380   2.538   1.424   7.593
 9062TIP3    H151381   2.537   1.521   7.545
 9062TIP3    H251382   2.444   1.403   7.617
 9063TIP3   OH251383   2.112   0.962   6.003
 9063TIP3    H151384   2.167   0.995   6.225
 9063TIP3    H251385   2.027   0.939   6.129
 9064TIP3   OH251386   2.656   1.171   7.455
 9064TIP3    H151387   2.624   1.261   7.521
 9064TIP3    H251388   2.662   1.131   7.716
 9065TIP3   OH251389   2.543   1.687   7.386
 9065TIP3    H151390   2.446   1.681   7.437
 9065TIP3    H251391   2.562   1.776   7.488
 9066TIP3   OH251392   3.322   1.332   6.093
 9066TIP3    H151393   3.348   1.294   6.360
 9066TIP3    H251394   3.233   1.293   6.081
 9067TIP3   OH251395   3.383   1.191   6.759
 9067TIP3    H151396   3.343   1.126   6.939
 9067TIP3    H251397   3.478   1.171   6.792
 9068TIP3   OH251398   2.710   1.446   5.655
 9068TIP3    H151399   2.709   1.399   5.400
 9068TIP3    H251400   2.653   1.387   5.814
 9069TIP3   OH251401   2.588   1.366   6.378
 9069TIP3    H151402   2.661   1.321   6.516
 9069TIP3    H251403   2.598   1.457   6.486
 9070TIP3   OH251404   2.255   1.093   6.552
 9070TIP3    H151405   2.175   1.129   6.678
 9070TIP3    H251406   2.292   1.171   6.420
 9071TIP3   OH251407   3.108   0.334   6.930
 9071TIP3    H151408   3.144   0.418   6.855
 9071TIP3    H251409   3.125   0.332   7.218
 9072TIP3   OH251410   2.875   1.547   6.573
 9072TIP3    H151411   2.784   1.581   6.630
 9072TIP3    H251412   2.920   1.632   6.531
 9073TIP3   OH251413   2.622   1.627   6.609
 9073TIP3    H151414   2.627   1.705   6.429
 9073TIP3    H251415   2.586   1.669   6.852
 9074TIP3   OH251416   2.304   1.352   6.129
 9074TIP3    H151417   2.378   1.380   6.300
 9074TIP3    H251418   2.354   1.310   5.913
 9075TIP3   OH251419   2.090   0.664   6.021
 9075TIP3    H151420   2.139   0.749   6.033
 9075TIP3    H251421   2.053   0.667   5.754
 9076TIP3   OH251422   2.223   0.127   8.523
 9076TIP3    H151423   2.208   0.114   8.232
 9076TIP3    H251424   2.199   0.039   8.619
 9077TIP3   OH251425   2.096   1.456   7.311
 9077TIP3    H151426   2.030   1.522   7.392
 9077TIP3    H251427   2.132   1.506   7.086
 9078TIP3   OH251428   2.911   1.640   5.625
 9078TIP3    H151429   2.865   1.557   5.703
 9078TIP3    H251430   2.992   1.605   5.499
 9079TIP3   OH251431   3.367   1.584   5.760
 9079TIP3    H151432   3.375   1.495   5.883
 9079TIP3    H251433   3.430   1.584   5.535
 9080TIP3   OH251434   2.456   1.152   5.637
 9080TIP3    H151435   2.469   1.098   5.877
 9080TIP3    H251436   2.541   1.136   5.493
 9081TIP3   OH251437   3.010   1.297   5.613
 9081TIP3    H151438   2.984   1.287   5.895
 9081TIP3    H251439   3.011   1.201   5.535
 9082TIP3   OH251440   2.588   0.964   6.441
 9082TIP3    H151441   2.520   0.912   6.585
 9082TIP3    H251442   2.624   0.898   6.252
 9083TIP3   OH251443   2.675   0.798   5.856
 9083TIP3    H151444   2.658   0.814   5.574
 9083TIP3    H251445   2.772   0.806   5.871
 9084TIP3   OH251446   3.607   1.036   5.649
 9084TIP3    H151447   3.605   1.008   5.364
 9084TIP3    H251448   3.616   1.133   5.625
 9085TIP3   OH251449   2.669   1.853   6.243
 9085TIP3    H151450   2.766   1.859   6.267
 9085TIP3    H251451   2.659   1.898   5.985
 9086TIP3   OH251452   2.025   1.314   6.087
 9086TIP3    H151453   2.122   1.328   6.075
 9086TIP3    H251454   2.011   1.261   5.844
 9087TIP3   OH251455   1.927   1.862   7.515
 9087TIP3    H151456   1.859   1.808   7.377
 9087TIP3    H251457   1.938   1.804   7.752
 9088TIP3   OH251458   1.983   1.657   8.025
 9088TIP3    H151459   1.900   1.608   8.070
 9088TIP3    H251460   2.014   1.669   8.301
 9089TIP3   OH251461   3.683   1.116   6.861
 9089TIP3    H151462   3.769   1.157   6.912
 9089TIP3    H251463   3.685   1.041   7.050
 9090TIP3   OH251464   3.696   0.906   7.383
 9090TIP3    H151465   3.622   0.841   7.422
 9090TIP3    H251466   3.740   0.911   7.647
 9091TIP3   OH251467   3.716   0.892   6.327
 9091TIP3    H151468   3.657   0.904   6.096
 9091TIP3    H251469   3.688   0.967   6.495
 9092TIP3   OH251470   3.550   0.639   5.829
 9092TIP3    H151471   3.603   0.679   5.616
 9092TIP3    H251472   3.526   0.552   5.709
 9093TIP3   OH251473   3.497   0.740   7.569
 9093TIP3    H151474   3.471   0.683   7.341
 9093TIP3    H251475   3.475   0.684   7.797
 9094TIP3   OH251476   3.511   0.390   5.610
 9094TIP3    H151477   3.575   0.330   5.733
 9094TIP3    H251478   3.426   0.341   5.610
 9095TIP3   OH251479   3.478   0.556   7.041
 9095TIP3    H151480   3.474   0.459   7.107
 9095TIP3    H251481   3.572   0.567   6.963
 9096TIP3   OH251482   3.538   0.297   7.158
 9096TIP3    H151483   3.540   0.248   7.413
 9096TIP3    H251484   3.458   0.255   7.041
 9097TIP3   OH251485   2.081   0.363   8.529
 9097TIP3    H151486   2.149   0.292   8.505
 9097TIP3    H251487   2.134   0.438   8.631
 9098TIP3   OH251488   3.720   0.276   6.156
 9098TIP3    H151489   3.764   0.207   5.997
 9098TIP3    H251490   3.794   0.329   6.261
 9099TIP3   OH251491   1.911   0.266   7.041
 9099TIP3    H151492   1.825   0.305   6.990
 9099TIP3    H251493   1.968   0.332   6.906
 9100TIP3   OH251494   3.471   0.065   8.406
 9100TIP3    H151495   3.486   0.116   8.160
 9100TIP3    H251496   3.374   0.056   8.418
 9101TIP3   OH251497   3.603   0.189   7.848
 9101TIP3    H151498   3.666   0.125   7.746
 9101TIP3    H251499   3.663   0.263   7.926
 9102TIP3   OH251500   2.193   0.107   7.740
 9102TIP3    H151501   2.125   0.135   7.551
 9102TIP3    H251502   2.211   0.015   7.647
 9103TIP3   OH251503   2.090   0.129   6.558
 9103TIP3    H151504   2.088   0.174   6.303
 9103TIP3    H251505   2.004   0.157   6.669
 9104TIP3   OH251506   3.195   0.169   8.055
 9104TIP3    H151507   3.138   0.147   7.827
 9104TIP3    H251508   3.163   0.106   8.250
 9105TIP3   OH251509   3.327   0.171   6.867
 9105TIP3    H151510   3.238   0.209   6.921
 9105TIP3    H251511   3.304   0.076   6.867
 9106TIP3   OH251512   2.072   1.662   6.780
 9106TIP3    H151513   1.976   1.657   6.726
 9106TIP3    H251514   2.089   1.750   6.663
 9107TIP3   OH251515   2.249   0.244   5.988
 9107TIP3    H151516   2.279   0.186   5.769
 9107TIP3    H251517   2.291   0.203   6.222
 9108TIP3   OH251518   2.939   1.808   6.237
 9108TIP3    H151519   3.036   1.804   6.204
 9108TIP3    H251520   2.915   1.751   6.009
 9109TIP3   OH251521   2.207   1.754   5.862
 9109TIP3    H151522   2.178   1.765   6.138
 9109TIP3    H251523   2.276   1.687   5.892
 9110TIP3   OH251524   3.830   0.663   7.422
 9110TIP3    H151525   3.845   0.754   7.515
 9110TIP3    H251526   3.768   0.675   7.200
 9111TIP3   OH251527   3.884   0.925   7.986
 9111TIP3    H151528   3.911   0.901   8.256
 9111TIP3    H251529   3.947   0.997   7.926
 9112TIP3   OH251530   5.141   0.454   7.644
 9112TIP3    H151531   5.169   0.396   7.869
 9112TIP3    H251532   5.226   0.485   7.548
 9113TIP3   OH251533   4.028   0.629   8.313
 9113TIP3    H151534   4.023   0.533   8.367
 9113TIP3    H251535   4.045   0.626   8.025
 9114TIP3   OH251536   4.469   0.792   8.313
 9114TIP3    H151537   4.550   0.773   8.163
 9114TIP3    H251538   4.406   0.751   8.121
 9115TIP3   OH251539   5.275   0.328   8.184
 9115TIP3    H151540   5.232   0.339   8.445
 9115TIP3    H251541   5.365   0.357   8.241
 9116TIP3   OH251542   3.943   1.259   6.915
 9116TIP3    H151543   3.911   1.298   6.666
 9116TIP3    H251544   3.904   1.313   7.125
 9117TIP3   OH251545   4.596   0.146   8.619
 9117TIP3    H151546   4.630   0.056   8.577
 9117TIP3    H251547   4.517   0.144   8.448
 9118TIP3   OH251548   4.841   0.913   6.858
 9118TIP3    H151549   4.770   0.969   6.975
 9118TIP3    H251550   4.916   0.975   6.858
 9119TIP3   OH251551   4.859   0.815   5.994
 9119TIP3    H151552   4.871   0.795   6.279
 9119TIP3    H251553   4.904   0.740   5.874
 9120TIP3   OH251554   4.325   0.979   7.752
 9120TIP3    H151555   4.318   0.962   7.464
 9120TIP3    H251556   4.414   0.950   7.809
 9121TIP3   OH251557   5.482   0.068   6.630
 9121TIP3    H151558   5.395   0.052   6.756
 9121TIP3    H251559   5.481   0.163   6.567
 9122TIP3   OH251560   4.245   0.903   6.918
 9122TIP3    H151561   4.189   0.978   6.828
 9122TIP3    H251562   4.187   0.827   6.873
 9123TIP3   OH251563   5.563   1.434   6.048
 9123TIP3    H151564   5.585   1.518   5.925
 9123TIP3    H251565   5.648   1.385   6.036
 9124TIP3   OH251566   4.185   1.707   7.512
 9124TIP3    H151567   4.252   1.657   7.671
 9124TIP3    H251568   4.105   1.661   7.587
 9125TIP3   OH251569   5.090   1.776   6.231
 9125TIP3    H151570   5.163   1.716   6.150
 9125TIP3    H251571   5.111   1.781   6.516
 9126TIP3   OH251572   5.072   1.721   7.074
 9126TIP3    H151573   4.979   1.744   7.038
 9126TIP3    H251574   5.069   1.642   7.242
 9127TIP3   OH251575   4.775   0.378   6.045
 9127TIP3    H151576   4.739   0.359   6.312
 9127TIP3    H251577   4.734   0.302   5.916
 9128TIP3   OH251578   4.373   0.656   7.686
 9128TIP3    H151579   4.289   0.609   7.647
 9128TIP3    H251580   4.419   0.624   7.443
 9129TIP3   OH251581   4.921   0.703   7.269
 9129TIP3    H151582   4.889   0.774   7.089
 9129TIP3    H251583   4.998   0.669   7.128
 9130TIP3   OH251584   4.434   0.393   5.745
 9130TIP3    H151585   4.386   0.357   5.979
 9130TIP3    H251586   4.365   0.449   5.619
 9131TIP3   OH251587   3.815   0.346   7.920
 9131TIP3    H151588   3.871   0.424   7.944
 9131TIP3    H251589   3.832   0.316   7.647
 9132TIP3   OH251590   3.899   0.429   6.549
 9132TIP3    H151591   3.957   0.469   6.345
 9132TIP3    H251592   3.841   0.506   6.606
 9133TIP3   OH251593   4.652   0.467   8.025
 9133TIP3    H151594   4.592   0.392   7.986
 9133TIP3    H251595   4.731   0.421   8.139
 9134TIP3   OH251596   4.077   0.534   7.563
 9134TIP3    H151597   4.005   0.544   7.368
 9134TIP3    H251598   4.133   0.461   7.461
 9135TIP3   OH251599   4.458   0.582   6.924
 9135TIP3    H151600   4.555   0.590   6.891
 9135TIP3    H251601   4.423   0.651   6.750
 9136TIP3   OH251602   5.159   0.330   8.901
 9136TIP3    H151603   5.112   0.411   8.991
 9136TIP3    H251604   5.088   0.276   8.781
 9137TIP3   OH251605   4.332   0.702   6.108
 9137TIP3    H151606   4.299   0.658   5.865
 9137TIP3    H251607   4.412   0.744   5.997
 9138TIP3   OH251608   4.669   1.115   6.927
 9138TIP3    H151609   4.605   1.076   6.744
 9138TIP3    H251610   4.617   1.180   7.083
 9139TIP3   OH251611   5.027   0.436   6.291
 9139TIP3    H151612   4.936   0.438   6.180
 9139TIP3    H251613   5.045   0.529   6.348
 9140TIP3   OH251614   5.104   0.657   6.675
 9140TIP3    H151615   5.153   0.596   6.852
 9140TIP3    H251616   5.177   0.695   6.525
 9141TIP3   OH251617   4.120   1.088   8.217
 9141TIP3    H151618   4.200   1.061   8.070
 9141TIP3    H251619   4.121   1.035   8.454
 9142TIP3   OH251620   4.883   1.218   6.357
 9142TIP3    H151621   4.871   1.312   6.408
 9142TIP3    H251622   4.820   1.178   6.549
 9143TIP3   OH251623   5.599   0.647   6.615
 9143TIP3    H151624   5.549   0.612   6.381
 9143TIP3    H251625   5.627   0.735   6.522
 9144TIP3   OH251626   5.519   1.452   6.861
 9144TIP3    H151627   5.433   1.411   6.897
 9144TIP3    H251628   5.528   1.458   6.567
 9145TIP3   OH251629   5.181   0.914   8.706
 9145TIP3    H151630   5.105   0.971   8.652
 9145TIP3    H251631   5.137   0.826   8.721
 9146TIP3   OH251632   4.002   0.900   6.252
 9146TIP3    H151633   4.037   0.987   6.342
 9146TIP3    H251634   3.922   0.921   6.096
 9147TIP3   OH251635   4.610   1.401   5.658
 9147TIP3    H151636   4.582   1.380   5.388
 9147TIP3    H251637   4.596   1.315   5.787
 9148TIP3   OH251638   4.126   1.114   6.534
 9148TIP3    H151639   4.062   1.162   6.705
 9148TIP3    H251640   4.176   1.186   6.408
 9149TIP3   OH251641   5.000   0.342   7.092
 9149TIP3    H151642   4.980   0.403   6.876
 9149TIP3    H251643   5.048   0.398   7.290
 9150TIP3   OH251644   4.713   0.528   7.275
 9150TIP3    H151645   4.800   0.567   7.353
 9150TIP3    H251646   4.686   0.501   7.548
 9151TIP3   OH251647   4.793   0.199   7.401
 9151TIP3    H151648   4.788   0.225   7.680
 9151TIP3    H251649   4.871   0.251   7.314
 9152TIP3   OH251650   4.332   0.326   6.507
 9152TIP3    H151651   4.317   0.397   6.699
 9152TIP3    H251652   4.424   0.307   6.591
 9153TIP3   OH251653   4.191   1.344   6.111
 9153TIP3    H151654   4.268   1.366   6.276
 9153TIP3    H251655   4.238   1.294   5.898
 9154TIP3   OH251656   3.998   0.635   5.997
 9154TIP3    H151657   4.035   0.719   6.096
 9154TIP3    H251658   3.940   0.668   5.787
 9155TIP3   OH251659   4.791   1.621   5.700
 9155TIP3    H151660   4.743   1.536   5.667
 9155TIP3    H251661   4.874   1.596   5.562
 9156TIP3   OH251662   5.299   1.626   5.949
 9156TIP3    H151663   5.282   1.534   5.877
 9156TIP3    H251664   5.337   1.653   5.697
 9157TIP3   OH251665   4.355   1.176   5.691
 9157TIP3    H151666   4.337   1.088   5.796
 9157TIP3    H251667   4.431   1.154   5.514
 9158TIP3   OH251668   4.883   1.294   5.526
 9158TIP3    H151669   4.877   1.276   5.811
 9158TIP3    H251670   4.896   1.200   5.445
 9159TIP3   OH251671   4.460   0.998   6.423
 9159TIP3    H151672   4.394   0.952   6.591
 9159TIP3    H251673   4.490   0.926   6.249
 9160TIP3   OH251674   4.570   0.817   5.811
 9160TIP3    H151675   4.579   0.864   5.553
 9160TIP3    H251676   4.664   0.803   5.877
 9161TIP3   OH251677   3.911   1.328   6.066
 9161TIP3    H151678   4.008   1.316   6.042
 9161TIP3    H251679   3.878   1.264   5.862
 9162TIP3   OH251680   5.607   0.909   7.413
 9162TIP3    H151681   5.533   0.851   7.503
 9162TIP3    H251682   5.642   0.947   7.662
 9163TIP3   OH251683   5.647   0.894   6.330
 9163TIP3    H151684   5.557   0.896   6.219
 9163TIP3    H251685   5.642   0.941   6.585
 9164TIP3   OH251686   5.432   0.635   5.901
 9164TIP3    H151687   5.475   0.670   5.658
 9164TIP3    H251688   5.403   0.546   5.808
 9165TIP3   OH251689   5.388   0.758   7.560
 9165TIP3    H151690   5.310   0.704   7.500
 9165TIP3    H251691   5.362   0.797   7.815
 9166TIP3   OH251692   5.393   0.379   5.730
 9166TIP3    H151693   5.443   0.328   5.931
 9166TIP3    H251694   5.304   0.338   5.718
 9167TIP3   OH251695   5.310   0.550   7.119
 9167TIP3    H151696   5.359   0.463   7.113
 9167TIP3    H251697   5.386   0.611   7.110
 9168TIP3   OH251698   5.439   0.314   7.107
 9168TIP3    H151699   5.457   0.253   7.332
 9168TIP3    H251700   5.360   0.272   6.990
 9169TIP3   OH251701   3.799   0.637   8.871
 9169TIP3    H151702   3.858   0.657   8.646
 9169TIP3    H251703   3.783   0.724   8.982
 9170TIP3   OH251704   5.607   0.263   6.183
 9170TIP3    H151705   5.647   0.208   5.973
 9170TIP3    H251706   5.682   0.317   6.282
 9171TIP3   OH251707   3.810   0.242   7.107
 9171TIP3    H151708   3.715   0.260   7.056
 9171TIP3    H251709   3.849   0.289   6.876
 9172TIP3   OH251710   4.830   0.267   8.226
 9172TIP3    H151711   4.768   0.208   8.361
 9172TIP3    H251712   4.903   0.208   8.142
 9173TIP3   OH251713   5.346   0.048   8.190
 9173TIP3    H151714   5.389   0.126   8.070
 9173TIP3    H251715   5.288   0.087   8.391
 9174TIP3   OH251716   5.554   0.176   7.710
 9174TIP3    H151717   5.611   0.100   7.758
 9174TIP3    H251718   5.605   0.253   7.812
 9175TIP3   OH251719   5.034   0.094   8.061
 9175TIP3    H151720   5.094   0.033   7.926
 9175TIP3    H251721   5.057   0.072   8.340
 9176TIP3   OH251722   5.213   0.197   6.873
 9176TIP3    H151723   5.124   0.240   6.900
 9176TIP3    H251724   5.200   0.116   7.026
 9177TIP3   OH251725   4.094   0.200   6.063
 9177TIP3    H151726   4.166   0.172   5.883
 9177TIP3    H251727   4.141   0.253   6.264
 9178TIP3   OH251728   4.639   0.319   6.747
 9178TIP3    H151729   4.666   0.250   6.942
 9178TIP3    H251730   4.662   0.398   6.912
 9179TIP3   OH251731   4.822   1.796   6.309
 9179TIP3    H151732   4.918   1.795   6.261
 9179TIP3    H251733   4.794   1.745   6.075
 9180TIP3   OH251734   4.132   1.755   5.805
 9180TIP3    H151735   4.113   1.812   6.030
 9180TIP3    H251736   4.140   1.665   5.913
 9181TIP3   OH251737   6.875   1.008   7.650
 9181TIP3    H151738   6.843   1.100   7.665
 9181TIP3    H251739   6.825   0.975   7.416
 9182TIP3   OH251740   6.738   0.896   8.802
 9182TIP3    H151741   6.806   0.828   8.796
 9182TIP3    H251742   6.692   0.886   8.550
 9183TIP3   OH251743   5.769   0.672   7.389
 9183TIP3    H151744   5.724   0.758   7.386
 9183TIP3    H251745   5.706   0.621   7.233
 9184TIP3   OH251746   5.782   0.926   8.067
 9184TIP3    H151747   5.844   0.856   8.163
 9184TIP3    H251748   5.830   0.957   7.833
 9185TIP3   OH251749   6.821   1.763   8.379
 9185TIP3    H151750   6.882   1.714   8.205
 9185TIP3    H251751   6.802   1.689   8.559
 9186TIP3   OH251752   6.563   1.203   8.997
 9186TIP3    H151753   6.586   1.149   8.769
 9186TIP3    H251754   6.640   1.189   9.171
 9187TIP3   OH251755   6.231   0.410   8.115
 9187TIP3    H151756   6.233   0.501   8.013
 9187TIP3    H251757   6.184   0.362   7.905
 9188TIP3   OH251758   6.999   0.440   7.707
 9188TIP3    H151759   7.053   0.396   7.908
 9188TIP3    H251760   7.067   0.495   7.575
 9189TIP3   OH251761   5.908   0.688   8.316
 9189TIP3    H151762   5.921   0.619   8.514
 9189TIP3    H251763   5.931   0.642   8.064
 9190TIP3   OH251764   6.369   0.824   8.157
 9190TIP3    H151765   6.434   0.770   8.301
 9190TIP3    H251766   6.322   0.752   8.013
 9191TIP3   OH251767   6.800   1.264   7.356
 9191TIP3    H151768   6.783   1.258   7.068
 9191TIP3    H251769   6.760   1.349   7.428
 9192TIP3   OH251770   5.793   1.230   6.747
 9192TIP3    H151771   5.785   1.275   6.486
 9192TIP3    H251772   5.794   1.306   6.933
 9193TIP3   OH251773   6.963   1.591   7.887
 9193TIP3    H151774   6.987   1.504   7.767
 9193TIP3    H251775   7.047   1.637   7.830
 9194TIP3   OH251776   7.110   1.376   7.449
 9194TIP3    H151777   7.098   1.317   7.218
 9194TIP3    H251778   7.142   1.314   7.650
 9195TIP3   OH251779   6.744   0.927   6.984
 9195TIP3    H151780   6.671   0.989   6.930
 9195TIP3    H251781   6.809   0.942   6.771
 9196TIP3   OH251782   6.737   0.848   5.952
 9196TIP3    H151783   6.798   0.887   6.150
 9196TIP3    H251784   6.756   0.754   5.985
 9197TIP3   OH251785   7.074   0.892   7.215
 9197TIP3    H151786   7.012   0.941   7.389
 9197TIP3    H251787   7.149   0.879   7.401
 9198TIP3   OH251788   6.206   0.999   7.773
 9198TIP3    H151789   6.199   0.938   7.548
 9198TIP3    H251790   6.269   0.951   7.950
 9199TIP3   OH251791   6.375   1.364   8.589
 9199TIP3    H151792   6.362   1.312   8.349
 9199TIP3    H251793   6.447   1.317   8.730
 9200TIP3   OH251794   6.948   0.882   6.498
 9200TIP3    H151795   7.002   0.872   6.750
 9200TIP3    H251796   7.014   0.922   6.312
 9201TIP3   OH251797   6.691   1.579   7.629
 9201TIP3    H151798   6.787   1.582   7.683
 9201TIP3    H251799   6.686   1.609   7.353
 9202TIP3   OH251800   7.316   0.108   6.519
 9202TIP3    H151801   7.225   0.113   6.405
 9202TIP3    H251802   7.365   0.168   6.342
 9203TIP3   OH251803   6.155   0.884   6.963
 9203TIP3    H151804   6.116   0.974   6.954
 9203TIP3    H251805   6.087   0.829   6.840
 9204TIP3   OH251806   7.448   1.500   6.009
 9204TIP3    H151807   7.484   1.587   6.093
 9204TIP3    H251808   7.530   1.448   6.015
 9205TIP3   OH251809   6.705   1.805   7.101
 9205TIP3    H151810   6.704   1.812   6.810
 9205TIP3    H251811   6.689   1.897   7.182
 9206TIP3   OH251812   6.056   1.701   7.593
 9206TIP3    H151813   6.093   1.745   7.827
 9206TIP3    H251814   5.973   1.751   7.575
 9207TIP3   OH251815   6.991   1.747   6.153
 9207TIP3    H151816   7.043   1.672   6.042
 9207TIP3    H251817   6.994   1.730   6.444
 9208TIP3   OH251818   6.962   1.745   6.939
 9208TIP3    H151819   6.870   1.761   7.038
 9208TIP3    H251820   6.987   1.665   7.083
 9209TIP3   OH251821   7.118   1.000   6.033
 9209TIP3    H151822   7.106   0.987   5.742
 9209TIP3    H251823   7.215   1.008   6.048
 9210TIP3   OH251824   6.636   0.345   6.123
 9210TIP3    H151825   6.621   0.291   6.357
 9210TIP3    H251826   6.598   0.286   5.916
 9211TIP3   OH251827   6.268   0.643   7.632
 9211TIP3    H151828   6.173   0.618   7.608
 9211TIP3    H251829   6.303   0.627   7.359
 9212TIP3   OH251830   6.812   0.679   7.236
 9212TIP3    H151831   6.800   0.770   7.131
 9212TIP3    H251832   6.879   0.643   7.047
 9213TIP3   OH251833   6.860   0.689   8.154
 9213TIP3    H151834   6.871   0.731   7.893
 9213TIP3    H251835   6.904   0.603   8.109
 9214TIP3   OH251836   6.324   0.390   5.754
 9214TIP3    H151837   6.281   0.355   5.997
 9214TIP3    H251838   6.247   0.421   5.604
 9215TIP3   OH251839   5.715   0.399   7.911
 9215TIP3    H151840   5.803   0.385   8.010
 9215TIP3    H251841   5.730   0.389   7.623
 9216TIP3   OH251842   5.783   0.445   6.501
 9216TIP3    H151843   5.838   0.491   6.297
 9216TIP3    H251844   5.729   0.521   6.585
 9217TIP3   OH251845   6.009   0.563   7.590
 9217TIP3    H151846   5.926   0.607   7.500
 9217TIP3    H251847   6.012   0.482   7.425
 9218TIP3   OH251848   6.346   0.598   6.849
 9218TIP3    H151849   6.432   0.592   6.720
 9218TIP3    H251850   6.292   0.648   6.657
 9219TIP3   OH251851   6.218   0.708   6.111
 9219TIP3    H151852   6.179   0.654   5.901
 9219TIP3    H251853   6.301   0.735   5.976
 9220TIP3   OH251854   6.605   0.616   8.472
 9220TIP3    H151855   6.697   0.620   8.367
 9220TIP3    H251856   6.609   0.664   8.724
 9221TIP3   OH251857   6.102   0.299   7.377
 9221TIP3    H151858   6.024   0.253   7.494
 9221TIP3    H251859   6.155   0.222   7.293
 9222TIP3   OH251860   6.553   1.153   6.783
 9222TIP3    H151861   6.484   1.090   6.687
 9222TIP3    H251862   6.518   1.175   7.053
 9223TIP3   OH251863   6.887   0.393   6.276
 9223TIP3    H151864   6.790   0.387   6.210
 9223TIP3    H251865   6.904   0.489   6.282
 9224TIP3   OH251866   6.998   0.615   6.597
 9224TIP3    H151867   7.093   0.625   6.657
 9224TIP3    H251868   6.989   0.692   6.420
 9225TIP3   OH251869   6.764   1.271   6.486
 9225TIP3    H151870   6.724   1.361   6.531
 9225TIP3    H251871   6.687   1.214   6.543
 9226TIP3   OH251872   7.599   0.617   6.486
 9226TIP3    H151873   7.510   0.595   6.393
 9226TIP3    H251874   7.582   0.712   6.492
 9227TIP3   OH251875   7.313   1.500   6.732
 9227TIP3    H151876   7.259   1.422   6.774
 9227TIP3    H251877   7.359   1.484   6.477
 9228TIP3   OH251878   6.272   1.418   7.707
 9228TIP3    H151879   6.318   1.495   7.590
 9228TIP3    H251880   6.211   1.393   7.497
 9229TIP3   OH251881   5.929   0.941   6.075
 9229TIP3    H151882   5.971   0.988   6.300
 9229TIP3    H251883   5.833   0.942   6.126
 9230TIP3   OH251884   6.431   1.180   7.512
 9230TIP3    H151885   6.372   1.255   7.569
 9230TIP3    H251886   6.407   1.119   7.728
 9231TIP3   OH251887   6.337   1.666   7.353
 9231TIP3    H151888   6.239   1.672   7.374
 9231TIP3    H251889   6.366   1.747   7.497
 9232TIP3   OH251890   7.100   1.322   6.147
 9232TIP3    H151891   7.103   1.271   6.399
 9232TIP3    H251892   7.015   1.291   6.039
 9233TIP3   OH251893   7.517   1.752   6.183
 9233TIP3    H151894   7.567   1.811   6.009
 9233TIP3    H251895   7.430   1.796   6.174
 9234TIP3   OH251896   7.151   1.189   6.843
 9234TIP3    H151897   7.126   1.097   6.786
 9234TIP3    H251898   7.249   1.180   6.864
 9235TIP3   OH251899   6.488   1.437   5.661
 9235TIP3    H151900   6.464   1.388   5.421
 9235TIP3    H251901   6.425   1.401   5.856
 9236TIP3   OH251902   6.361   1.344   6.381
 9236TIP3    H151903   6.436   1.297   6.507
 9236TIP3    H251904   6.373   1.435   6.486
 9237TIP3   OH251905   6.033   1.112   6.612
 9237TIP3    H151906   5.944   1.143   6.702
 9237TIP3    H251907   6.056   1.182   6.420
 9238TIP3   OH251908   6.877   0.333   7.047
 9238TIP3    H151909   6.885   0.385   6.798
 9238TIP3    H251910   6.920   0.393   7.245
 9239TIP3   OH251911   6.667   1.523   6.573
 9239TIP3    H151912   6.577   1.555   6.633
 9239TIP3    H251913   6.712   1.607   6.513
 9240TIP3   OH251914   6.599   0.492   7.335
 9240TIP3    H151915   6.675   0.553   7.299
 9240TIP3    H251916   6.532   0.552   7.437
 9241TIP3   OH251917   6.678   0.213   7.476
 9241TIP3    H151918   6.650   0.306   7.449
 9241TIP3    H251919   6.771   0.225   7.395
 9242TIP3   OH251920   6.397   1.596   6.594
 9242TIP3    H151921   6.394   1.678   6.426
 9242TIP3    H251922   6.386   1.635   6.864
 9243TIP3   OH251923   6.221   0.324   6.465
 9243TIP3    H151924   6.200   0.396   6.651
 9243TIP3    H251925   6.312   0.305   6.561
 9244TIP3   OH251926   7.122   0.792   8.316
 9244TIP3    H151927   7.029   0.777   8.388
 9244TIP3    H251928   7.165   0.714   8.442
 9245TIP3   OH251929   6.073   1.351   6.132
 9245TIP3    H151930   6.145   1.375   6.315
 9245TIP3    H251931   6.125   1.311   5.919
 9246TIP3   OH251932   5.877   0.650   6.009
 9246TIP3    H151933   5.913   0.738   6.084
 9246TIP3    H251934   5.828   0.672   5.766
 9247TIP3   OH251935   6.012   0.023   8.529
 9247TIP3    H151936   5.993   0.111   8.418
 9247TIP3    H251937   5.976  -0.036   8.322
 9248TIP3   OH251938   5.839   1.457   7.179
 9248TIP3    H151939   5.787   1.526   7.311
 9248TIP3    H251940   5.927   1.495   7.185
 9249TIP3   OH251941   6.685   1.641   5.652
 9249TIP3    H151942   6.638   1.555   5.673
 9249TIP3    H251943   6.767   1.611   5.514
 9250TIP3   OH251944   7.137   1.561   5.697
 9250TIP3    H151945   7.167   1.499   5.904
 9250TIP3    H251946   7.217   1.571   5.532
 9251TIP3   OH251947   6.225   1.154   5.634
 9251TIP3    H151948   6.254   1.127   5.901
 9251TIP3    H251949   6.310   1.145   5.487
 9252TIP3   OH251950   6.783   1.306   5.559
 9252TIP3    H151951   6.752   1.289   5.832
 9252TIP3    H251952   6.781   1.213   5.457
 9253TIP3   OH251953   6.357   0.984   6.435
 9253TIP3    H151954   6.286   0.937   6.579
 9253TIP3    H251955   6.394   0.912   6.276
 9254TIP3   OH251956   6.478   0.792   5.826
 9254TIP3    H151957   6.454   0.815   5.550
 9254TIP3    H251958   6.571   0.826   5.832
 9255TIP3   OH251959   7.383   1.015   5.718
 9255TIP3    H151960   7.349   0.987   5.454
 9255TIP3    H251961   7.367   1.113   5.712
 9256TIP3   OH251962   6.428   1.833   6.240
 9256TIP3    H151963   6.520   1.829   6.324
 9256TIP3    H251964   6.436   1.900   6.027
 9257TIP3   OH251965   5.794   1.313   5.988
 9257TIP3    H151966   5.892   1.318   6.009
 9257TIP3    H251967   5.780   1.250   5.763
 9258TIP3   OH251968   7.408   1.121   6.870
 9258TIP3    H151969   7.504   1.126   6.837
 9258TIP3    H251970   7.403   1.072   7.125
 9259TIP3   OH251971   7.468   0.970   7.518
 9259TIP3    H151972   7.387   0.913   7.518
 9259TIP3    H251973   7.529   0.904   7.623
 9260TIP3   OH251974   7.546   0.914   6.312
 9260TIP3    H151975   7.484   0.932   6.090
 9260TIP3    H251976   7.498   0.951   6.540
 9261TIP3   OH251977   7.407   0.633   5.724
 9261TIP3    H151978   7.348   0.687   5.889
 9261TIP3    H251979   7.345   0.574   5.592
 9262TIP3   OH251980   7.269   0.801   7.689
 9262TIP3    H151981   7.238   0.719   7.554
 9262TIP3    H251982   7.216   0.795   7.935
 9263TIP3   OH251983   5.768   0.842   8.967
 9263TIP3    H151984   5.749   0.831   8.685
 9263TIP3    H251985   5.865   0.824   8.991
 9264TIP3   OH251986   7.266   0.382   5.571
 9264TIP3    H151987   7.283   0.374   5.853
 9264TIP3    H251988   7.169   0.367   5.565
 9265TIP3   OH251989   7.209   0.548   7.320
 9265TIP3    H151990   7.228   0.455   7.242
 9265TIP3    H251991   7.249   0.595   7.089
 9266TIP3   OH251992   7.260   0.593   8.664
 9266TIP3    H151993   7.350   0.624   8.730
 9266TIP3    H251994   7.242   0.534   8.886
 9267TIP3   OH251995   7.261   0.284   7.122
 9267TIP3    H151996   7.311   0.251   7.356
 9267TIP3    H251997   7.272   0.211   6.924
 9268TIP3   OH251998   7.481   0.288   6.150
 9268TIP3    H151999   7.535   0.236   5.967
 9268TIP3    H252000   7.492   0.377   6.039
 9269TIP3   OH252001   5.739   0.280   7.131
 9269TIP3    H152002   5.643   0.268   7.092
 9269TIP3    H252003   5.762   0.329   6.888
 9270TIP3   OH252004   7.176   1.737   7.668
 9270TIP3    H152005   7.245   1.730   7.458
 9270TIP3    H252006   7.190   1.827   7.764
 9271TIP3   OH252007   7.206   0.162   8.301
 9271TIP3    H152008   7.279   0.148   8.109
 9271TIP3    H252009   7.130   0.120   8.166
 9272TIP3   OH252010   7.401   0.174   7.770
 9272TIP3    H152011   7.456   0.095   7.713
 9272TIP3    H252012   7.470   0.244   7.794
 9273TIP3   OH252013   5.938   0.125   7.704
 9273TIP3    H152014   5.859   0.113   7.536
 9273TIP3    H252015   5.961   0.032   7.773
 9274TIP3   OH252016   5.863   0.112   6.558
 9274TIP3    H152017   5.888   0.156   6.306
 9274TIP3    H252018   5.777   0.150   6.621
 9275TIP3   OH252019   6.419   0.114   7.716
 9275TIP3    H152020   6.507   0.151   7.767
 9275TIP3    H252021   6.405   0.061   7.959
 9276TIP3   OH252022   6.962   0.062   8.082
 9276TIP3    H152023   6.909   0.049   7.845
 9276TIP3    H252024   6.970  -0.030   8.172
 9277TIP3   OH252025   7.053   0.152   6.636
 9277TIP3    H152026   7.011   0.238   6.693
 9277TIP3    H252027   7.084   0.126   6.903
 9278TIP3   OH252028   5.969   0.247   5.952
 9278TIP3    H152029   6.027   0.191   5.784
 9278TIP3    H252030   6.030   0.272   6.168
 9279TIP3   OH252031   6.492   0.281   6.852
 9279TIP3    H152032   6.526   0.237   7.092
 9279TIP3    H252033   6.540   0.365   6.873
 9280TIP3   OH252034   6.728   1.790   6.291
 9280TIP3    H152035   6.822   1.797   6.201
 9280TIP3    H252036   6.695   1.741   6.054
 9281TIP3   OH252037   7.360   1.737   7.053
 9281TIP3    H152038   7.349   1.649   6.924
 9281TIP3    H252039   7.376   1.792   6.816
 9282TIP3   OH252040   7.576   0.695   7.443
 9282TIP3    H152041   7.563   0.748   7.203
 9282TIP3    H252042   7.498   0.638   7.419
 9283TIP3   OH252043   7.566   0.390   7.911
 9283TIP3    H152044   7.661   0.391   7.980
 9283TIP3    H252045   7.575   0.375   7.620
 9284TIP3   OH252046   7.491   1.859   7.647
 9284TIP3    H152047   7.452   1.819   7.404
 9284TIP3    H252048   7.494   1.779   7.821
 9285TIP3   OH252049   7.564   1.645   8.076
 9285TIP3    H152050   7.575   1.551   8.025
 9285TIP3    H252051   7.657   1.672   8.055
 9286TIP3   OH252052   7.520   0.701   8.766
 9286TIP3    H152053   7.568   0.633   8.616
 9286TIP3    H252054   7.566   0.701   9.024
 9287TIP3   OH252055   7.542   0.296   7.152
 9287TIP3    H152056   7.453   0.290   7.044
 9287TIP3    H252057   7.593   0.305   6.909
 9288TIP3   OH252058   1.169   2.893   7.740
 9288TIP3    H152059   1.205   2.981   7.788
 9288TIP3    H252060   1.147   2.901   7.452
 9289TIP3   OH252061   1.104   2.766   8.700
 9289TIP3    H152062   1.103   2.767   8.991
 9289TIP3    H252063   1.201   2.763   8.661
 9290TIP3   OH252064   1.457   3.027   8.238
 9290TIP3    H152065   1.427   2.981   8.481
 9290TIP3    H252066   1.441   3.117   8.322
 9291TIP3   OH252067   0.138   2.497   7.068
 9291TIP3    H152068   0.189   2.576   7.137
 9291TIP3    H252069   0.054   2.508   7.215
 9292TIP3   OH252070   0.161   2.825   8.151
 9292TIP3    H152071   0.187   2.736   8.250
 9292TIP3    H252072   0.215   2.831   7.911
 9293TIP3   OH252073   1.153   3.578   8.277
 9293TIP3    H152074   1.242   3.547   8.190
 9293TIP3    H252075   1.169   3.625   8.526
 9294TIP3   OH252076   0.909   3.049   8.832
 9294TIP3    H152077   0.917   2.966   8.685
 9294TIP3    H252078   0.988   3.039   9.003
 9295TIP3   OH252079   1.296   2.307   7.635
 9295TIP3    H152080   1.363   2.246   7.731
 9295TIP3    H252081   1.334   2.393   7.716
 9296TIP3   OH252082   0.286   2.580   8.223
 9296TIP3    H152083   0.220   2.542   8.412
 9296TIP3    H252084   0.310   2.508   8.037
 9297TIP3   OH252085   0.767   2.703   8.145
 9297TIP3    H152086   0.759   2.631   8.346
 9297TIP3    H252087   0.714   2.660   7.932
 9298TIP3   OH252088   1.149   3.145   7.305
 9298TIP3    H152089   1.129   3.144   7.020
 9298TIP3    H252090   1.118   3.236   7.371
 9299TIP3   OH252091   0.105   3.124   6.831
 9299TIP3    H152092   0.110   3.176   6.579
 9299TIP3    H252093   0.136   3.187   7.032
 9300TIP3   OH252094   0.819   1.949   8.505
 9300TIP3    H152095   0.785   1.858   8.484
 9300TIP3    H252096   0.737   1.996   8.589
 9301TIP3   OH252097   1.351   3.462   7.851
 9301TIP3    H152098   1.371   3.377   7.716
 9301TIP3    H252099   1.433   3.512   7.797
 9302TIP3   OH252100   1.467   3.257   7.485
 9302TIP3    H152101   1.413   3.219   7.269
 9302TIP3    H252102   1.466   3.183   7.674
 9303TIP3   OH252103   1.084   2.848   6.954
 9303TIP3    H152104   1.031   2.930   6.930
 9303TIP3    H252105   1.149   2.858   6.738
 9304TIP3   OH252106   1.082   2.711   5.964
 9304TIP3    H152107   1.134   2.755   6.171
 9304TIP3    H252108   1.115   2.620   5.982
 9305TIP3   OH252109   1.435   2.829   7.227
 9305TIP3    H152110   1.379   2.825   7.467
 9305TIP3    H252111   1.518   2.790   7.344
 9306TIP3   OH252112   0.722   3.249   8.529
 9306TIP3    H152113   0.748   3.249   8.250
 9306TIP3    H252114   0.791   3.192   8.646
 9307TIP3   OH252115   1.297   2.789   6.525
 9307TIP3    H152116   1.353   2.804   6.765
 9307TIP3    H252117   1.350   2.833   6.312
 9308TIP3   OH252118   1.068   3.419   7.509
 9308TIP3    H152119   1.080   3.464   7.767
 9308TIP3    H252120   1.047   3.491   7.326
 9309TIP3   OH252121   1.672   1.888   6.606
 9309TIP3    H152122   1.587   1.891   6.759
 9309TIP3    H252123   1.639   1.923   6.357
 9310TIP3   OH252124   0.357   2.804   7.185
 9310TIP3    H152125   0.392   2.881   7.038
 9310TIP3    H252126   0.429   2.739   7.152
 9311TIP3   OH252127   1.802   3.349   6.069
 9311TIP3    H152128   1.827   3.443   6.099
 9311TIP3    H252129   1.890   3.307   6.108
 9312TIP3   OH252130   0.139   3.379   8.889
 9312TIP3    H152131   0.177   3.292   8.826
 9312TIP3    H252132   0.142   3.368   9.186
 9313TIP3   OH252133   1.033   3.688   7.062
 9313TIP3    H152134   1.028   3.705   6.774
 9313TIP3    H252135   1.030   3.780   7.164
 9314TIP3   OH252136   0.421   3.576   7.608
 9314TIP3    H152137   0.403   3.574   7.890
 9314TIP3    H252138   0.336   3.549   7.491
 9315TIP3   OH252139   1.349   3.630   6.126
 9315TIP3    H152140   1.403   3.559   5.994
 9315TIP3    H252141   1.353   3.607   6.411
 9316TIP3   OH252142   1.301   3.634   6.951
 9316TIP3    H152143   1.206   3.655   7.008
 9316TIP3    H252144   1.316   3.563   7.137
 9317TIP3   OH252145   0.577   2.056   8.865
 9317TIP3    H152146   0.487   2.032   8.778
 9317TIP3    H252147   0.553   2.128   9.048
 9318TIP3   OH252148   1.444   2.895   5.964
 9318TIP3    H152149   1.441   2.910   5.676
 9318TIP3    H252150   1.540   2.892   6.009
 9319TIP3   OH252151   1.015   2.222   6.012
 9319TIP3    H152152   0.988   2.194   6.282
 9319TIP3    H252153   0.945   2.176   5.856
 9320TIP3   OH252154   0.608   2.553   7.632
 9320TIP3    H152155   0.515   2.521   7.626
 9320TIP3    H252156   0.649   2.480   7.479
 9321TIP3   OH252157   1.149   2.628   7.356
 9321TIP3    H152158   1.126   2.709   7.200
 9321TIP3    H252159   1.207   2.586   7.161
 9322TIP3   OH252160   0.641   2.293   5.661
 9322TIP3    H152161   0.609   2.241   5.895
 9322TIP3    H252162   0.571   2.358   5.625
 9323TIP3   OH252163   0.117   2.253   7.899
 9323TIP3    H152164   0.211   2.239   7.956
 9323TIP3    H252165   0.115   2.249   7.608
 9324TIP3   OH252166   0.109   2.330   6.477
 9324TIP3    H152167   0.171   2.370   6.288
 9324TIP3    H252168   0.114   2.397   6.699
 9325TIP3   OH252169   0.881   2.287   7.854
 9325TIP3    H152170   0.787   2.263   7.839
 9325TIP3    H252171   0.920   2.229   8.061
 9326TIP3   OH252172   0.354   2.447   7.509
 9326TIP3    H152173   0.268   2.453   7.371
 9326TIP3    H252174   0.365   2.349   7.509
 9327TIP3   OH252175   0.760   2.560   6.738
 9327TIP3    H152176   0.783   2.475   6.867
 9327TIP3    H252177   0.664   2.552   6.735
 9328TIP3   OH252178   1.318   2.205   8.856
 9328TIP3    H152179   1.234   2.180   8.967
 9328TIP3    H252180   1.328   2.141   8.637
 9329TIP3   OH252181   0.549   2.607   6.096
 9329TIP3    H152182   0.521   2.522   5.994
 9329TIP3    H252183   0.645   2.606   6.048
 9330TIP3   OH252184   0.403   2.186   7.590
 9330TIP3    H152185   0.421   2.093   7.644
 9330TIP3    H252186   0.489   2.211   7.458
 9331TIP3   OH252187   0.890   3.032   6.840
 9331TIP3    H152188   0.819   2.986   6.693
 9331TIP3    H252189   0.843   3.055   7.092
 9332TIP3   OH252190   1.255   2.295   6.216
 9332TIP3    H152191   1.167   2.279   6.087
 9332TIP3    H252192   1.241   2.383   6.336
 9333TIP3   OH252193   1.310   2.526   6.657
 9333TIP3    H152194   1.399   2.524   6.771
 9333TIP3    H252195   1.319   2.596   6.453
 9334TIP3   OH252196   1.068   3.166   6.387
 9334TIP3    H152197   1.050   3.256   6.486
 9334TIP3    H252198   1.008   3.111   6.552
 9335TIP3   OH252199   1.609   3.403   6.678
 9335TIP3    H152200   1.581   3.339   6.879
 9335TIP3    H252201   1.672   3.350   6.519
 9336TIP3   OH252202   0.618   3.314   7.719
 9336TIP3    H152203   0.655   3.399   7.629
 9336TIP3    H252204   0.552   3.301   7.512
 9337TIP3   OH252205   0.256   2.789   6.123
 9337TIP3    H152206   0.329   2.839   6.255
 9337TIP3    H252207   0.181   2.805   6.300
 9338TIP3   OH252208   0.778   3.096   7.545
 9338TIP3    H152209   0.716   3.167   7.620
 9338TIP3    H252210   0.764   3.026   7.740
 9339TIP3   OH252211   0.666   3.557   7.284
 9339TIP3    H152212   0.570   3.571   7.341
 9339TIP3    H252213   0.701   3.627   7.452
 9340TIP3   OH252214   1.428   3.221   6.045
 9340TIP3    H152215   1.462   3.177   6.288
 9340TIP3    H252216   1.342   3.177   6.021
 9341TIP3   OH252217   1.855   3.619   6.210
 9341TIP3    H152218   1.915   3.687   6.111
 9341TIP3    H252219   1.778   3.674   6.285
 9342TIP3   OH252220   1.489   3.074   6.765
 9342TIP3    H152221   1.465   2.998   6.933
 9342TIP3    H252222   1.587   3.071   6.765
 9343TIP3   OH252223   0.827   3.327   5.670
 9343TIP3    H152224   0.816   3.275   5.427
 9343TIP3    H252225   0.768   3.279   5.850
 9344TIP3   OH252226   0.682   3.243   6.417
 9344TIP3    H152227   0.767   3.225   6.552
 9344TIP3    H252228   0.686   3.341   6.450
 9345TIP3   OH252229   0.371   3.013   6.564
 9345TIP3    H152230   0.280   3.034   6.657
 9345TIP3    H252231   0.392   3.090   6.393
 9346TIP3   OH252232   1.202   2.147   7.002
 9346TIP3    H152233   1.212   2.216   6.798
 9346TIP3    H252234   1.232   2.194   7.239
 9347TIP3   OH252235   1.001   3.430   6.594
 9347TIP3    H152236   0.909   3.463   6.594
 9347TIP3    H252237   1.049   3.509   6.504
 9348TIP3   OH252238   0.978   2.371   7.149
 9348TIP3    H152239   1.027   2.446   7.263
 9348TIP3    H252240   0.920   2.347   7.377
 9349TIP3   OH252241   0.968   2.079   7.425
 9349TIP3    H152242   0.935   2.166   7.512
 9349TIP3    H252243   1.047   2.105   7.272
 9350TIP3   OH252244   0.735   3.500   6.504
 9350TIP3    H152245   0.732   3.585   6.357
 9350TIP3    H252246   0.718   3.538   6.774
 9351TIP3   OH252247   0.571   2.174   6.363
 9351TIP3    H152248   0.574   2.238   6.585
 9351TIP3    H252249   0.660   2.135   6.411
 9352TIP3   OH252250   0.431   3.235   6.108
 9352TIP3    H152251   0.520   3.244   6.234
 9352TIP3    H252252   0.452   3.165   5.910
 9353TIP3   OH252253   0.249   2.501   5.964
 9353TIP3    H152254   0.284   2.586   6.054
 9353TIP3    H252255   0.181   2.525   5.769
 9354TIP3   OH252256   1.626   3.538   9.000
 9354TIP3    H152257   1.627   3.572   8.727
 9354TIP3    H252258   1.641   3.623   9.144
 9355TIP3   OH252259   0.314   2.000   8.676
 9355TIP3    H152260   0.301   2.007   8.385
 9355TIP3    H252261   0.311   1.902   8.694
 9356TIP3   OH252262   0.231   3.382   7.416
 9356TIP3    H152263   0.137   3.396   7.365
 9356TIP3    H252264   0.266   3.422   7.170
 9357TIP3   OH252265   1.034   3.523   5.658
 9357TIP3    H152266   0.978   3.443   5.694
 9357TIP3    H252267   1.113   3.484   5.523
 9358TIP3   OH252268   1.485   3.455   5.655
 9358TIP3    H152269   1.487   3.386   5.862
 9358TIP3    H252270   1.570   3.441   5.517
 9359TIP3   OH252271   0.562   3.039   5.694
 9359TIP3    H152272   0.580   2.995   5.949
 9359TIP3    H252273   0.651   3.037   5.571
 9360TIP3   OH252274   1.141   3.186   5.577
 9360TIP3    H152275   1.096   3.175   5.838
 9360TIP3    H252276   1.133   3.092   5.487
 9361TIP3   OH252277   0.701   2.866   6.426
 9361TIP3    H152278   0.683   2.802   6.636
 9361TIP3    H252279   0.739   2.803   6.228
 9362TIP3   OH252280   0.811   2.700   5.877
 9362TIP3    H152281   0.821   2.745   5.625
 9362TIP3    H252282   0.903   2.695   5.970
 9363TIP3   OH252283   1.734   2.909   5.685
 9363TIP3    H152284   1.714   2.884   5.406
 9363TIP3    H252285   1.732   3.008   5.661
 9364TIP3   OH252286   0.786   3.753   6.297
 9364TIP3    H152287   0.881   3.765   6.345
 9364TIP3    H252288   0.783   3.789   6.024
 9365TIP3   OH252289   0.164   3.250   6.132
 9365TIP3    H152290   0.262   3.258   6.123
 9365TIP3    H252291   0.150   3.194   5.895
 9366TIP3   OH252292   0.099   3.747   7.470
 9366TIP3    H152293   0.003   3.764   7.458
 9366TIP3    H252294   0.108   3.701   7.725
 9367TIP3   OH252295   0.156   3.571   8.127
 9367TIP3    H152296   0.163   3.476   8.085
 9367TIP3    H252297   0.062   3.576   8.220
 9368TIP3   OH252298   1.771   3.027   6.741
 9368TIP3    H152299   1.852   3.076   6.810
 9368TIP3    H252300   1.771   2.956   6.939
 9369TIP3   OH252301   1.858   2.803   6.315
 9369TIP3    H152302   1.804   2.822   6.072
 9369TIP3    H252303   1.847   2.888   6.450
 9370TIP3   OH252304   0.096   2.150   7.044
 9370TIP3    H152305  -0.002   2.147   7.026
 9370TIP3    H252306   0.113   2.196   6.789
 9371TIP3   OH252307   1.557   3.636   7.761
 9371TIP3    H152308   1.601   3.626   7.500
 9371TIP3    H252309   1.592   3.721   7.857
 9372TIP3   OH252310   0.525   3.504   8.505
 9372TIP3    H152311   0.470   3.446   8.346
 9372TIP3    H252312   0.609   3.454   8.496
 9373TIP3   OH252313   1.040   2.144   8.370
 9373TIP3    H152314   0.984   2.084   8.526
 9373TIP3    H252315   1.071   2.084   8.160
 9374TIP3   OH252316   1.746   2.066   7.671
 9374TIP3    H152317   1.812   1.997   7.608
 9374TIP3    H252318   1.808   2.136   7.764
 9375TIP3   OH252319   0.276   1.941   7.893
 9375TIP3    H152320   0.231   1.966   7.644
 9375TIP3    H252321   0.334   1.870   7.809
 9376TIP3   OH252322   0.230   1.936   6.498
 9376TIP3    H152323   0.257   1.998   6.285
 9376TIP3    H252324   0.191   1.999   6.693
 9377TIP3   OH252325   0.734   1.987   7.710
 9377TIP3    H152326   0.799   2.031   7.530
 9377TIP3    H252327   0.792   1.972   7.938
 9378TIP3   OH252328   1.436   1.947   6.906
 9378TIP3    H152329   1.369   2.010   6.996
 9378TIP3    H252330   1.445   1.887   7.146
 9379TIP3   OH252331   0.198   3.587   6.774
 9379TIP3    H152332   0.103   3.582   6.723
 9379TIP3    H252333   0.206   3.684   6.753
 9380TIP3   OH252334   0.329   2.124   6.000
 9380TIP3    H152335   0.407   2.086   5.865
 9380TIP3    H252336   0.374   2.166   6.225
 9381TIP3   OH252337   0.877   2.151   6.639
 9381TIP3    H152338   0.891   2.102   6.888
 9381TIP3    H252339   0.848   2.238   6.750
 9382TIP3   OH252340   1.075   3.694   6.276
 9382TIP3    H152341   1.170   3.692   6.213
 9382TIP3    H252342   1.045   3.641   6.045
 9383TIP3   OH252343   1.721   3.599   7.092
 9383TIP3    H152344   1.682   3.528   6.927
 9383TIP3    H252345   1.722   3.674   6.900
 9384TIP3   OH252346   0.322   3.630   5.841
 9384TIP3    H152347   0.308   3.676   6.096
 9384TIP3    H252348   0.388   3.564   5.922
 9385TIP3   OH252349   3.103   2.896   7.593
 9385TIP3    H152350   3.081   2.989   7.518
 9385TIP3    H252351   3.016   2.855   7.602
 9386TIP3   OH252352   1.985   2.570   7.413
 9386TIP3    H152353   1.968   2.664   7.419
 9386TIP3    H252354   1.921   2.542   7.626
 9387TIP3   OH252355   3.056   3.680   8.325
 9387TIP3    H152356   3.107   3.620   8.151
 9387TIP3    H252357   3.055   3.632   8.571
 9388TIP3   OH252358   3.202   2.317   7.683
 9388TIP3    H152359   3.274   2.275   7.824
 9388TIP3    H252360   3.252   2.388   7.545
 9389TIP3   OH252361   2.099   2.545   8.313
 9389TIP3    H152362   2.152   2.493   8.499
 9389TIP3    H252363   2.141   2.519   8.061
 9390TIP3   OH252364   2.568   2.683   8.169
 9390TIP3    H152365   2.656   2.643   8.166
 9390TIP3    H252366   2.520   2.622   7.983
 9391TIP3   OH252367   3.034   3.135   7.299
 9391TIP3    H152368   3.002   3.126   7.023
 9391TIP3    H252369   3.006   3.228   7.359
 9392TIP3   OH252370   2.028   3.114   6.882
 9392TIP3    H152371   2.029   3.167   6.630
 9392TIP3    H252372   2.052   3.184   7.077
 9393TIP3   OH252373   3.185   3.482   7.884
 9393TIP3    H152374   3.220   3.403   7.749
 9393TIP3    H252375   3.245   3.550   7.782
 9394TIP3   OH252376   3.325   3.232   7.449
 9394TIP3    H152377   3.300   3.195   7.188
 9394TIP3    H252378   3.373   3.155   7.551
 9395TIP3   OH252379   2.959   2.803   6.858
 9395TIP3    H152380   2.910   2.887   6.855
 9395TIP3    H252381   3.050   2.830   6.777
 9396TIP3   OH252382   2.951   2.698   5.964
 9396TIP3    H152383   2.983   2.735   6.216
 9396TIP3    H252384   3.003   2.615   5.958
 9397TIP3   OH252385   3.346   2.827   7.266
 9397TIP3    H152386   3.263   2.835   7.425
 9397TIP3    H252387   3.407   2.779   7.446
 9398TIP3   OH252388   2.454   2.902   7.782
 9398TIP3    H152389   2.408   2.842   7.599
 9398TIP3    H252390   2.479   2.842   8.001
 9399TIP3   OH252391   2.633   3.260   8.616
 9399TIP3    H152392   2.622   3.197   8.400
 9399TIP3    H252393   2.662   3.200   8.829
 9400TIP3   OH252394   2.470   2.819   8.799
 9400TIP3    H152395   2.498   2.754   8.598
 9400TIP3    H252396   2.554   2.843   8.922
 9401TIP3   OH252397   3.209   2.782   6.540
 9401TIP3    H152398   3.271   2.772   6.762
 9401TIP3    H252399   3.270   2.820   6.336
 9402TIP3   OH252400   2.954   3.390   7.455
 9402TIP3    H152401   3.003   3.451   7.629
 9402TIP3    H252402   2.886   3.447   7.344
 9403TIP3   OH252403   2.295   2.773   7.086
 9403TIP3    H152404   2.293   2.855   6.933
 9403TIP3    H252405   2.319   2.707   6.885
 9404TIP3   OH252406   3.686   3.336   6.045
 9404TIP3    H152407   3.726   3.424   6.066
 9404TIP3    H252408   3.766   3.279   6.057
 9405TIP3   OH252409   2.894   3.705   7.089
 9405TIP3    H152410   2.914   3.712   6.804
 9405TIP3    H252411   2.905   3.799   7.179
 9406TIP3   OH252412   2.287   3.597   7.578
 9406TIP3    H152413   2.305   3.570   7.854
 9406TIP3    H252414   2.195   3.569   7.539
 9407TIP3   OH252415   3.367   2.895   5.985
 9407TIP3    H152416   3.345   2.896   5.700
 9407TIP3    H252417   3.464   2.896   5.973
 9408TIP3   OH252418   2.898   2.244   5.919
 9408TIP3    H152419   2.894   2.222   6.201
 9408TIP3    H252420   2.829   2.179   5.829
 9409TIP3   OH252421   2.462   2.503   7.677
 9409TIP3    H152422   2.380   2.450   7.671
 9409TIP3    H252423   2.507   2.477   7.431
 9410TIP3   OH252424   3.032   2.596   7.317
 9410TIP3    H152425   3.003   2.680   7.188
 9410TIP3    H252426   3.089   2.566   7.092
 9411TIP3   OH252427   3.098   2.553   8.139
 9411TIP3    H152428   3.066   2.605   7.911
 9411TIP3    H252429   3.122   2.470   8.007
 9412TIP3   OH252430   2.543   2.267   5.703
 9412TIP3    H152431   2.498   2.232   5.943
 9412TIP3    H252432   2.494   2.348   5.646
 9413TIP3   OH252433   1.935   2.251   7.866
 9413TIP3    H152434   1.906   2.339   7.956
 9413TIP3    H252435   2.023   2.247   7.989
 9414TIP3   OH252436   2.758   2.314   7.992
 9414TIP3    H152437   2.689   2.259   7.875
 9414TIP3    H252438   2.818   2.250   8.121
 9415TIP3   OH252439   2.181   2.409   7.650
 9415TIP3    H152440   2.124   2.464   7.473
 9415TIP3    H252441   2.206   2.331   7.485
 9416TIP3   OH252442   2.545   2.456   6.888
 9416TIP3    H152443   2.638   2.454   6.813
 9416TIP3    H252444   2.508   2.525   6.714
 9417TIP3   OH252445   2.452   2.587   6.144
 9417TIP3    H152446   2.415   2.547   5.901
 9417TIP3    H252447   2.538   2.616   6.027
 9418TIP3   OH252448   2.310   2.181   7.398
 9418TIP3    H152449   2.260   2.113   7.548
 9418TIP3    H252450   2.376   2.127   7.266
 9419TIP3   OH252451   2.796   3.021   6.840
 9419TIP3    H152452   2.722   2.978   6.702
 9419TIP3    H252453   2.751   3.049   7.089
 9420TIP3   OH252454   3.158   2.292   6.159
 9420TIP3    H152455   3.069   2.332   6.156
 9420TIP3    H252456   3.211   2.369   6.246
 9421TIP3   OH252457   3.156   2.513   6.660
 9421TIP3    H152458   3.244   2.480   6.738
 9421TIP3    H252459   3.187   2.581   6.471
 9422TIP3   OH252460   2.977   3.169   6.387
 9422TIP3    H152461   2.939   3.254   6.480
 9422TIP3    H252462   2.915   3.107   6.516
 9423TIP3   OH252463   3.726   2.481   6.654
 9423TIP3    H152464   3.649   2.481   6.477
 9423TIP3    H252465   3.741   2.576   6.690
 9424TIP3   OH252466   3.530   3.409   6.675
 9424TIP3    H152467   3.488   3.338   6.828
 9424TIP3    H252468   3.586   3.360   6.483
 9425TIP3   OH252469   3.275   2.830   8.796
 9425TIP3    H152470   3.220   2.783   8.994
 9425TIP3    H252471   3.290   2.758   8.607
 9426TIP3   OH252472   2.515   3.304   7.764
 9426TIP3    H152473   2.572   3.383   7.755
 9426TIP3    H252474   2.457   3.318   7.536
 9427TIP3   OH252475   2.123   2.810   6.132
 9427TIP3    H152476   2.165   2.879   6.297
 9427TIP3    H252477   2.028   2.815   6.201
 9428TIP3   OH252478   2.656   3.078   7.500
 9428TIP3    H152479   2.610   3.156   7.608
 9428TIP3    H252480   2.611   3.007   7.647
 9429TIP3   OH252481   2.550   3.557   7.356
 9429TIP3    H152482   2.455   3.573   7.392
 9429TIP3    H252483   2.584   3.636   7.500
 9430TIP3   OH252484   3.316   3.200   6.147
 9430TIP3    H152485   3.330   3.150   6.399
 9430TIP3    H252486   3.225   3.172   6.093
 9431TIP3   OH252487   3.743   3.620   6.153
 9431TIP3    H152488   3.819   3.680   6.141
 9431TIP3    H252489   3.673   3.679   6.057
 9432TIP3   OH252490   3.388   3.049   6.813
 9432TIP3    H152491   3.370   2.962   6.936
 9432TIP3    H252492   3.486   3.046   6.798
 9433TIP3   OH252493   2.704   3.342   5.676
 9433TIP3    H152494   2.698   3.289   5.433
 9433TIP3    H252495   2.651   3.286   5.856
 9434TIP3   OH252496   2.583   3.245   6.402
 9434TIP3    H152497   2.651   3.211   6.582
 9434TIP3    H252498   2.596   3.342   6.456
 9435TIP3   OH252499   2.253   2.994   6.579
 9435TIP3    H152500   2.173   3.025   6.723
 9435TIP3    H252501   2.287   3.076   6.459
 9436TIP3   OH252502   3.092   2.209   6.939
 9436TIP3    H152503   3.140   2.231   6.690
 9436TIP3    H252504   3.136   2.263   7.140
 9437TIP3   OH252505   2.867   3.409   6.591
 9437TIP3    H152506   2.784   3.459   6.636
 9437TIP3    H252507   2.929   3.479   6.531
 9438TIP3   OH252508   2.838   2.372   7.218
 9438TIP3    H152509   2.901   2.447   7.212
 9438TIP3    H252510   2.809   2.371   7.497
 9439TIP3   OH252511   2.926   2.075   7.410
 9439TIP3    H152512   2.880   2.159   7.383
 9439TIP3    H252513   3.007   2.101   7.263
 9440TIP3   OH252514   2.610   3.503   6.585
 9440TIP3    H152515   2.613   3.587   6.432
 9440TIP3    H252516   2.592   3.538   6.858
 9441TIP3   OH252517   2.478   2.201   6.486
 9441TIP3    H152518   2.477   2.284   6.642
 9441TIP3    H252519   2.570   2.171   6.525
 9442TIP3   OH252520   3.352   2.610   8.334
 9442TIP3    H152521   3.253   2.611   8.331
 9442TIP3    H252522   3.364   2.563   8.586
 9443TIP3   OH252523   2.295   3.237   6.138
 9443TIP3    H152524   2.376   3.271   6.270
 9443TIP3    H252525   2.334   3.195   5.901
 9444TIP3   OH252526   2.100   2.515   5.892
 9444TIP3    H152527   2.154   2.573   6.057
 9444TIP3    H252528   2.052   2.581   5.736
 9445TIP3   OH252529   2.079   3.346   7.293
 9445TIP3    H152530   2.004   3.400   7.374
 9445TIP3    H252531   2.124   3.412   7.125
 9446TIP3   OH252532   2.930   3.520   5.679
 9446TIP3    H152533   2.865   3.448   5.739
 9446TIP3    H252534   2.990   3.473   5.496
 9447TIP3   OH252535   3.382   3.458   5.682
 9447TIP3    H152536   3.388   3.394   5.901
 9447TIP3    H252537   3.459   3.433   5.517
 9448TIP3   OH252538   2.449   3.054   5.631
 9448TIP3    H152539   2.483   3.042   5.904
 9448TIP3    H252540   2.527   3.026   5.475
 9449TIP3   OH252541   3.005   3.181   5.505
 9449TIP3    H152542   2.981   3.166   5.784
 9449TIP3    H252543   3.018   3.087   5.430
 9450TIP3   OH252544   2.592   2.872   6.432
 9450TIP3    H152545   2.517   2.829   6.561
 9450TIP3    H252546   2.619   2.805   6.237
 9451TIP3   OH252547   2.679   2.692   5.769
 9451TIP3    H152548   2.684   2.734   5.505
 9451TIP3    H252549   2.775   2.690   5.835
 9452TIP3   OH252550   3.625   2.916   5.688
 9452TIP3    H152551   3.604   2.875   5.424
 9452TIP3    H252552   3.600   3.010   5.640
 9453TIP3   OH252553   2.682   3.744   6.300
 9453TIP3    H152554   2.777   3.756   6.342
 9453TIP3    H252555   2.666   3.804   6.072
 9454TIP3   OH252556   2.027   3.207   6.087
 9454TIP3    H152557   2.124   3.214   6.081
 9454TIP3    H252558   2.008   3.155   5.844
 9455TIP3   OH252559   1.846   3.757   7.584
 9455TIP3    H152560   1.807   3.684   7.428
 9455TIP3    H252561   1.902   3.712   7.779
 9456TIP3   OH252562   2.001   3.559   8.088
 9456TIP3    H152563   1.930   3.494   8.109
 9456TIP3    H252564   2.022   3.582   8.364
 9457TIP3   OH252565   3.656   3.017   6.882
 9457TIP3    H152566   3.749   3.050   6.888
 9457TIP3    H252567   3.653   2.960   7.122
 9458TIP3   OH252568   3.699   2.829   7.524
 9458TIP3    H152569   3.627   2.769   7.614
 9458TIP3    H252570   3.777   2.798   7.677
 9459TIP3   OH252571   3.768   2.809   6.345
 9459TIP3    H152572   3.715   2.843   6.120
 9459TIP3    H252573   3.722   2.850   6.570
 9460TIP3   OH252574   3.667   2.523   5.688
 9460TIP3    H152575   3.645   2.609   5.799
 9460TIP3    H252576   3.586   2.479   5.784
 9461TIP3   OH252577   3.504   2.658   7.698
 9461TIP3    H152578   3.484   2.575   7.557
 9461TIP3    H252579   3.458   2.640   7.953
 9462TIP3   OH252580   3.511   2.216   5.652
 9462TIP3    H152581   3.495   2.273   5.889
 9462TIP3    H252582   3.423   2.217   5.535
 9463TIP3   OH252583   3.437   2.415   7.299
 9463TIP3    H152584   3.475   2.325   7.311
 9463TIP3    H252585   3.476   2.442   7.041
 9464TIP3   OH252586   3.544   2.136   7.290
 9464TIP3    H152587   3.563   2.066   7.482
 9464TIP3    H252588   3.480   2.090   7.116
 9465TIP3   OH252589   3.746   2.161   6.117
 9465TIP3    H152590   3.736   2.081   5.955
 9465TIP3    H252591   3.687   2.220   5.976
 9466TIP3   OH252592   2.155   3.618   8.796
 9466TIP3    H152593   2.184   3.553   8.997
 9466TIP3    H252594   2.216   3.594   8.574
 9467TIP3   OH252595   2.344   3.510   8.340
 9467TIP3    H152596   2.383   3.423   8.280
 9467TIP3    H252597   2.426   3.555   8.439
 9468TIP3   OH252598   2.591   3.551   8.601
 9468TIP3    H152599   2.606   3.454   8.637
 9468TIP3    H252600   2.596   3.581   8.877
 9469TIP3   OH252601   2.906   2.131   8.412
 9469TIP3    H152602   2.924   2.048   8.553
 9469TIP3    H252603   2.984   2.138   8.241
 9470TIP3   OH252604   2.192   1.965   7.689
 9470TIP3    H152605   2.105   1.940   7.584
 9470TIP3    H252606   2.230   1.877   7.728
 9471TIP3   OH252607   2.074   1.916   6.432
 9471TIP3    H152608   2.103   1.976   6.219
 9471TIP3    H252609   2.011   1.969   6.579
 9472TIP3   OH252610   2.624   1.930   7.719
 9472TIP3    H152611   2.708   1.892   7.629
 9472TIP3    H252612   2.632   1.924   8.004
 9473TIP3   OH252613   3.180   1.959   8.190
 9473TIP3    H152614   3.196   2.015   7.959
 9473TIP3    H252615   3.185   1.869   8.082
 9474TIP3   OH252616   3.352   1.960   6.978
 9474TIP3    H152617   3.314   1.989   6.729
 9474TIP3    H252618   3.300   1.881   7.050
 9475TIP3   OH252619   2.068   3.560   6.774
 9475TIP3    H152620   1.973   3.565   6.717
 9475TIP3    H252621   2.097   3.638   6.624
 9476TIP3   OH252622   2.255   2.178   6.042
 9476TIP3    H152623   2.282   2.099   5.895
 9476TIP3    H252624   2.326   2.184   6.243
 9477TIP3   OH252625   2.764   2.179   6.663
 9477TIP3    H152626   2.804   2.113   6.834
 9477TIP3    H252627   2.775   2.259   6.831
 9478TIP3   OH252628   2.963   3.685   6.309
 9478TIP3    H152629   3.024   3.730   6.132
 9478TIP3    H252630   2.926   3.625   6.102
 9479TIP3   OH252631   2.165   3.629   5.811
 9479TIP3    H152632   2.150   3.676   6.066
 9479TIP3    H252633   2.249   3.584   5.865
 9480TIP3   OH252634   5.010   2.888   7.701
 9480TIP3    H152635   4.984   2.981   7.740
 9480TIP3    H252636   4.951   2.867   7.473
 9481TIP3   OH252637   5.214   3.166   8.277
 9481TIP3    H152638   5.187   3.091   8.439
 9481TIP3    H252639   5.285   3.199   8.460
 9482TIP3   OH252640   4.267   3.221   8.766
 9482TIP3    H152641   4.182   3.187   8.679
 9482TIP3    H252642   4.330   3.183   8.574
 9483TIP3   OH252643   3.934   2.776   8.091
 9483TIP3    H152644   4.020   2.734   8.133
 9483TIP3    H252645   3.961   2.867   8.028
 9484TIP3   OH252646   4.939   3.600   8.319
 9484TIP3    H152647   5.011   3.565   8.151
 9484TIP3    H252648   4.959   3.551   8.568
 9485TIP3   OH252649   5.103   2.349   7.593
 9485TIP3    H152650   5.150   2.302   7.812
 9485TIP3    H252651   5.177   2.385   7.440
 9486TIP3   OH252652   4.437   2.717   8.136
 9486TIP3    H152653   4.515   2.662   8.121
 9486TIP3    H252654   4.370   2.657   8.010
 9487TIP3   OH252655   4.922   3.138   7.410
 9487TIP3    H152656   4.863   3.136   7.182
 9487TIP3    H252657   4.912   3.233   7.479
 9488TIP3   OH252658   5.248   2.271   8.235
 9488TIP3    H152659   5.223   2.185   8.352
 9488TIP3    H252660   5.299   2.310   8.454
 9489TIP3   OH252661   3.921   3.103   6.828
 9489TIP3    H152662   3.913   3.157   6.585
 9489TIP3    H252663   3.939   3.172   7.029
 9490TIP3   OH252664   5.104   3.513   7.761
 9490TIP3    H152665   5.141   3.423   7.713
 9490TIP3    H252666   5.180   3.569   7.683
 9491TIP3   OH252667   5.201   3.266   7.485
 9491TIP3    H152668   5.202   3.185   7.332
 9491TIP3    H252669   5.195   3.226   7.755
 9492TIP3   OH252670   4.865   2.854   7.047
 9492TIP3    H152671   4.812   2.934   6.993
 9492TIP3    H252672   4.926   2.848   6.819
 9493TIP3   OH252673   4.850   2.691   5.985
 9493TIP3    H152674   4.899   2.742   6.186
 9493TIP3    H252675   4.909   2.613   5.955
 9494TIP3   OH252676   5.212   2.795   7.227
 9494TIP3    H152677   5.145   2.830   7.416
 9494TIP3    H252678   5.277   2.754   7.413
 9495TIP3   OH252679   4.269   2.888   7.734
 9495TIP3    H152680   4.325   2.869   7.503
 9495TIP3    H252681   4.319   2.841   7.944
 9496TIP3   OH252682   5.058   2.780   6.528
 9496TIP3    H152683   5.117   2.790   6.762
 9496TIP3    H252684   5.115   2.818   6.312
 9497TIP3   OH252685   4.857   3.398   7.464
 9497TIP3    H152686   4.911   3.436   7.677
 9497TIP3    H252687   4.792   3.467   7.428
 9498TIP3   OH252688   4.268   2.794   6.912
 9498TIP3    H152689   4.217   2.873   6.822
 9498TIP3    H252690   4.210   2.754   7.113
 9499TIP3   OH252691   5.558   3.375   5.922
 9499TIP3    H152692   5.593   3.462   6.003
 9499TIP3    H252693   5.635   3.320   6.003
 9500TIP3   OH252694   4.846   3.726   7.065
 9500TIP3    H152695   4.822   3.725   6.783
 9500TIP3    H252696   4.819   3.817   7.140
 9501TIP3   OH252697   4.168   3.590   7.641
 9501TIP3    H152698   4.193   3.608   7.917
 9501TIP3    H252699   4.076   3.563   7.686
 9502TIP3   OH252700   5.118   3.646   6.111
 9502TIP3    H152701   5.156   3.560   6.033
 9502TIP3    H252702   5.116   3.636   6.405
 9503TIP3   OH252703   5.076   3.603   6.924
 9503TIP3    H152704   4.988   3.638   7.002
 9503TIP3    H252705   5.088   3.535   7.134
 9504TIP3   OH252706   4.369   2.006   8.973
 9504TIP3    H152707   4.332   1.989   8.712
 9504TIP3    H252708   4.381   2.101   8.970
 9505TIP3   OH252709   5.225   2.876   6.000
 9505TIP3    H152710   5.228   2.846   5.721
 9505TIP3    H252711   5.303   2.934   6.009
 9506TIP3   OH252712   4.764   2.254   5.931
 9506TIP3    H152713   4.747   2.249   6.219
 9506TIP3    H252714   4.749   2.161   5.865
 9507TIP3   OH252715   4.911   2.609   7.320
 9507TIP3    H152716   4.887   2.693   7.179
 9507TIP3    H252717   4.975   2.572   7.131
 9508TIP3   OH252718   5.003   2.548   8.127
 9508TIP3    H152719   4.968   2.616   7.947
 9508TIP3    H252720   5.013   2.475   7.935
 9509TIP3   OH252721   3.792   2.228   7.884
 9509TIP3    H152722   3.881   2.243   7.989
 9509TIP3    H252723   3.817   2.203   7.611
 9510TIP3   OH252724   4.685   3.046   6.828
 9510TIP3    H152725   4.621   2.995   6.660
 9510TIP3    H252726   4.628   3.058   7.068
 9511TIP3   OH252727   5.060   2.304   6.207
 9511TIP3    H152728   4.968   2.320   6.120
 9511TIP3    H252729   5.081   2.387   6.351
 9512TIP3   OH252730   5.115   2.517   6.645
 9512TIP3    H152731   5.194   2.500   6.810
 9512TIP3    H252732   5.132   2.605   6.531
 9513TIP3   OH252733   4.863   3.196   6.435
 9513TIP3    H152734   4.834   3.283   6.534
 9513TIP3    H252735   4.799   3.134   6.564
 9514TIP3   OH252736   5.602   2.548   6.585
 9514TIP3    H152737   5.579   2.519   6.315
 9514TIP3    H252738   5.611   2.645   6.534
 9515TIP3   OH252739   5.458   3.350   6.738
 9515TIP3    H152740   5.380   3.302   6.834
 9515TIP3    H252741   5.461   3.325   6.462
 9516TIP3   OH252742   5.136   2.848   8.823
 9516TIP3    H152743   5.094   2.901   8.613
 9516TIP3    H252744   5.174   2.773   8.676
 9517TIP3   OH252745   4.440   3.307   7.701
 9517TIP3    H152746   4.470   3.394   7.608
 9517TIP3    H252747   4.346   3.311   7.647
 9518TIP3   OH252748   4.019   2.830   6.060
 9518TIP3    H152749   4.057   2.895   6.252
 9518TIP3    H252750   3.924   2.830   6.132
 9519TIP3   OH252751   4.532   3.063   7.497
 9519TIP3    H152752   4.502   3.151   7.593
 9519TIP3    H252753   4.544   3.016   7.752
 9520TIP3   OH252754   4.444   3.557   7.365
 9520TIP3    H152755   4.348   3.566   7.404
 9520TIP3    H252756   4.478   3.637   7.503
 9521TIP3   OH252757   5.208   3.209   6.147
 9521TIP3    H152758   5.208   3.179   6.426
 9521TIP3    H252759   5.117   3.184   6.078
 9522TIP3   OH252760   5.625   3.633   6.129
 9522TIP3    H152761   5.646   3.709   5.955
 9522TIP3    H252762   5.553   3.672   6.291
 9523TIP3   OH252763   5.285   3.042   6.828
 9523TIP3    H152764   5.263   2.954   6.933
 9523TIP3    H252765   5.382   3.031   6.795
 9524TIP3   OH252766   4.600   3.324   5.658
 9524TIP3    H152767   4.582   3.266   5.433
 9524TIP3    H252768   4.547   3.279   5.865
 9525TIP3   OH252769   4.467   3.246   6.417
 9525TIP3    H152770   4.534   3.203   6.585
 9525TIP3    H252771   4.483   3.341   6.495
 9526TIP3   OH252772   4.149   2.997   6.549
 9526TIP3    H152773   4.069   3.039   6.669
 9526TIP3    H252774   4.189   3.072   6.408
 9527TIP3   OH252775   4.973   2.187   6.942
 9527TIP3    H152776   5.001   2.223   6.684
 9527TIP3    H252777   5.041   2.224   7.119
 9528TIP3   OH252778   4.768   3.447   6.588
 9528TIP3    H152779   4.680   3.479   6.666
 9528TIP3    H252780   4.812   3.530   6.516
 9529TIP3   OH252781   4.711   2.390   7.179
 9529TIP3    H152782   4.779   2.453   7.275
 9529TIP3    H252783   4.661   2.367   7.419
 9530TIP3   OH252784   4.768   2.074   7.380
 9530TIP3    H152785   4.793   2.111   7.638
 9530TIP3    H252786   4.837   2.111   7.203
 9531TIP3   OH252787   4.497   3.498   6.576
 9531TIP3    H152788   4.512   3.576   6.405
 9531TIP3    H252789   4.464   3.544   6.813
 9532TIP3   OH252790   5.233   2.645   8.367
 9532TIP3    H152791   5.148   2.600   8.310
 9532TIP3    H252792   5.284   2.578   8.520
 9533TIP3   OH252793   4.194   3.229   6.096
 9533TIP3    H152794   4.269   3.267   6.249
 9533TIP3    H252795   4.246   3.174   5.907
 9534TIP3   OH252796   4.024   2.528   5.964
 9534TIP3    H152797   4.045   2.621   6.012
 9534TIP3    H252798   3.930   2.533   5.898
 9535TIP3   OH252799   5.309   3.590   8.961
 9535TIP3    H152800   5.339   3.649   8.748
 9535TIP3    H252801   5.300   3.504   8.829
 9536TIP3   OH252802   3.962   3.334   7.263
 9536TIP3    H152803   3.954   3.396   7.485
 9536TIP3    H252804   3.971   3.400   7.047
 9537TIP3   OH252805   4.808   3.525   5.631
 9537TIP3    H152806   4.757   3.442   5.679
 9537TIP3    H252807   4.887   3.488   5.493
 9538TIP3   OH252808   5.246   3.440   5.688
 9538TIP3    H152809   5.259   3.368   5.886
 9538TIP3    H252810   5.336   3.458   5.592
 9539TIP3   OH252811   4.345   3.045   5.649
 9539TIP3    H152812   4.367   2.998   5.895
 9539TIP3    H252813   4.424   3.021   5.487
 9540TIP3   OH252814   4.918   3.182   5.619
 9540TIP3    H152815   4.880   3.179   5.889
 9540TIP3    H252816   4.911   3.086   5.544
 9541TIP3   OH252817   4.475   2.890   6.417
 9541TIP3    H152818   4.413   2.836   6.579
 9541TIP3    H252819   4.517   2.822   6.246
 9542TIP3   OH252820   4.583   2.711   5.853
 9542TIP3    H152821   4.579   2.719   5.562
 9542TIP3    H252822   4.677   2.688   5.898
 9543TIP3   OH252823   5.500   2.889   5.664
 9543TIP3    H152824   5.484   2.876   5.376
 9543TIP3    H252825   5.498   2.987   5.676
 9544TIP3   OH252826   4.565   3.735   6.306
 9544TIP3    H152827   4.663   3.731   6.291
 9544TIP3    H252828   4.546   3.794   6.081
 9545TIP3   OH252829   3.912   3.198   6.066
 9545TIP3    H152830   4.010   3.208   6.060
 9545TIP3    H252831   3.896   3.145   5.820
 9546TIP3   OH252832   3.889   3.537   8.055
 9546TIP3    H152833   3.818   3.474   8.109
 9546TIP3    H252834   3.903   3.571   8.325
 9547TIP3   OH252835   5.550   2.983   6.834
 9547TIP3    H152836   5.636   3.029   6.855
 9547TIP3    H252837   5.554   2.919   7.059
 9548TIP3   OH252838   5.576   2.798   7.437
 9548TIP3    H152839   5.507   2.736   7.533
 9548TIP3    H252840   5.634   2.801   7.674
 9549TIP3   OH252841   5.648   2.798   6.288
 9549TIP3    H152842   5.584   2.817   6.072
 9549TIP3    H252843   5.631   2.873   6.471
 9550TIP3   OH252844   5.525   2.496   5.790
 9550TIP3    H152845   5.490   2.576   5.661
 9550TIP3    H252846   5.455   2.432   5.703
 9551TIP3   OH252847   5.373   2.630   7.671
 9551TIP3    H152848   5.408   2.541   7.659
 9551TIP3    H252849   5.328   2.633   7.932
 9552TIP3   OH252850   5.352   2.302   5.625
 9552TIP3    H152851   5.408   2.242   5.775
 9552TIP3    H252852   5.269   2.250   5.610
 9553TIP3   OH252853   5.330   2.401   7.119
 9553TIP3    H152854   5.367   2.319   7.227
 9553TIP3    H252855   5.409   2.452   7.041
 9554TIP3   OH252856   5.373   2.452   8.745
 9554TIP3    H152857   5.464   2.426   8.796
 9554TIP3    H252858   5.327   2.413   8.985
 9555TIP3   OH252859   3.822   2.199   7.044
 9555TIP3    H152860   3.738   2.171   7.167
 9555TIP3    H252861   3.787   2.226   6.783
 9556TIP3   OH252862   5.306   3.666   7.590
 9556TIP3    H152863   5.395   3.627   7.548
 9556TIP3    H252864   5.311   3.698   7.869
 9557TIP3   OH252865   4.423   3.541   8.634
 9557TIP3    H152866   4.389   3.453   8.559
 9557TIP3    H252867   4.471   3.518   8.877
 9558TIP3   OH252868   4.840   2.103   8.241
 9558TIP3    H152869   4.794   2.040   8.415
 9558TIP3    H252870   4.918   2.050   8.148
 9559TIP3   OH252871   4.494   1.986   7.590
 9559TIP3    H152872   4.585   1.999   7.503
 9559TIP3    H252873   4.504   1.929   7.818
 9560TIP3   OH252874   5.058   1.973   7.971
 9560TIP3    H152875   5.151   1.972   7.887
 9560TIP3    H252876   5.046   1.881   8.049
 9561TIP3   OH252877   5.188   1.958   6.843
 9561TIP3    H152878   5.105   2.000   6.912
 9561TIP3    H252879   5.205   1.896   7.065
 9562TIP3   OH252880   3.952   3.541   6.750
 9562TIP3    H152881   3.859   3.535   6.666
 9562TIP3    H252882   3.970   3.636   6.687
 9563TIP3   OH252883   4.633   2.182   6.693
 9563TIP3    H152884   4.670   2.122   6.897
 9563TIP3    H252885   4.647   2.268   6.828
 9564TIP3   OH252886   4.833   3.691   6.249
 9564TIP3    H152887   4.925   3.702   6.156
 9564TIP3    H252888   4.803   3.632   6.027
 9565TIP3   OH252889   5.524   3.584   7.185
 9565TIP3    H152890   5.494   3.509   7.020
 9565TIP3    H252891   5.492   3.661   7.032
 9566TIP3   OH252892   4.118   3.631   5.826
 9566TIP3    H152893   4.094   3.651   6.099
 9566TIP3    H252894   4.190   3.566   5.862
 9567TIP3   OH252895   6.894   2.888   7.689
 9567TIP3    H152896   6.860   2.979   7.704
 9567TIP3    H252897   6.822   2.843   7.548
 9568TIP3   OH252898   7.120   3.155   8.277
 9568TIP3    H152899   7.147   3.064   8.328
 9568TIP3    H252900   7.139   3.198   8.529
 9569TIP3   OH252901   6.079   3.229   8.778
 9569TIP3    H152902   6.014   3.172   8.658
 9569TIP3    H252903   6.093   3.185   9.036
 9570TIP3   OH252904   5.792   2.758   8.031
 9570TIP3    H152905   5.824   2.667   7.986
 9570TIP3    H252906   5.843   2.809   7.845
 9571TIP3   OH252907   7.027   2.303   7.572
 9571TIP3    H152908   7.059   2.288   7.848
 9571TIP3    H252909   7.028   2.400   7.569
 9572TIP3   OH252910   6.806   3.141   7.329
 9572TIP3    H152911   6.822   3.140   7.038
 9572TIP3    H252912   6.802   3.237   7.389
 9573TIP3   OH252913   7.133   2.276   8.328
 9573TIP3    H152914   7.108   2.194   8.463
 9573TIP3    H252915   7.229   2.269   8.340
 9574TIP3   OH252916   5.809   3.107   6.801
 9574TIP3    H152917   5.811   3.161   6.555
 9574TIP3    H252918   5.785   3.172   6.999
 9575TIP3   OH252919   7.148   3.245   7.380
 9575TIP3    H152920   7.083   3.177   7.308
 9575TIP3    H252921   7.155   3.232   7.668
 9576TIP3   OH252922   6.746   2.821   6.945
 9576TIP3    H152923   6.688   2.895   6.870
 9576TIP3    H252924   6.823   2.833   6.768
 9577TIP3   OH252925   6.750   2.701   6.036
 9577TIP3    H152926   6.821   2.737   6.207
 9577TIP3    H252927   6.771   2.607   6.057
 9578TIP3   OH252928   7.111   2.825   7.239
 9578TIP3    H152929   7.040   2.853   7.428
 9578TIP3    H252930   7.172   2.776   7.422
 9579TIP3   OH252931   6.265   2.917   7.896
 9579TIP3    H152932   6.244   2.905   7.617
 9579TIP3    H252933   6.270   2.827   8.001
 9580TIP3   OH252934   6.971   2.772   6.507
 9580TIP3    H152935   7.030   2.801   6.726
 9580TIP3    H252936   7.017   2.818   6.282
 9581TIP3   OH252937   6.760   3.401   7.566
 9581TIP3    H152938   6.805   3.462   7.746
 9581TIP3    H252939   6.686   3.452   7.458
 9582TIP3   OH252940   7.311   1.927   6.447
 9582TIP3    H152941   7.217   1.929   6.522
 9582TIP3    H252942   7.342   2.016   6.519
 9583TIP3   OH252943   7.457   3.384   5.904
 9583TIP3    H152944   7.479   3.476   5.982
 9583TIP3    H252945   7.544   3.345   5.949
 9584TIP3   OH252946   6.264   2.041   8.655
 9584TIP3    H152947   6.170   2.020   8.601
 9584TIP3    H252948   6.263   2.083   8.916
 9585TIP3   OH252949   7.101   2.902   5.955
 9585TIP3    H152950   7.086   2.902   5.664
 9585TIP3    H252951   7.193   2.932   5.973
 9586TIP3   OH252952   6.688   2.268   5.982
 9586TIP3    H152953   6.652   2.267   6.252
 9586TIP3    H252954   6.658   2.179   5.901
 9587TIP3   OH252955   6.805   2.584   7.197
 9587TIP3    H152956   6.783   2.670   7.071
 9587TIP3    H252957   6.890   2.564   7.062
 9588TIP3   OH252958   6.333   2.277   5.709
 9588TIP3    H152959   6.295   2.243   5.964
 9588TIP3    H252960   6.258   2.331   5.613
 9589TIP3   OH252961   5.781   2.301   6.429
 9589TIP3    H152962   5.741   2.373   6.279
 9589TIP3    H252963   5.752   2.320   6.699
 9590TIP3   OH252964   6.521   2.300   7.953
 9590TIP3    H152965   6.435   2.335   8.031
 9590TIP3    H252966   6.556   2.273   8.211
 9591TIP3   OH252967   6.622   2.485   8.556
 9591TIP3    H152968   6.638   2.533   8.310
 9591TIP3    H252969   6.683   2.524   8.748
 9592TIP3   OH252970   6.563   3.004   6.702
 9592TIP3    H152971   6.494   2.973   6.522
 9592TIP3    H252972   6.510   3.021   6.948
 9593TIP3   OH252973   6.938   2.303   6.279
 9593TIP3    H152974   6.852   2.326   6.156
 9593TIP3    H252975   6.968   2.390   6.384
 9594TIP3   OH252976   7.023   2.511   6.669
 9594TIP3    H152977   7.101   2.502   6.843
 9594TIP3    H252978   7.034   2.599   6.549
 9595TIP3   OH252979   6.056   2.932   8.538
 9595TIP3    H152980   6.102   2.960   8.295
 9595TIP3    H252981   6.122   2.874   8.658
 9596TIP3   OH252982   6.775   3.152   6.429
 9596TIP3    H152983   6.738   3.241   6.477
 9596TIP3    H252984   6.702   3.094   6.522
 9597TIP3   OH252985   7.455   2.524   6.615
 9597TIP3    H152986   7.403   2.489   6.387
 9597TIP3    H252987   7.460   2.618   6.528
 9598TIP3   OH252988   7.301   3.397   6.723
 9598TIP3    H152989   7.256   3.327   6.873
 9598TIP3    H252990   7.362   3.349   6.549
 9599TIP3   OH252991   6.422   3.046   7.380
 9599TIP3    H152992   6.430   3.138   7.464
 9599TIP3    H252993   6.390   3.004   7.626
 9600TIP3   OH252994   6.287   3.623   7.305
 9600TIP3    H152995   6.280   3.596   7.584
 9600TIP3    H252996   6.333   3.709   7.326
 9601TIP3   OH252997   7.096   3.204   6.135
 9601TIP3    H152998   7.098   3.179   6.417
 9601TIP3    H252999   7.024   3.145   6.051
 9602TIP3   OH253000   7.552   3.627   6.174
 9602TIP3    H153001   7.574   3.715   6.069
 9602TIP3    H253002   7.463   3.646   6.264
 9603TIP3   OH253003   7.172   3.039   6.807
 9603TIP3    H153004   7.161   2.955   6.954
 9603TIP3    H253005   7.262   3.067   6.885
 9604TIP3   OH253006   6.496   3.319   5.628
 9604TIP3    H153007   6.480   3.265   5.391
 9604TIP3    H253008   6.435   3.275   5.814
 9605TIP3   OH253009   6.371   3.257   6.420
 9605TIP3    H153010   6.454   3.217   6.513
 9605TIP3    H253011   6.386   3.350   6.489
 9606TIP3   OH253012   6.862   2.199   6.981
 9606TIP3    H153013   6.888   2.245   6.735
 9606TIP3    H253014   6.923   2.238   7.176
 9607TIP3   OH253015   6.644   3.405   6.513
 9607TIP3    H153016   6.557   3.445   6.567
 9607TIP3    H253017   6.670   3.454   6.270
 9608TIP3   OH253018   6.616   2.377   7.239
 9608TIP3    H153019   6.674   2.455   7.281
 9608TIP3    H253020   6.590   2.350   7.515
 9609TIP3   OH253021   6.670   2.057   7.356
 9609TIP3    H153022   6.669   2.085   7.635
 9609TIP3    H253023   6.720   2.131   7.227
 9610TIP3   OH253024   6.402   3.516   6.648
 9610TIP3    H153025   6.411   3.592   6.462
 9610TIP3    H253026   6.348   3.555   6.861
 9611TIP3   OH253027   6.260   2.174   6.429
 9611TIP3    H153028   6.261   2.232   6.660
 9611TIP3    H253029   6.350   2.137   6.441
 9612TIP3   OH253030   6.072   3.233   6.063
 9612TIP3    H153031   6.148   3.264   6.216
 9612TIP3    H253032   6.121   3.180   5.865
 9613TIP3   OH253033   7.243   3.578   8.844
 9613TIP3    H153034   7.184   3.601   8.622
 9613TIP3    H253035   7.316   3.640   8.826
 9614TIP3   OH253036   6.024   1.988   8.328
 9614TIP3    H153037   5.973   2.068   8.277
 9614TIP3    H253038   5.954   1.919   8.328
 9615TIP3   OH253039   6.710   3.502   5.760
 9615TIP3    H153040   6.644   3.432   5.697
 9615TIP3    H253041   6.781   3.478   5.571
 9616TIP3   OH253042   7.153   3.471   5.709
 9616TIP3    H153043   7.174   3.399   5.901
 9616TIP3    H253044   7.227   3.461   5.517
 9617TIP3   OH253045   6.245   3.057   5.631
 9617TIP3    H153046   6.256   2.988   5.832
 9617TIP3    H253047   6.319   3.035   5.448
 9618TIP3   OH253048   6.790   3.178   5.529
 9618TIP3    H153049   6.767   3.164   5.811
 9618TIP3    H253050   6.788   3.084   5.445
 9619TIP3   OH253051   6.421   2.715   5.808
 9619TIP3    H153052   6.423   2.722   5.517
 9619TIP3    H253053   6.511   2.689   5.877
 9620TIP3   OH253054   7.376   2.914   5.667
 9620TIP3    H153055   7.338   2.889   5.406
 9620TIP3    H253056   7.384   3.013   5.646
 9621TIP3   OH253057   6.484   3.736   6.318
 9621TIP3    H153058   6.568   3.780   6.348
 9621TIP3    H253059   6.447   3.783   6.087
 9622TIP3   OH253060   5.790   3.210   6.021
 9622TIP3    H153061   5.888   3.211   6.021
 9622TIP3    H253062   5.771   3.153   5.787
 9623TIP3   OH253063   7.464   3.028   6.891
 9623TIP3    H153064   7.556   3.044   6.816
 9623TIP3    H253065   7.477   2.959   7.098
 9624TIP3   OH253066   7.485   2.821   7.419
 9624TIP3    H153067   7.405   2.772   7.506
 9624TIP3    H253068   7.529   2.836   7.674
 9625TIP3   OH253069   7.417   3.053   8.883
 9625TIP3    H153070   7.501   3.013   8.796
 9625TIP3    H253071   7.426   3.142   8.784
 9626TIP3   OH253072   7.472   2.808   6.402
 9626TIP3    H153073   7.438   2.829   6.135
 9626TIP3    H253074   7.446   2.889   6.549
 9627TIP3   OH253075   7.316   2.488   5.835
 9627TIP3    H153076   7.324   2.542   5.595
 9627TIP3    H253077   7.292   2.403   5.706
 9628TIP3   OH253078   7.272   2.656   7.629
 9628TIP3    H153079   7.267   2.575   7.461
 9628TIP3    H253080   7.240   2.627   7.890
 9629TIP3   OH253081   7.266   2.239   5.568
 9629TIP3    H153082   7.258   2.223   5.853
 9629TIP3    H253083   7.172   2.226   5.484
 9630TIP3   OH253084   7.241   2.450   7.110
 9630TIP3    H153085   7.229   2.354   7.152
 9630TIP3    H253086   7.334   2.451   7.014
 9631TIP3   OH253087   7.260   2.176   7.209
 9631TIP3    H153088   7.267   2.145   7.485
 9631TIP3    H253089   7.198   2.112   7.092
 9632TIP3   OH253090   7.473   2.147   6.210
 9632TIP3    H153091   7.514   2.083   6.027
 9632TIP3    H253092   7.493   2.233   6.087
 9633TIP3   OH253093   6.168   3.472   8.358
 9633TIP3    H153094   6.118   3.397   8.472
 9633TIP3    H253095   6.167   3.536   8.574
 9634TIP3   OH253096   6.718   2.064   8.268
 9634TIP3    H153097   6.709   1.995   8.469
 9634TIP3    H253098   6.815   2.064   8.229
 9635TIP3   OH253099   7.341   2.055   7.956
 9635TIP3    H153100   7.399   1.985   7.848
 9635TIP3    H253101   7.403   2.131   7.944
 9636TIP3   OH253102   6.402   1.902   7.722
 9636TIP3    H153103   6.478   1.926   7.560
 9636TIP3    H253104   6.344   1.978   7.677
 9637TIP3   OH253105   6.978   2.008   8.184
 9637TIP3    H153106   6.999   2.024   7.908
 9637TIP3    H253107   6.932   1.922   8.184
 9638TIP3   OH253108   7.080   1.987   6.942
 9638TIP3    H153109   6.999   2.041   6.942
 9638TIP3    H253110   7.048   1.896   6.993
 9639TIP3   OH253111   5.992   2.143   5.967
 9639TIP3    H153112   6.048   2.087   5.796
 9639TIP3    H253113   6.048   2.152   6.201
 9640TIP3   OH253114   6.527   2.192   6.636
 9640TIP3    H153115   6.571   2.128   6.807
 9640TIP3    H253116   6.544   2.273   6.798
 9641TIP3   OH253117   7.366   3.616   7.131
 9641TIP3    H153118   7.333   3.542   6.960
 9641TIP3    H253119   7.360   3.693   6.954
 9642TIP3   OH253120   5.969   3.590   5.649
 9642TIP3    H153121   5.938   3.650   5.850
 9642TIP3    H253122   6.053   3.554   5.748
 9643TIP3   OH253123   7.572   2.549   7.377
 9643TIP3    H153124   7.573   2.646   7.383
 9643TIP3    H253125   7.536   2.531   7.110
 9644TIP3   OH253126   7.530   3.325   8.760
 9644TIP3    H153127   7.621   3.357   8.763
 9644TIP3    H253128   7.492   3.369   8.991
 9645TIP3   OH253129   7.522   2.242   7.842
 9645TIP3    H153130   7.608   2.287   7.887
 9645TIP3    H253131   7.535   2.215   7.560
 9646TIP3   OH253132   7.521   3.722   7.704
 9646TIP3    H153133   7.453   3.682   7.527
 9646TIP3    H253134   7.541   3.645   7.869
 9647TIP3   OH253135   7.571   3.543   8.295
 9647TIP3    H153136   7.517   3.466   8.382
 9647TIP3    H253137   7.538   3.613   8.475
 9648TIP3   OH253138   7.653   2.910   8.655
 9648TIP3    H153139   7.710   2.884   8.427
 9648TIP3    H253140   7.686   2.847   8.850
 9649TIP3   OH253141   7.499   2.610   8.391
 9649TIP3    H153142   7.588   2.575   8.367
 9649TIP3    H253143   7.499   2.642   8.661
 9650TIP3   OH253144   7.515   2.169   6.993
 9650TIP3    H153145   7.419   2.182   7.041
 9650TIP3    H253146   7.512   2.158   6.699
 9651TIP3   OH253147   1.205   4.763   7.686
 9651TIP3    H153148   1.189   4.860   7.674
 9651TIP3    H253149   1.148   4.731   7.470
 9652TIP3   OH253150   1.434   4.995   8.262
 9652TIP3    H153151   1.383   4.936   8.433
 9652TIP3    H253152   1.473   5.058   8.454
 9653TIP3   OH253153   0.136   4.418   7.062
 9653TIP3    H153154   0.155   4.498   7.212
 9653TIP3    H253155   0.045   4.399   7.146
 9654TIP3   OH253156   0.133   4.694   7.956
 9654TIP3    H153157   0.157   4.606   8.043
 9654TIP3    H253158   0.219   4.740   7.950
 9655TIP3   OH253159   1.188   5.505   8.268
 9655TIP3    H153160   1.252   5.452   8.112
 9655TIP3    H253161   1.179   5.453   8.511
 9656TIP3   OH253162   0.569   4.191   8.214
 9656TIP3    H153163   0.601   4.269   8.061
 9656TIP3    H253164   0.511   4.150   8.013
 9657TIP3   OH253165   1.334   4.195   7.626
 9657TIP3    H153166   1.370   4.170   7.890
 9657TIP3    H253167   1.364   4.287   7.608
 9658TIP3   OH253168   0.717   4.583   8.187
 9658TIP3    H153169   0.774   4.530   8.361
 9658TIP3    H253170   0.701   4.521   7.968
 9659TIP3   OH253171   1.165   5.005   7.374
 9659TIP3    H153172   1.151   5.011   7.089
 9659TIP3    H253173   1.121   5.089   7.458
 9660TIP3   OH253174   1.495   4.162   8.265
 9660TIP3    H153175   1.462   4.125   8.520
 9660TIP3    H253176   1.583   4.121   8.250
 9661TIP3   OH253177   0.121   5.000   6.867
 9661TIP3    H153178   0.127   5.063   6.639
 9661TIP3    H253179   0.168   5.047   7.077
 9662TIP3   OH253180   1.343   5.347   7.776
 9662TIP3    H153181   1.392   5.264   7.719
 9662TIP3    H253182   1.416   5.411   7.803
 9663TIP3   OH253183   1.500   5.131   7.551
 9663TIP3    H153184   1.444   5.079   7.374
 9663TIP3    H253185   1.491   5.076   7.794
 9664TIP3   OH253186   1.074   4.693   6.963
 9664TIP3    H153187   1.027   4.776   6.903
 9664TIP3    H253188   1.154   4.701   6.795
 9665TIP3   OH253189   1.096   4.592   5.952
 9665TIP3    H153190   1.139   4.624   6.195
 9665TIP3    H253191   1.124   4.499   5.946
 9666TIP3   OH253192   1.464   4.721   7.293
 9666TIP3    H153193   1.380   4.732   7.437
 9666TIP3    H253194   1.522   4.683   7.500
 9667TIP3   OH253195   0.574   4.799   7.887
 9667TIP3    H153196   0.543   4.747   7.656
 9667TIP3    H253197   0.632   4.733   8.025
 9668TIP3   OH253198   1.307   4.676   6.543
 9668TIP3    H153199   1.374   4.708   6.735
 9668TIP3    H253200   1.351   4.705   6.291
 9669TIP3   OH253201   1.060   5.254   7.446
 9669TIP3    H153202   1.090   5.291   7.698
 9669TIP3    H253203   1.025   5.332   7.314
 9670TIP3   OH253204   1.683   3.794   6.555
 9670TIP3    H153205   1.600   3.809   6.708
 9670TIP3    H253206   1.714   3.885   6.516
 9671TIP3   OH253207   0.431   4.672   7.254
 9671TIP3    H153208   0.415   4.749   7.077
 9671TIP3    H253209   0.446   4.598   7.071
 9672TIP3   OH253210   1.787   5.250   5.979
 9672TIP3    H153211   1.816   5.339   6.066
 9672TIP3    H253212   1.870   5.201   6.039
 9673TIP3   OH253213   1.049   5.581   7.062
 9673TIP3    H153214   1.035   5.586   6.771
 9673TIP3    H253215   1.036   5.675   7.140
 9674TIP3   OH253216   0.412   5.449   7.665
 9674TIP3    H153217   0.424   5.417   7.944
 9674TIP3    H253218   0.320   5.423   7.608
 9675TIP3   OH253219   1.361   5.525   6.111
 9675TIP3    H153220   1.402   5.445   5.985
 9675TIP3    H253221   1.355   5.504   6.396
 9676TIP3   OH253222   1.303   5.510   6.951
 9676TIP3    H153223   1.208   5.528   7.008
 9676TIP3    H253224   1.318   5.437   7.137
 9677TIP3   OH253225   1.460   4.773   5.976
 9677TIP3    H153226   1.438   4.783   5.691
 9677TIP3    H253227   1.556   4.788   5.970
 9678TIP3   OH253228   1.039   4.141   5.991
 9678TIP3    H153229   0.989   4.143   6.243
 9678TIP3    H253230   0.989   4.068   5.865
 9679TIP3   OH253231   0.633   4.370   7.662
 9679TIP3    H153232   0.537   4.367   7.602
 9679TIP3    H253233   0.671   4.357   7.392
 9680TIP3   OH253234   1.174   4.479   7.305
 9680TIP3    H153235   1.136   4.558   7.170
 9680TIP3    H253236   1.236   4.449   7.098
 9681TIP3   OH253237   1.342   4.460   8.001
 9681TIP3    H153238   1.286   4.535   7.923
 9681TIP3    H253239   1.281   4.386   7.977
 9682TIP3   OH253240   0.684   4.161   5.796
 9682TIP3    H153241   0.619   4.117   5.970
 9682TIP3    H253242   0.624   4.221   5.646
 9683TIP3   OH253243   0.125   4.100   8.070
 9683TIP3    H153244   0.051   4.039   8.133
 9683TIP3    H253245   0.125   4.105   7.782
 9684TIP3   OH253246   0.129   4.222   6.441
 9684TIP3    H153247   0.183   4.280   6.261
 9684TIP3    H253248   0.085   4.289   6.603
 9685TIP3   OH253249   0.848   4.151   7.953
 9685TIP3    H153250   0.754   4.169   7.965
 9685TIP3    H253251   0.877   4.197   8.196
 9686TIP3   OH253252   0.370   4.344   7.461
 9686TIP3    H153253   0.285   4.370   7.338
 9686TIP3    H253254   0.354   4.249   7.521
 9687TIP3   OH253255   0.712   4.332   6.846
 9687TIP3    H153256   0.785   4.299   6.684
 9687TIP3    H253257   0.660   4.380   6.636
 9688TIP3   OH253258   1.297   4.145   8.853
 9688TIP3    H153259   1.250   4.200   9.054
 9688TIP3    H253260   1.249   4.061   8.877
 9689TIP3   OH253261   0.595   4.432   6.198
 9689TIP3    H153262   0.521   4.440   6.012
 9689TIP3    H253263   0.656   4.494   6.060
 9690TIP3   OH253264   0.947   4.364   8.496
 9690TIP3    H153265   1.016   4.360   8.292
 9690TIP3    H253266   1.002   4.362   8.736
 9691TIP3   OH253267   0.415   4.083   7.599
 9691TIP3    H153268   0.358   4.008   7.683
 9691TIP3    H253269   0.459   4.044   7.365
 9692TIP3   OH253270   0.906   4.901   6.828
 9692TIP3    H153271   0.834   4.852   6.687
 9692TIP3    H253272   0.859   4.924   7.080
 9693TIP3   OH253273   1.282   4.179   6.276
 9693TIP3    H153274   1.193   4.174   6.156
 9693TIP3    H253275   1.287   4.274   6.345
 9694TIP3   OH253276   1.329   4.408   6.654
 9694TIP3    H153277   1.401   4.377   6.828
 9694TIP3    H253278   1.372   4.485   6.528
 9695TIP3   OH253279   0.389   4.847   8.457
 9695TIP3    H153280   0.446   4.848   8.220
 9695TIP3    H253281   0.446   4.800   8.640
 9696TIP3   OH253282   1.095   5.040   6.444
 9696TIP3    H153283   1.057   5.128   6.513
 9696TIP3    H253284   1.029   4.980   6.567
 9697TIP3   OH253285   1.819   4.380   6.597
 9697TIP3    H153286   1.767   4.371   6.345
 9697TIP3    H253287   1.837   4.476   6.597
 9698TIP3   OH253288   1.650   5.263   6.759
 9698TIP3    H153289   1.597   5.196   6.894
 9698TIP3    H253290   1.684   5.218   6.522
 9699TIP3   OH253291   0.645   5.202   7.713
 9699TIP3    H153292   0.681   5.287   7.608
 9699TIP3    H253293   0.556   5.205   7.602
 9700TIP3   OH253294   0.155   4.719   6.015
 9700TIP3    H153295   0.250   4.735   6.039
 9700TIP3    H253296   0.134   4.683   6.276
 9701TIP3   OH253297   0.772   4.953   7.527
 9701TIP3    H153298   0.743   5.043   7.596
 9701TIP3    H253299   0.721   4.902   7.728
 9702TIP3   OH253300   0.662   5.443   7.341
 9702TIP3    H153301   0.568   5.440   7.425
 9702TIP3    H253302   0.692   5.522   7.485
 9703TIP3   OH253303   1.430   5.086   6.129
 9703TIP3    H153304   1.427   5.047   6.399
 9703TIP3    H253305   1.343   5.057   6.036
 9704TIP3   OH253306   1.855   5.508   6.237
 9704TIP3    H153307   1.915   5.570   6.108
 9704TIP3    H253308   1.789   5.571   6.351
 9705TIP3   OH253309   1.498   4.944   6.834
 9705TIP3    H153310   1.480   4.860   6.978
 9705TIP3    H253311   1.596   4.944   6.825
 9706TIP3   OH253312   0.812   5.216   5.637
 9706TIP3    H153313   0.798   5.173   5.379
 9706TIP3    H253314   0.756   5.160   5.808
 9707TIP3   OH253315   0.689   5.125   6.414
 9707TIP3    H153316   0.757   5.082   6.576
 9707TIP3    H253317   0.703   5.220   6.480
 9708TIP3   OH253318   0.362   4.872   6.669
 9708TIP3    H153319   0.275   4.915   6.699
 9708TIP3    H253320   0.404   4.921   6.453
 9709TIP3   OH253321   1.221   4.086   7.017
 9709TIP3    H153322   1.249   4.138   6.786
 9709TIP3    H253323   1.253   4.140   7.242
 9710TIP3   OH253324   1.006   5.318   6.582
 9710TIP3    H153325   0.920   5.349   6.684
 9710TIP3    H253326   1.041   5.401   6.468
 9711TIP3   OH253327   0.956   4.248   7.185
 9711TIP3    H153328   0.998   4.335   7.206
 9711TIP3    H253329   0.913   4.238   7.443
 9712TIP3   OH253330   1.028   3.942   7.332
 9712TIP3    H153331   0.995   4.003   7.533
 9712TIP3    H253332   1.109   3.992   7.239
 9713TIP3   OH253333   0.730   5.381   6.573
 9713TIP3    H153334   0.742   5.465   6.417
 9713TIP3    H253335   0.697   5.421   6.822
 9714TIP3   OH253336   0.572   4.069   6.519
 9714TIP3    H153337   0.572   4.155   6.651
 9714TIP3    H253338   0.667   4.047   6.534
 9715TIP3   OH253339   0.427   5.129   6.150
 9715TIP3    H153340   0.516   5.132   6.276
 9715TIP3    H253341   0.450   5.066   5.934
 9716TIP3   OH253342   0.241   4.412   5.955
 9716TIP3    H153343   0.302   4.486   5.991
 9716TIP3    H253344   0.197   4.433   5.700
 9717TIP3   OH253345   0.352   3.854   8.529
 9717TIP3    H153346   0.352   3.840   8.238
 9717TIP3    H253347   0.267   3.900   8.556
 9718TIP3   OH253348   0.211   5.258   7.395
 9718TIP3    H153349   0.121   5.280   7.308
 9718TIP3    H253350   0.258   5.298   7.170
 9719TIP3   OH253351   1.029   5.408   5.637
 9719TIP3    H153352   0.980   5.327   5.709
 9719TIP3    H253353   1.109   5.370   5.514
 9720TIP3   OH253354   1.475   5.329   5.652
 9720TIP3    H153355   1.488   5.256   5.847
 9720TIP3    H253356   1.564   5.338   5.532
 9721TIP3   OH253357   0.561   4.956   5.661
 9721TIP3    H153358   0.531   4.864   5.718
 9721TIP3    H253359   0.655   4.944   5.586
 9722TIP3   OH253360   1.138   5.071   5.598
 9722TIP3    H153361   1.106   5.057   5.874
 9722TIP3    H253362   1.134   4.978   5.499
 9723TIP3   OH253363   0.713   4.750   6.474
 9723TIP3    H153364   0.631   4.707   6.558
 9723TIP3    H253365   0.734   4.699   6.231
 9724TIP3   OH253366   0.808   4.577   5.853
 9724TIP3    H153367   0.792   4.588   5.565
 9724TIP3    H253368   0.905   4.579   5.877
 9725TIP3   OH253369   1.740   4.790   5.682
 9725TIP3    H153370   1.713   4.762   5.409
 9725TIP3    H253371   1.727   4.889   5.652
 9726TIP3   OH253372   0.800   5.615   6.312
 9726TIP3    H153373   0.897   5.622   6.285
 9726TIP3    H253374   0.771   5.675   6.096
 9727TIP3   OH253375   0.152   5.137   6.168
 9727TIP3    H153376   0.242   5.175   6.141
 9727TIP3    H253377   0.149   5.085   5.925
 9728TIP3   OH253378   0.060   5.621   7.350
 9728TIP3    H153379  -0.017   5.676   7.413
 9728TIP3    H253380   0.072   5.571   7.596
 9729TIP3   OH253381   0.143   5.464   7.992
 9729TIP3    H153382   0.159   5.373   7.896
 9729TIP3    H253383   0.182   5.464   8.262
 9730TIP3   OH253384   1.784   4.899   6.765
 9730TIP3    H153385   1.873   4.935   6.804
 9730TIP3    H253386   1.780   4.837   6.993
 9731TIP3   OH253387   1.796   4.710   7.452
 9731TIP3    H153388   1.742   4.665   7.653
 9731TIP3    H253389   1.878   4.722   7.611
 9732TIP3   OH253390   1.874   4.679   6.300
 9732TIP3    H153391   1.816   4.692   6.066
 9732TIP3    H253392   1.846   4.756   6.462
 9733TIP3   OH253393   1.666   4.394   5.874
 9733TIP3    H153394   1.687   4.453   5.652
 9733TIP3    H253395   1.642   4.313   5.730
 9734TIP3   OH253396   1.583   4.532   7.767
 9734TIP3    H153397   1.583   4.495   7.494
 9734TIP3    H253398   1.494   4.497   7.845
 9735TIP3   OH253399   0.154   4.763   8.829
 9735TIP3    H153400   0.189   4.756   8.559
 9735TIP3    H253401   0.237   4.753   8.973
 9736TIP3   OH253402   1.624   4.133   5.592
 9736TIP3    H153403   1.662   4.097   5.841
 9736TIP3    H253404   1.530   4.115   5.613
 9737TIP3   OH253405   1.547   4.330   7.146
 9737TIP3    H153406   1.555   4.235   7.209
 9737TIP3    H253407   1.636   4.344   7.041
 9738TIP3   OH253408   1.638   4.046   7.092
 9738TIP3    H153409   1.665   4.033   7.368
 9738TIP3    H253410   1.572   3.975   7.062
 9739TIP3   OH253411   0.035   4.405   8.772
 9739TIP3    H153412  -0.024   4.427   8.550
 9739TIP3    H253413  -0.026   4.436   8.991
 9740TIP3   OH253414   1.814   4.019   6.156
 9740TIP3    H153415   1.851   3.965   5.937
 9740TIP3    H253416   1.895   4.045   6.297
 9741TIP3   OH253417   0.116   4.044   7.023
 9741TIP3    H153418   0.018   4.040   7.035
 9741TIP3    H253419   0.126   4.103   6.792
 9742TIP3   OH253420   1.551   5.532   7.821
 9742TIP3    H153421   1.593   5.488   7.590
 9742TIP3    H253422   1.586   5.622   7.791
 9743TIP3   OH253423   0.243   5.482   8.751
 9743TIP3    H153424   0.239   5.466   9.039
 9743TIP3    H253425   0.332   5.447   8.688
 9744TIP3   OH253426   0.463   5.368   8.412
 9744TIP3    H153427   0.484   5.273   8.445
 9744TIP3    H253428   0.546   5.399   8.535
 9745TIP3   OH253429   0.343   3.834   7.695
 9745TIP3    H153430   0.269   3.830   7.500
 9745TIP3    H253431   0.367   3.740   7.704
 9746TIP3   OH253432   0.197   3.842   6.480
 9746TIP3    H153433   0.220   3.880   6.219
 9746TIP3    H253434   0.164   3.922   6.618
 9747TIP3   OH253435   0.726   3.842   7.734
 9747TIP3    H153436   0.777   3.819   7.500
 9747TIP3    H253437   0.747   3.936   7.773
 9748TIP3   OH253438   1.248   3.866   8.187
 9748TIP3    H153439   1.318   3.874   7.989
 9748TIP3    H253440   1.206   3.781   8.133
 9749TIP3   OH253441   1.464   3.843   6.972
 9749TIP3    H153442   1.399   3.893   6.819
 9749TIP3    H253443   1.415   3.758   7.017
 9750TIP3   OH253444   0.191   5.447   6.789
 9750TIP3    H153445   0.103   5.439   6.669
 9750TIP3    H253446   0.208   5.541   6.714
 9751TIP3   OH253447   0.326   4.001   5.967
 9751TIP3    H153448   0.404   3.953   5.865
 9751TIP3    H253449   0.353   4.021   6.240
 9752TIP3   OH253450   0.878   4.076   6.621
 9752TIP3    H153451   0.932   4.013   6.771
 9752TIP3    H253452   0.890   4.153   6.804
 9753TIP3   OH253453   1.074   5.570   6.249
 9753TIP3    H153454   1.165   5.584   6.165
 9753TIP3    H253455   1.047   5.509   6.030
 9754TIP3   OH253456   1.721   5.481   7.170
 9754TIP3    H153457   1.706   5.403   6.993
 9754TIP3    H253458   1.709   5.554   6.978
 9755TIP3   OH253459   0.309   5.514   5.856
 9755TIP3    H153460   0.300   5.551   6.123
 9755TIP3    H253461   0.380   5.449   5.901
 9756TIP3   OH253462   3.082   4.790   7.698
 9756TIP3    H153463   3.067   4.880   7.584
 9756TIP3    H253464   3.015   4.738   7.560
 9757TIP3   OH253465   3.334   4.963   8.151
 9757TIP3    H153466   3.246   4.927   8.196
 9757TIP3    H253467   3.329   5.046   8.295
 9758TIP3   OH253468   1.994   4.411   7.377
 9758TIP3    H153469   1.975   4.495   7.509
 9758TIP3    H253470   1.932   4.409   7.155
 9759TIP3   OH253471   1.991   4.683   8.031
 9759TIP3    H153472   2.027   4.648   8.283
 9759TIP3    H253473   2.057   4.750   7.965
 9760TIP3   OH253474   3.066   5.480   8.334
 9760TIP3    H153475   3.131   5.438   8.157
 9760TIP3    H253476   2.987   5.429   8.277
 9761TIP3   OH253477   2.853   4.950   9.102
 9761TIP3    H153478   2.860   4.896   8.865
 9761TIP3    H253479   2.847   4.879   9.303
 9762TIP3   OH253480   2.476   4.166   8.163
 9762TIP3    H153481   2.497   4.247   8.004
 9762TIP3    H253482   2.421   4.123   7.956
 9763TIP3   OH253483   3.222   4.214   7.665
 9763TIP3    H153484   3.290   4.144   7.719
 9763TIP3    H253485   3.274   4.287   7.557
 9764TIP3   OH253486   2.573   4.572   8.106
 9764TIP3    H153487   2.651   4.524   8.211
 9764TIP3    H253488   2.533   4.501   7.938
 9765TIP3   OH253489   3.023   5.009   7.323
 9765TIP3    H153490   3.010   5.011   7.035
 9765TIP3    H253491   2.994   5.100   7.398
 9766TIP3   OH253492   2.038   4.987   6.900
 9766TIP3    H153493   2.028   5.038   6.651
 9766TIP3    H253494   2.045   5.059   7.101
 9767TIP3   OH253495   2.727   3.838   8.433
 9767TIP3    H153496   2.751   3.745   8.457
 9767TIP3    H253497   2.652   3.845   8.622
 9768TIP3   OH253498   3.221   5.353   7.716
 9768TIP3    H153499   3.267   5.269   7.638
 9768TIP3    H253500   3.296   5.414   7.764
 9769TIP3   OH253501   3.343   5.133   7.410
 9769TIP3    H153502   3.324   5.079   7.170
 9769TIP3    H253503   3.356   5.060   7.602
 9770TIP3   OH253504   2.944   4.693   6.894
 9770TIP3    H153505   2.889   4.773   6.855
 9770TIP3    H253506   3.024   4.716   6.738
 9771TIP3   OH253507   2.975   4.592   5.988
 9771TIP3    H153508   3.039   4.623   6.192
 9771TIP3    H253509   2.990   4.497   5.994
 9772TIP3   OH253510   3.294   4.726   7.203
 9772TIP3    H153511   3.227   4.737   7.416
 9772TIP3    H253512   3.360   4.671   7.347
 9773TIP3   OH253513   2.449   4.768   7.752
 9773TIP3    H153514   2.417   4.716   7.521
 9773TIP3    H253515   2.500   4.700   7.899
 9774TIP3   OH253516   2.526   4.702   8.775
 9774TIP3    H153517   2.526   4.647   8.529
 9774TIP3    H253518   2.594   4.659   8.937
 9775TIP3   OH253519   3.178   4.667   6.495
 9775TIP3    H153520   3.222   4.694   6.747
 9775TIP3    H253521   3.238   4.709   6.294
 9776TIP3   OH253522   2.943   5.273   7.554
 9776TIP3    H153523   3.034   5.302   7.599
 9776TIP3    H253524   2.911   5.336   7.353
 9777TIP3   OH253525   2.326   4.660   7.062
 9777TIP3    H153526   2.298   4.743   6.936
 9777TIP3    H253527   2.296   4.594   6.870
 9778TIP3   OH253528   3.685   5.258   5.982
 9778TIP3    H153529   3.718   5.346   6.069
 9778TIP3    H253530   3.763   5.202   6.054
 9779TIP3   OH253531   2.929   5.576   7.014
 9779TIP3    H153532   2.912   5.588   6.726
 9779TIP3    H253533   2.918   5.668   7.107
 9780TIP3   OH253534   2.296   5.474   7.614
 9780TIP3    H153535   2.301   5.431   7.875
 9780TIP3    H253536   2.202   5.466   7.548
 9781TIP3   OH253537   3.224   5.526   6.144
 9781TIP3    H153538   3.277   5.453   6.021
 9781TIP3    H253539   3.238   5.509   6.429
 9782TIP3   OH253540   3.198   5.509   6.993
 9782TIP3    H153541   3.103   5.534   7.023
 9782TIP3    H253542   3.202   5.436   7.188
 9783TIP3   OH253543   2.494   3.906   8.832
 9783TIP3    H153544   2.411   3.875   8.709
 9783TIP3    H253545   2.477   4.001   8.835
 9784TIP3   OH253546   3.341   4.776   5.967
 9784TIP3    H153547   3.343   4.753   5.682
 9784TIP3    H253548   3.418   4.836   5.967
 9785TIP3   OH253549   2.911   4.100   6.021
 9785TIP3    H153550   2.868   4.096   6.282
 9785TIP3    H253551   2.840   4.058   5.865
 9786TIP3   OH253552   2.495   4.371   7.683
 9786TIP3    H153553   2.398   4.382   7.620
 9786TIP3    H253554   2.531   4.368   7.407
 9787TIP3   OH253555   3.052   4.473   7.170
 9787TIP3    H153556   3.010   4.552   7.047
 9787TIP3    H253557   3.113   4.448   6.954
 9788TIP3   OH253558   2.553   4.169   5.790
 9788TIP3    H153559   2.497   4.123   5.991
 9788TIP3    H253560   2.489   4.226   5.649
 9789TIP3   OH253561   1.833   4.125   7.878
 9789TIP3    H153562   1.918   4.147   8.007
 9789TIP3    H253563   1.864   4.069   7.659
 9790TIP3   OH253564   2.008   4.192   6.459
 9790TIP3    H153565   2.067   4.227   6.255
 9790TIP3    H253566   1.944   4.267   6.477
 9791TIP3   OH253567   2.764   4.184   7.905
 9791TIP3    H153568   2.680   4.142   7.989
 9791TIP3    H253569   2.829   4.129   8.052
 9792TIP3   OH253570   2.246   4.360   7.503
 9792TIP3    H153571   2.151   4.388   7.497
 9792TIP3    H253572   2.233   4.264   7.473
 9793TIP3   OH253573   2.570   4.351   6.900
 9793TIP3    H153574   2.663   4.349   6.822
 9793TIP3    H253575   2.527   4.404   6.693
 9794TIP3   OH253576   2.448   4.462   6.156
 9794TIP3    H153577   2.404   4.405   5.961
 9794TIP3    H253578   2.529   4.485   6.009
 9795TIP3   OH253579   2.751   4.429   8.493
 9795TIP3    H153580   2.798   4.379   8.286
 9795TIP3    H253581   2.822   4.471   8.643
 9796TIP3   OH253582   2.306   4.080   7.521
 9796TIP3    H153583   2.259   4.000   7.623
 9796TIP3    H253584   2.364   4.041   7.326
 9797TIP3   OH253585   2.770   4.923   6.771
 9797TIP3    H153586   2.695   4.871   6.666
 9797TIP3    H253587   2.742   4.933   7.053
 9798TIP3   OH253588   3.153   4.170   6.252
 9798TIP3    H153589   3.057   4.166   6.177
 9798TIP3    H253590   3.166   4.265   6.318
 9799TIP3   OH253591   3.220   4.395   6.600
 9799TIP3    H153592   3.292   4.382   6.798
 9799TIP3    H253593   3.240   4.482   6.483
 9800TIP3   OH253594   2.315   4.850   8.463
 9800TIP3    H153595   2.340   4.846   8.184
 9800TIP3    H253596   2.383   4.795   8.589
 9801TIP3   OH253597   2.982   5.029   6.417
 9801TIP3    H153598   2.962   5.120   6.513
 9801TIP3    H253599   2.905   4.978   6.516
 9802TIP3   OH253600   3.483   5.305   6.651
 9802TIP3    H153601   3.469   5.248   6.882
 9802TIP3    H253602   3.547   5.255   6.489
 9803TIP3   OH253603   2.536   5.188   7.722
 9803TIP3    H153604   2.570   5.279   7.698
 9803TIP3    H253605   2.463   5.190   7.533
 9804TIP3   OH253606   2.150   4.715   6.072
 9804TIP3    H153607   2.187   4.775   6.276
 9804TIP3    H253608   2.054   4.711   6.129
 9805TIP3   OH253609   2.647   4.943   7.470
 9805TIP3    H153610   2.617   5.032   7.551
 9805TIP3    H253611   2.588   4.888   7.635
 9806TIP3   OH253612   2.553   5.459   7.404
 9806TIP3    H153613   2.455   5.472   7.419
 9806TIP3    H253614   2.583   5.548   7.482
 9807TIP3   OH253615   3.296   5.098   6.078
 9807TIP3    H153616   3.296   5.070   6.360
 9807TIP3    H253617   3.221   5.046   5.982
 9808TIP3   OH253618   3.745   5.509   6.243
 9808TIP3    H153619   3.808   5.574   6.135
 9808TIP3    H253620   3.675   5.570   6.345
 9809TIP3   OH253621   3.361   4.959   6.789
 9809TIP3    H153622   3.338   4.875   6.927
 9809TIP3    H253623   3.458   4.959   6.798
 9810TIP3   OH253624   2.709   5.220   5.658
 9810TIP3    H153625   2.697   5.173   5.406
 9810TIP3    H253626   2.655   5.162   5.835
 9811TIP3   OH253627   2.580   5.135   6.384
 9811TIP3    H153628   2.655   5.092   6.522
 9811TIP3    H253629   2.594   5.228   6.474
 9812TIP3   OH253630   2.268   4.876   6.591
 9812TIP3    H153631   2.188   4.918   6.708
 9812TIP3    H253632   2.306   4.950   6.438
 9813TIP3   OH253633   3.094   4.100   7.044
 9813TIP3    H153634   3.113   4.144   6.789
 9813TIP3    H253635   3.142   4.154   7.242
 9814TIP3   OH253636   2.896   5.295   6.630
 9814TIP3    H153637   2.811   5.343   6.660
 9814TIP3    H253638   2.952   5.359   6.495
 9815TIP3   OH253639   2.836   4.272   7.152
 9815TIP3    H153640   2.903   4.342   7.200
 9815TIP3    H253641   2.809   4.246   7.428
 9816TIP3   OH253642   2.897   3.957   7.365
 9816TIP3    H153643   2.873   4.013   7.590
 9816TIP3    H253644   2.975   4.008   7.254
 9817TIP3   OH253645   2.624   5.381   6.624
 9817TIP3    H153646   2.625   5.455   6.429
 9817TIP3    H253647   2.595   5.430   6.864
 9818TIP3   OH253648   2.453   4.079   6.516
 9818TIP3    H153649   2.444   4.164   6.651
 9818TIP3    H253650   2.549   4.066   6.546
 9819TIP3   OH253651   2.304   5.116   6.135
 9819TIP3    H153652   2.379   5.146   6.303
 9819TIP3    H253653   2.354   5.071   5.925
 9820TIP3   OH253654   2.125   4.409   5.901
 9820TIP3    H153655   2.174   4.483   6.021
 9820TIP3    H253656   2.055   4.456   5.751
 9821TIP3   OH253657   2.240   3.886   8.595
 9821TIP3    H153658   2.209   3.883   8.319
 9821TIP3    H253659   2.197   3.807   8.706
 9822TIP3   OH253660   2.086   5.230   7.311
 9822TIP3    H153661   2.021   5.297   7.389
 9822TIP3    H253662   2.127   5.280   7.092
 9823TIP3   OH253663   2.921   5.404   5.652
 9823TIP3    H153664   2.868   5.322   5.670
 9823TIP3    H253665   3.004   5.370   5.529
 9824TIP3   OH253666   3.365   5.339   5.679
 9824TIP3    H153667   3.378   5.271   5.886
 9824TIP3    H253668   3.456   5.351   5.580
 9825TIP3   OH253669   2.454   4.944   5.619
 9825TIP3    H153670   2.471   4.876   5.817
 9825TIP3    H253671   2.542   4.952   5.487
 9826TIP3   OH253672   3.020   5.070   5.568
 9826TIP3    H153673   2.987   5.056   5.838
 9826TIP3    H253674   3.021   4.975   5.478
 9827TIP3   OH253675   2.586   4.757   6.414
 9827TIP3    H153676   2.521   4.698   6.537
 9827TIP3    H253677   2.626   4.697   6.216
 9828TIP3   OH253678   2.702   4.577   5.832
 9828TIP3    H153679   2.698   4.606   5.550
 9828TIP3    H253680   2.799   4.581   5.880
 9829TIP3   OH253681   3.616   4.795   5.691
 9829TIP3    H153682   3.601   4.772   5.409
 9829TIP3    H253683   3.616   4.893   5.673
 9830TIP3   OH253684   2.669   5.616   6.237
 9830TIP3    H153685   2.764   5.639   6.267
 9830TIP3    H253686   2.654   5.665   5.991
 9831TIP3   OH253687   2.018   5.097   6.093
 9831TIP3    H153688   2.116   5.101   6.078
 9831TIP3    H253689   1.998   5.043   5.853
 9832TIP3   OH253690   1.922   5.592   7.602
 9832TIP3    H153691   1.850   5.538   7.485
 9832TIP3    H253692   1.962   5.531   7.794
 9833TIP3   OH253693   1.990   5.408   8.172
 9833TIP3    H153694   1.951   5.320   8.133
 9833TIP3    H253695   1.943   5.432   8.418
 9834TIP3   OH253696   3.775   4.673   6.315
 9834TIP3    H153697   3.700   4.701   6.147
 9834TIP3    H253698   3.773   4.736   6.537
 9835TIP3   OH253699   3.503   4.387   5.883
 9835TIP3    H153700   3.560   4.451   5.751
 9835TIP3    H253701   3.529   4.305   5.754
 9836TIP3   OH253702   3.465   4.576   7.683
 9836TIP3    H153703   3.494   4.484   7.668
 9836TIP3    H253704   3.540   4.622   7.797
 9837TIP3   OH253705   3.508   4.094   5.763
 9837TIP3    H153706   3.527   4.094   6.048
 9837TIP3    H253707   3.414   4.119   5.742
 9838TIP3   OH253708   3.418   4.330   7.155
 9838TIP3    H153709   3.455   4.243   7.227
 9838TIP3    H253710   3.498   4.378   7.077
 9839TIP3   OH253711   2.056   4.141   8.427
 9839TIP3    H153712   2.089   4.059   8.544
 9839TIP3    H253713   2.080   4.209   8.616
 9840TIP3   OH253714   3.742   4.057   6.153
 9840TIP3    H153715   3.755   3.976   5.988
 9840TIP3    H253716   3.714   4.114   5.934
 9841TIP3   OH253717   1.929   4.049   7.119
 9841TIP3    H153718   1.835   4.070   7.095
 9841TIP3    H253719   1.962   4.102   6.894
 9842TIP3   OH253720   3.431   5.544   7.791
 9842TIP3    H153721   3.475   5.515   7.545
 9842TIP3    H253722   3.487   5.619   7.869
 9843TIP3   OH253723   2.922   4.006   8.259
 9843TIP3    H153724   2.846   3.964   8.397
 9843TIP3    H253725   2.971   3.925   8.193
 9844TIP3   OH253726   2.179   3.857   7.707
 9844TIP3    H153727   2.095   3.863   7.557
 9844TIP3    H253728   2.217   3.770   7.629
 9845TIP3   OH253729   2.069   3.826   6.471
 9845TIP3    H153730   2.095   3.893   6.273
 9845TIP3    H253731   2.002   3.875   6.627
 9846TIP3   OH253732   2.593   3.783   7.737
 9846TIP3    H153733   2.645   3.824   7.530
 9846TIP3    H253734   2.636   3.813   7.986
 9847TIP3   OH253735   2.066   5.435   6.807
 9847TIP3    H153736   1.971   5.451   6.762
 9847TIP3    H253737   2.101   5.515   6.681
 9848TIP3   OH253738   2.192   4.032   5.985
 9848TIP3    H153739   2.259   3.983   5.835
 9848TIP3    H253740   2.237   4.041   6.243
 9849TIP3   OH253741   2.738   4.086   6.657
 9849TIP3    H153742   2.769   4.022   6.852
 9849TIP3    H253743   2.776   4.166   6.792
 9850TIP3   OH253744   2.952   5.591   6.213
 9850TIP3    H153745   3.049   5.581   6.174
 9850TIP3    H253746   2.921   5.523   6.021
 9851TIP3   OH253747   3.589   5.485   7.128
 9851TIP3    H153748   3.556   5.423   6.921
 9851TIP3    H253749   3.593   5.567   6.969
 9852TIP3   OH253750   2.194   5.514   5.850
 9852TIP3    H153751   2.170   5.553   6.108
 9852TIP3    H253752   2.267   5.455   5.919
 9853TIP3   OH253753   5.223   5.045   8.349
 9853TIP3    H153754   5.230   4.951   8.289
 9853TIP3    H253755   5.178   5.045   8.613
 9854TIP3   OH253756   4.942   5.531   8.427
 9854TIP3    H153757   4.989   5.481   8.217
 9854TIP3    H253758   4.905   5.459   8.580
 9855TIP3   OH253759   4.722   4.989   9.054
 9855TIP3    H153760   4.714   4.975   8.772
 9855TIP3    H253761   4.816   4.979   9.108
 9856TIP3   OH253762   4.333   4.209   8.109
 9856TIP3    H153763   4.330   4.279   7.905
 9856TIP3    H253764   4.292   4.135   7.959
 9857TIP3   OH253765   5.137   4.227   7.533
 9857TIP3    H153766   5.172   4.179   7.764
 9857TIP3    H253767   5.218   4.277   7.455
 9858TIP3   OH253768   4.952   5.041   7.386
 9858TIP3    H153769   4.928   5.006   7.125
 9858TIP3    H253770   4.922   5.135   7.362
 9859TIP3   OH253771   4.175   4.259   8.769
 9859TIP3    H153772   4.212   4.347   8.796
 9859TIP3    H253773   4.233   4.220   8.565
 9860TIP3   OH253774   5.089   5.375   7.920
 9860TIP3    H153775   5.099   5.288   7.785
 9860TIP3    H253776   5.164   5.421   7.800
 9861TIP3   OH253777   5.245   5.170   7.584
 9861TIP3    H153778   5.238   5.100   7.383
 9861TIP3    H253779   5.225   5.119   7.824
 9862TIP3   OH253780   5.172   4.713   7.350
 9862TIP3    H153781   5.105   4.683   7.539
 9862TIP3    H253782   5.249   4.660   7.443
 9863TIP3   OH253783   4.341   4.778   7.671
 9863TIP3    H153784   4.261   4.769   7.506
 9863TIP3    H253785   4.329   4.709   7.866
 9864TIP3   OH253786   4.864   5.290   7.443
 9864TIP3    H153787   4.884   5.323   7.710
 9864TIP3    H253788   4.787   5.341   7.368
 9865TIP3   OH253789   5.458   3.802   6.597
 9865TIP3    H153790   5.364   3.818   6.678
 9865TIP3    H253791   5.486   3.890   6.498
 9866TIP3   OH253792   5.571   5.232   6.078
 9866TIP3    H153793   5.605   5.323   6.123
 9866TIP3    H253794   5.655   5.180   6.090
 9867TIP3   OH253795   4.817   5.596   7.053
 9867TIP3    H153796   4.803   5.603   6.765
 9867TIP3    H253797   4.805   5.689   7.137
 9868TIP3   OH253798   4.165   5.472   7.623
 9868TIP3    H153799   4.197   5.441   7.887
 9868TIP3    H253800   4.080   5.424   7.599
 9869TIP3   OH253801   5.124   5.523   6.174
 9869TIP3    H153802   5.155   5.442   6.036
 9869TIP3    H253803   5.130   5.499   6.459
 9870TIP3   OH253804   5.072   5.503   7.017
 9870TIP3    H153805   4.980   5.536   7.032
 9870TIP3    H253806   5.060   5.419   7.161
 9871TIP3   OH253807   5.236   4.776   6.015
 9871TIP3    H153808   5.222   4.757   5.733
 9871TIP3    H253809   5.331   4.797   6.021
 9872TIP3   OH253810   4.811   4.157   5.955
 9872TIP3    H153811   4.770   4.164   6.216
 9872TIP3    H253812   4.754   4.087   5.841
 9873TIP3   OH253813   4.475   4.161   5.838
 9873TIP3    H153814   4.387   4.134   5.922
 9873TIP3    H253815   4.466   4.251   5.727
 9874TIP3   OH253816   3.807   4.194   7.800
 9874TIP3    H153817   3.859   4.185   8.049
 9874TIP3    H253818   3.761   4.110   7.785
 9875TIP3   OH253819   4.590   4.116   8.085
 9875TIP3    H153820   4.511   4.170   8.121
 9875TIP3    H253821   4.659   4.184   8.016
 9876TIP3   OH253822   4.492   4.336   6.885
 9876TIP3    H153823   4.522   4.371   7.152
 9876TIP3    H253824   4.434   4.409   6.813
 9877TIP3   OH253825   4.312   4.449   6.168
 9877TIP3    H153826   4.245   4.454   5.958
 9877TIP3    H253827   4.395   4.458   6.012
 9878TIP3   OH253828   4.218   4.071   7.509
 9878TIP3    H153829   4.155   3.994   7.506
 9878TIP3    H253830   4.280   4.051   7.293
 9879TIP3   OH253831   4.643   4.921   6.822
 9879TIP3    H153832   4.569   4.870   6.708
 9879TIP3    H253833   4.607   4.950   7.083
 9880TIP3   OH253834   5.050   4.234   6.294
 9880TIP3    H153835   4.963   4.208   6.183
 9880TIP3    H253836   5.078   4.289   6.063
 9881TIP3   OH253837   4.852   5.046   6.453
 9881TIP3    H153838   4.824   5.138   6.513
 9881TIP3    H253839   4.786   4.993   6.597
 9882TIP3   OH253840   5.614   4.418   6.579
 9882TIP3    H153841   5.571   4.382   6.339
 9882TIP3    H253842   5.614   4.514   6.522
 9883TIP3   OH253843   5.416   5.248   6.750
 9883TIP3    H153844   5.372   5.168   6.849
 9883TIP3    H253845   5.463   5.216   6.510
 9884TIP3   OH253846   4.422   5.206   7.638
 9884TIP3    H153847   4.423   5.294   7.509
 9884TIP3    H253848   4.329   5.186   7.623
 9885TIP3   OH253849   4.041   4.733   6.126
 9885TIP3    H153850   4.062   4.751   6.405
 9885TIP3    H253851   3.946   4.708   6.147
 9886TIP3   OH253852   4.554   4.971   7.662
 9886TIP3    H153853   4.499   5.052   7.665
 9886TIP3    H253854   4.487   4.901   7.704
 9887TIP3   OH253855   4.417   5.447   7.272
 9887TIP3    H153856   4.323   5.465   7.338
 9887TIP3    H253857   4.458   5.517   7.437
 9888TIP3   OH253858   5.202   5.099   6.072
 9888TIP3    H153859   5.241   5.062   6.318
 9888TIP3    H253860   5.113   5.062   6.099
 9889TIP3   OH253861   5.619   5.511   6.252
 9889TIP3    H153862   5.684   5.577   6.168
 9889TIP3    H253863   5.547   5.570   6.351
 9890TIP3   OH253864   5.269   4.959   6.759
 9890TIP3    H153865   5.220   4.882   6.858
 9890TIP3    H253866   5.362   4.926   6.777
 9891TIP3   OH253867   4.596   5.227   5.637
 9891TIP3    H153868   4.582   5.173   5.400
 9891TIP3    H253869   4.536   5.183   5.823
 9892TIP3   OH253870   4.482   5.119   6.399
 9892TIP3    H153871   4.567   5.092   6.522
 9892TIP3    H253872   4.480   5.214   6.474
 9893TIP3   OH253873   5.032   4.057   6.960
 9893TIP3    H153874   5.061   4.115   6.741
 9893TIP3    H253875   5.063   4.111   7.188
 9894TIP3   OH253876   4.771   5.315   6.561
 9894TIP3    H153877   4.676   5.339   6.576
 9894TIP3    H253878   4.808   5.406   6.543
 9895TIP3   OH253879   4.791   3.984   7.260
 9895TIP3    H153880   4.784   4.012   7.539
 9895TIP3    H253881   4.877   4.020   7.170
 9896TIP3   OH253882   4.516   5.380   6.543
 9896TIP3    H153883   4.518   5.462   6.378
 9896TIP3    H253884   4.473   5.417   6.786
 9897TIP3   OH253885   4.339   4.059   6.513
 9897TIP3    H153886   4.374   4.148   6.555
 9897TIP3    H253887   4.423   4.009   6.537
 9898TIP3   OH253888   4.179   5.135   6.135
 9898TIP3    H153889   4.240   5.138   6.357
 9898TIP3    H253890   4.223   5.070   5.961
 9899TIP3   OH253891   4.010   5.255   7.428
 9899TIP3    H153892   3.917   5.240   7.479
 9899TIP3    H253893   4.009   5.296   7.161
 9900TIP3   OH253894   4.809   5.408   5.652
 9900TIP3    H153895   4.756   5.328   5.709
 9900TIP3    H253896   4.889   5.371   5.526
 9901TIP3   OH253897   5.258   5.340   5.688
 9901TIP3    H153898   5.260   5.261   5.865
 9901TIP3    H253899   5.343   5.332   5.550
 9902TIP3   OH253900   4.332   4.969   5.640
 9902TIP3    H153901   4.334   4.886   5.781
 9902TIP3    H253902   4.418   4.967   5.502
 9903TIP3   OH253903   4.910   5.057   5.607
 9903TIP3    H153904   4.869   5.054   5.874
 9903TIP3    H253905   4.903   4.963   5.535
 9904TIP3   OH253906   4.487   4.731   6.459
 9904TIP3    H153907   4.395   4.703   6.477
 9904TIP3    H253908   4.511   4.699   6.198
 9905TIP3   OH253909   5.499   4.783   5.679
 9905TIP3    H153910   5.474   4.761   5.400
 9905TIP3    H253911   5.510   4.881   5.664
 9906TIP3   OH253912   4.542   5.626   6.258
 9906TIP3    H153913   4.633   5.660   6.285
 9906TIP3    H253914   4.518   5.666   6.003
 9907TIP3   OH253915   3.896   5.092   6.075
 9907TIP3    H153916   3.991   5.105   6.102
 9907TIP3    H253917   3.892   5.026   5.856
 9908TIP3   OH253918   3.792   5.603   7.485
 9908TIP3    H153919   3.726   5.539   7.386
 9908TIP3    H253920   3.834   5.548   7.695
 9909TIP3   OH253921   3.877   5.419   8.019
 9909TIP3    H153922   3.849   5.336   8.142
 9909TIP3    H253923   3.919   5.462   8.250
 9910TIP3   OH253924   5.524   4.881   6.885
 9910TIP3    H153925   5.605   4.936   6.873
 9910TIP3    H253926   5.541   4.830   7.134
 9911TIP3   OH253927   5.583   4.725   7.536
 9911TIP3    H153928   5.517   4.665   7.656
 9911TIP3    H253929   5.658   4.715   7.728
 9912TIP3   OH253930   5.644   4.694   6.330
 9912TIP3    H153931   5.576   4.702   6.123
 9912TIP3    H253932   5.605   4.749   6.543
 9913TIP3   OH253933   5.460   4.398   5.865
 9913TIP3    H153934   5.473   4.466   5.661
 9913TIP3    H253935   5.437   4.318   5.706
 9914TIP3   OH253936   5.370   4.547   7.635
 9914TIP3    H153937   5.380   4.460   7.497
 9914TIP3    H253938   5.379   4.523   7.917
 9915TIP3   OH253939   5.400   4.153   5.571
 9915TIP3    H153940   5.444   4.124   5.817
 9915TIP3    H253941   5.308   4.130   5.622
 9916TIP3   OH253942   5.369   4.312   7.233
 9916TIP3    H153943   5.378   4.214   7.248
 9916TIP3    H253944   5.411   4.331   6.978
 9917TIP3   OH253945   5.345   4.044   7.272
 9917TIP3    H153946   5.433   4.018   7.371
 9917TIP3    H253947   5.307   3.959   7.182
 9918TIP3   OH253948   3.962   4.099   8.463
 9918TIP3    H153949   3.961   4.028   8.658
 9918TIP3    H253950   3.982   4.177   8.628
 9919TIP3   OH253951   5.595   4.011   6.207
 9919TIP3    H153952   5.644   3.977   5.973
 9919TIP3    H253953   5.669   4.015   6.396
 9920TIP3   OH253954   5.330   5.517   7.779
 9920TIP3    H153955   5.372   5.472   7.551
 9920TIP3    H253956   5.322   5.606   7.659
 9921TIP3   OH253957   4.045   5.500   8.640
 9921TIP3    H153958   4.022   5.453   8.883
 9921TIP3    H253959   4.133   5.462   8.571
 9922TIP3   OH253960   4.270   5.371   8.337
 9922TIP3    H153961   4.269   5.275   8.310
 9922TIP3    H253962   4.344   5.381   8.523
 9923TIP3   OH253963   4.842   3.965   8.250
 9923TIP3    H153964   4.823   3.956   8.532
 9923TIP3    H253965   4.932   3.928   8.241
 9924TIP3   OH253966   5.321   3.814   8.280
 9924TIP3    H153967   5.364   3.887   8.136
 9924TIP3    H253968   5.226   3.841   8.271
 9925TIP3   OH253969   5.530   3.943   7.782
 9925TIP3    H153970   5.561   3.852   7.752
 9925TIP3    H253971   5.607   3.995   7.689
 9926TIP3   OH253972   4.070   3.848   7.497
 9926TIP3    H153973   3.976   3.828   7.542
 9926TIP3    H253974   4.115   3.762   7.515
 9927TIP3   OH253975   3.971   3.808   6.462
 9927TIP3    H153976   4.011   3.879   6.300
 9927TIP3    H253977   3.909   3.860   6.621
 9928TIP3   OH253978   4.521   3.808   7.740
 9928TIP3    H153979   4.570   3.871   7.578
 9928TIP3    H253980   4.523   3.852   7.998
 9929TIP3   OH253981   5.078   3.861   8.043
 9929TIP3    H153982   5.052   3.864   7.764
 9929TIP3    H253983   5.035   3.778   8.139
 9930TIP3   OH253984   5.208   3.848   6.900
 9930TIP3    H153985   5.140   3.917   6.954
 9930TIP3    H253986   5.167   3.767   7.008
 9931TIP3   OH253987   3.963   5.441   6.798
 9931TIP3    H153988   3.884   5.420   6.642
 9931TIP3    H253989   3.975   5.535   6.717
 9932TIP3   OH253990   4.103   4.060   6.048
 9932TIP3    H153991   4.154   3.992   5.907
 9932TIP3    H253992   4.172   4.094   6.228
 9933TIP3   OH253993   4.624   4.055   6.699
 9933TIP3    H153994   4.681   4.013   6.903
 9933TIP3    H253995   4.610   4.143   6.819
 9934TIP3   OH253996   4.839   5.578   6.264
 9934TIP3    H153997   4.932   5.588   6.183
 9934TIP3    H253998   4.808   5.521   6.039
 9935TIP3   OH253999   5.491   5.475   7.143
 9935TIP3    H154000   5.465   5.399   6.969
 9935TIP3    H254001   5.480   5.550   6.960
 9936TIP3   OH254002   4.074   5.518   5.838
 9936TIP3    H154003   4.041   5.558   6.087
 9936TIP3    H254004   4.137   5.452   5.937
 9937TIP3   OH254005   6.853   4.773   7.680
 9937TIP3    H154006   6.832   4.868   7.623
 9937TIP3    H254007   6.771   4.733   7.593
 9938TIP3   OH254008   7.067   4.977   8.412
 9938TIP3    H154009   6.981   4.982   8.280
 9938TIP3    H254010   7.086   5.069   8.475
 9939TIP3   OH254011   5.732   4.463   7.467
 9939TIP3    H154012   5.741   4.529   7.257
 9939TIP3    H254013   5.708   4.383   7.314
 9940TIP3   OH254014   5.845   4.720   7.962
 9940TIP3    H154015   5.817   4.692   8.229
 9940TIP3    H254016   5.864   4.635   7.836
 9941TIP3   OH254017   6.817   5.508   8.265
 9941TIP3    H154018   6.895   5.464   8.394
 9941TIP3    H254019   6.795   5.579   8.463
 9942TIP3   OH254020   6.931   4.371   9.006
 9942TIP3    H154021   7.006   4.318   9.105
 9942TIP3    H254022   6.903   4.326   8.766
 9943TIP3   OH254023   5.901   4.468   8.316
 9943TIP3    H154024   5.981   4.435   8.187
 9943TIP3    H254025   5.834   4.465   8.106
 9944TIP3   OH254026   6.799   5.018   7.386
 9944TIP3    H154027   6.833   5.032   7.122
 9944TIP3    H254028   6.780   5.112   7.458
 9945TIP3   OH254029   5.767   5.004   6.849
 9945TIP3    H154030   5.792   5.039   6.588
 9945TIP3    H254031   5.818   5.055   7.038
 9946TIP3   OH254032   6.486   3.826   8.505
 9946TIP3    H154033   6.524   3.761   8.685
 9946TIP3    H254034   6.402   3.847   8.643
 9947TIP3   OH254035   7.014   5.350   7.614
 9947TIP3    H154036   7.074   5.271   7.614
 9947TIP3    H254037   7.073   5.418   7.731
 9948TIP3   OH254038   7.159   5.128   7.494
 9948TIP3    H154039   7.147   5.084   7.236
 9948TIP3    H254040   7.142   5.056   7.680
 9949TIP3   OH254041   7.060   4.731   7.170
 9949TIP3    H154042   6.983   4.731   7.356
 9949TIP3    H254043   7.122   4.670   7.305
 9950TIP3   OH254044   6.341   5.099   8.514
 9950TIP3    H154045   6.306   5.123   8.250
 9950TIP3    H254046   6.381   5.013   8.457
 9951TIP3   OH254047   6.980   4.614   6.471
 9951TIP3    H154048   7.006   4.651   6.732
 9951TIP3    H254049   7.014   4.682   6.282
 9952TIP3   OH254050   6.738   5.292   7.434
 9952TIP3    H154051   6.803   5.330   7.623
 9952TIP3    H254052   6.701   5.373   7.317
 9953TIP3   OH254053   7.340   3.818   6.447
 9953TIP3    H154054   7.251   3.821   6.339
 9953TIP3    H254055   7.348   3.904   6.576
 9954TIP3   OH254056   7.449   5.268   5.985
 9954TIP3    H154057   7.486   5.358   6.024
 9954TIP3    H254058   7.532   5.218   6.003
 9955TIP3   OH254059   6.679   5.579   7.062
 9955TIP3    H154060   6.686   5.588   6.768
 9955TIP3    H254061   6.674   5.673   7.143
 9956TIP3   OH254062   6.050   5.482   7.644
 9956TIP3    H154063   6.094   5.431   7.851
 9956TIP3    H254064   5.975   5.423   7.572
 9957TIP3   OH254065   6.980   5.503   6.180
 9957TIP3    H154066   7.045   5.439   6.072
 9957TIP3    H254067   6.999   5.503   6.468
 9958TIP3   OH254068   6.951   5.513   6.978
 9958TIP3    H154069   6.856   5.521   7.050
 9958TIP3    H254070   6.979   5.443   7.164
 9959TIP3   OH254071   6.242   3.865   8.874
 9959TIP3    H154072   6.153   3.863   8.763
 9959TIP3    H254073   6.250   3.957   8.961
 9960TIP3   OH254074   7.092   4.793   5.970
 9960TIP3    H154075   7.073   4.781   5.682
 9960TIP3    H254076   7.190   4.801   5.967
 9961TIP3   OH254077   6.676   4.098   6.054
 9961TIP3    H154078   6.610   4.106   6.261
 9961TIP3    H254079   6.621   4.078   5.823
 9962TIP3   OH254080   6.373   4.186   5.817
 9962TIP3    H154081   6.310   4.141   5.997
 9962TIP3    H254082   6.309   4.245   5.685
 9963TIP3   OH254083   6.463   4.222   7.866
 9963TIP3    H154084   6.383   4.187   7.989
 9963TIP3    H254085   6.531   4.156   7.932
 9964TIP3   OH254086   6.208   4.388   6.243
 9964TIP3    H154087   6.139   4.382   6.036
 9964TIP3    H254088   6.268   4.451   6.120
 9965TIP3   OH254089   6.684   4.425   8.328
 9965TIP3    H154090   6.654   4.335   8.292
 9965TIP3    H254091   6.650   4.451   8.586
 9966TIP3   OH254092   6.951   4.134   6.303
 9966TIP3    H154093   6.859   4.164   6.252
 9966TIP3    H254094   6.984   4.209   6.471
 9967TIP3   OH254095   7.018   4.358   6.636
 9967TIP3    H154096   7.097   4.377   6.801
 9967TIP3    H254097   7.002   4.445   6.510
 9968TIP3   OH254098   6.737   5.073   6.282
 9968TIP3    H154099   6.728   5.151   6.459
 9968TIP3    H254100   6.710   5.000   6.453
 9969TIP3   OH254101   7.499   4.395   6.567
 9969TIP3    H154102   7.437   4.372   6.351
 9969TIP3    H254103   7.514   4.489   6.507
 9970TIP3   OH254104   7.284   5.296   6.714
 9970TIP3    H154105   7.251   5.206   6.762
 9970TIP3    H254106   7.335   5.286   6.465
 9971TIP3   OH254107   6.246   5.209   7.806
 9971TIP3    H154108   6.327   5.261   7.788
 9971TIP3    H254109   6.234   5.184   7.527
 9972TIP3   OH254110   5.903   4.690   6.045
 9972TIP3    H154111   5.952   4.746   6.240
 9972TIP3    H254112   5.810   4.703   6.135
 9973TIP3   OH254113   6.302   5.497   7.347
 9973TIP3    H154114   6.208   5.505   7.422
 9973TIP3    H254115   6.343   5.564   7.521
 9974TIP3   OH254116   7.103   5.115   6.108
 9974TIP3    H154117   7.117   5.060   6.351
 9974TIP3    H254118   7.012   5.089   6.048
 9975TIP3   OH254119   7.546   5.515   6.207
 9975TIP3    H154120   7.565   5.593   6.036
 9975TIP3    H254121   7.463   5.547   6.324
 9976TIP3   OH254122   7.176   4.964   6.795
 9976TIP3    H154123   7.140   4.876   6.864
 9976TIP3    H254124   7.272   4.945   6.768
 9977TIP3   OH254125   6.486   5.211   5.655
 9977TIP3    H154126   6.472   5.180   5.382
 9977TIP3    H254127   6.437   5.144   5.805
 9978TIP3   OH254128   6.338   5.116   6.423
 9978TIP3    H154129   6.411   5.059   6.516
 9978TIP3    H254130   6.367   5.205   6.513
 9979TIP3   OH254131   6.035   4.865   6.489
 9979TIP3    H154132   5.986   4.870   6.738
 9979TIP3    H254133   6.125   4.877   6.585
 9980TIP3   OH254134   6.669   5.320   6.618
 9980TIP3    H154135   6.578   5.336   6.726
 9980TIP3    H254136   6.690   5.405   6.495
 9981TIP3   OH254137   6.397   5.377   6.630
 9981TIP3    H154138   6.405   5.450   6.435
 9981TIP3    H254139   6.357   5.428   6.852
 9982TIP3   OH254140   6.196   4.087   6.405
 9982TIP3    H154141   6.176   4.180   6.468
 9982TIP3    H254142   6.257   4.067   6.618
 9983TIP3   OH254143   7.146   4.560   8.370
 9983TIP3    H154144   7.068   4.542   8.532
 9983TIP3    H254145   7.212   4.503   8.502
 9984TIP3   OH254146   6.063   5.134   6.111
 9984TIP3    H154147   6.138   5.161   6.276
 9984TIP3    H254148   6.106   5.061   5.967
 9985TIP3   OH254149   5.933   4.407   5.889
 9985TIP3    H154150   5.948   4.488   6.045
 9985TIP3    H254151   5.848   4.376   5.991
 9986TIP3   OH254152   5.875   5.291   7.467
 9986TIP3    H154153   5.795   5.323   7.332
 9986TIP3    H254154   5.926   5.269   7.227
 9987TIP3   OH254155   6.686   5.420   5.679
 9987TIP3    H154156   6.643   5.332   5.718
 9987TIP3    H254157   6.772   5.397   5.553
 9988TIP3   OH254158   7.152   5.351   5.736
 9988TIP3    H154159   7.166   5.272   5.904
 9988TIP3    H254160   7.233   5.351   5.574
 9989TIP3   OH254161   6.199   4.947   5.589
 9989TIP3    H154162   6.166   4.867   5.718
 9989TIP3    H254163   6.290   4.924   5.508
 9990TIP3   OH254164   6.799   5.064   5.520
 9990TIP3    H154165   6.768   5.059   5.802
 9990TIP3    H254166   6.790   4.970   5.454
 9991TIP3   OH254167   6.482   4.553   5.865
 9991TIP3    H154168   6.409   4.554   5.670
 9991TIP3    H254169   6.550   4.600   5.715
 9992TIP3   OH254170   7.371   4.789   5.703
 9992TIP3    H154171   7.349   4.766   5.424
 9992TIP3    H254172   7.380   4.887   5.688
 9993TIP3   OH254173   6.434   5.607   6.207
 9993TIP3    H154174   6.524   5.618   6.309
 9993TIP3    H254175   6.435   5.671   5.985
 9994TIP3   OH254176   5.788   5.086   6.048
 9994TIP3    H154177   5.885   5.094   6.051
 9994TIP3    H254178   5.774   5.034   5.799
 9995TIP3   OH254179   5.704   5.577   7.524
 9995TIP3    H154180   5.622   5.543   7.398
 9995TIP3    H254181   5.703   5.535   7.782
 9996TIP3   OH254182   7.440   4.904   6.867
 9996TIP3    H154183   7.523   4.945   6.945
 9996TIP3    H254184   7.439   4.824   7.041
 9997TIP3   OH254185   7.475   4.711   7.437
 9997TIP3    H154186   7.392   4.661   7.497
 9997TIP3    H254187   7.498   4.738   7.707
 9998TIP3   OH254188   7.390   4.959   9.054
 9998TIP3    H154189   7.471   4.907   9.123
 9998TIP3    H254190   7.421   5.050   9.030
 9999TIP3   OH254191   7.497   4.683   6.399
 9999TIP3    H154192   7.452   4.708   6.150
 9999TIP3    H254193   7.503   4.770   6.528
10000TIP3   OH254194   7.323   4.388   5.889
10000TIP3    H154195   7.345   4.458   5.700
10000TIP3    H254196   7.295   4.315   5.712
10001TIP3   OH254197   7.250   4.558   7.593
10001TIP3    H154198   7.243   4.474   7.437
10001TIP3    H254199   7.197   4.540   7.833
10002TIP3   OH254200   7.256   4.147   5.565
10002TIP3    H154201   7.327   4.114   5.733
10002TIP3    H254202   7.176   4.135   5.724
10003TIP3   OH254203   7.247   4.341   7.065
10003TIP3    H154204   7.248   4.259   7.218
10003TIP3    H254205   7.337   4.337   6.954
10004TIP3   OH254206   7.273   4.069   7.203
10004TIP3    H154207   7.285   4.027   7.470
10004TIP3    H254208   7.176   4.077   7.197
10005TIP3   OH254209   7.517   4.041   6.159
10005TIP3    H154210   7.543   3.962   6.006
10005TIP3    H254211   7.564   4.113   6.024
10006TIP3   OH254212   7.190   5.548   7.728
10006TIP3    H154213   7.248   5.535   7.497
10006TIP3    H254214   7.244   5.607   7.896
10007TIP3   OH254215   6.344   5.379   8.613
10007TIP3    H154216   6.351   5.282   8.607
10007TIP3    H254217   6.343   5.396   8.898
10008TIP3   OH254218   7.339   3.922   7.878
10008TIP3    H154219   7.405   3.852   7.836
10008TIP3    H254220   7.392   3.981   8.043
10009TIP3   OH254221   6.497   3.858   7.611
10009TIP3    H154222   6.587   3.891   7.683
10009TIP3    H254223   6.453   3.863   7.869
10010TIP3   OH254224   5.808   5.406   6.747
10010TIP3    H154225   5.714   5.419   6.690
10010TIP3    H254226   5.841   5.494   6.669
10011TIP3   OH254227   5.973   4.053   5.910
10011TIP3    H154228   6.030   3.985   5.790
10011TIP3    H254229   6.006   4.058   6.183
10012TIP3   OH254230   6.719   5.583   6.279
10012TIP3    H154231   6.815   5.568   6.228
10012TIP3    H254232   6.685   5.530   6.051
10013TIP3   OH254233   7.382   5.500   7.176
10013TIP3    H154234   7.348   5.418   7.053
10013TIP3    H254235   7.390   5.554   6.933
10014TIP3   OH254236   5.967   5.505   5.850
10014TIP3    H154237   5.947   5.539   6.117
10014TIP3    H254238   6.046   5.451   5.904
10015TIP3   OH254239   7.588   4.453   7.455
10015TIP3    H154240   7.564   4.547   7.452
10015TIP3    H254241   7.535   4.419   7.236
10016TIP3   OH254242   7.615   5.262   7.899
10016TIP3    H154243   7.656   5.178   7.977
10016TIP3    H254244   7.531   5.236   7.770
10017TIP3   OH254245   7.542   4.133   7.842
10017TIP3    H154246   7.621   4.175   7.956
10017TIP3    H254247   7.560   4.130   7.557
10018TIP3   OH254248   7.479   5.690   7.692
10018TIP3    H154249   7.452   5.629   7.479
10018TIP3    H254250   7.489   5.624   7.908
10019TIP3   OH254251   7.560   5.508   8.199
10019TIP3    H154252   7.577   5.421   8.073
10019TIP3    H254253   7.652   5.537   8.235
10020TIP3   OH254254   7.572   4.770   9.051
10020TIP3    H154255   7.536   4.698   8.889
10020TIP3    H254256   7.640   4.717   9.189
10021TIP3   OH254257   7.531   4.071   6.966
10021TIP3    H154258   7.436   4.070   7.050
10021TIP3    H254259   7.524   4.058   6.675
10022TIP3   OH254260   1.223   6.653   7.683
10022TIP3    H154261   1.228   6.749   7.707
10022TIP3    H254262   1.152   6.645   7.485
10023TIP3   OH254263   1.442   6.918   8.295
10023TIP3    H154264   1.419   6.828   8.385
10023TIP3    H254265   1.516   6.937   8.475
10024TIP3   OH254266   0.141   6.334   7.167
10024TIP3    H154267   0.159   6.394   7.395
10024TIP3    H254268   0.044   6.324   7.197
10025TIP3   OH254269   0.177   6.515   7.794
10025TIP3    H154270   0.208   6.442   7.974
10025TIP3    H254271   0.189   6.592   7.968
10026TIP3   OH254272   1.290   6.255   8.985
10026TIP3    H154273   1.285   6.156   9.024
10026TIP3    H254274   1.210   6.266   8.829
10027TIP3   OH254275   0.566   6.074   8.118
10027TIP3    H154276   0.530   6.154   7.995
10027TIP3    H254277   0.524   6.005   7.962
10028TIP3   OH254278   1.368   6.096   7.482
10028TIP3    H154279   1.425   6.063   7.695
10028TIP3    H254280   1.416   6.179   7.428
10029TIP3   OH254281   0.240   6.294   8.226
10029TIP3    H154282   0.301   6.273   8.442
10029TIP3    H254283   0.282   6.251   7.992
10030TIP3   OH254284   1.163   6.902   7.362
10030TIP3    H154285   1.144   6.898   7.080
10030TIP3    H254286   1.184   6.996   7.404
10031TIP3   OH254287   1.509   6.058   8.157
10031TIP3    H154288   1.428   6.030   8.295
10031TIP3    H254289   1.549   5.972   8.097
10032TIP3   OH254290   0.416   6.147   8.772
10032TIP3    H154291   0.446   6.113   9.030
10032TIP3    H254292   0.476   6.096   8.598
10033TIP3   OH254293   0.186   6.919   6.837
10033TIP3    H154294   0.162   6.998   6.678
10033TIP3    H254295   0.184   6.955   7.113
10034TIP3   OH254296   1.476   7.018   7.503
10034TIP3    H154297   1.446   6.945   7.332
10034TIP3    H254298   1.456   6.985   7.773
10035TIP3   OH254299   1.090   6.596   6.960
10035TIP3    H154300   1.019   6.658   6.876
10035TIP3    H254301   1.161   6.618   6.771
10036TIP3   OH254302   1.055   6.488   6.006
10036TIP3    H154303   1.121   6.534   6.174
10036TIP3    H254304   1.083   6.396   6.045
10037TIP3   OH254305   1.448   6.562   7.194
10037TIP3    H154306   1.379   6.602   7.365
10037TIP3    H254307   1.513   6.529   7.389
10038TIP3   OH254308   0.628   6.655   7.722
10038TIP3    H154309   0.558   6.644   7.515
10038TIP3    H254310   0.662   6.565   7.722
10039TIP3   OH254311   1.301   6.562   6.462
10039TIP3    H154312   1.354   6.546   6.705
10039TIP3    H254313   1.371   6.585   6.264
10040TIP3   OH254314   1.098   7.276   7.536
10040TIP3    H154315   1.049   7.239   7.761
10040TIP3    H254316   1.035   7.347   7.449
10041TIP3   OH254317   1.693   5.686   6.588
10041TIP3    H154318   1.596   5.699   6.609
10041TIP3    H254319   1.724   5.770   6.465
10042TIP3   OH254320   0.492   6.563   7.092
10042TIP3    H154321   0.433   6.626   6.951
10042TIP3    H254322   0.445   6.479   7.074
10043TIP3   OH254323   1.795   7.128   6.048
10043TIP3    H154324   1.823   7.222   6.060
10043TIP3    H254325   1.880   7.081   6.099
10044TIP3   OH254326   0.078   6.996   8.637
10044TIP3    H154327   0.154   7.043   8.742
10044TIP3    H254328   0.008   7.042   8.784
10045TIP3   OH254329   1.337   7.393   6.231
10045TIP3    H154330   1.411   7.334   6.147
10045TIP3    H254331   1.329   7.371   6.519
10046TIP3   OH254332   1.283   7.369   6.993
10046TIP3    H154333   1.192   7.369   7.098
10046TIP3    H254334   1.325   7.307   7.179
10047TIP3   OH254335   1.491   6.661   5.985
10047TIP3    H154336   1.461   6.684   5.712
10047TIP3    H254337   1.588   6.674   5.967
10048TIP3   OH254338   1.029   6.022   5.949
10048TIP3    H154339   0.998   6.016   6.228
10048TIP3    H254340   0.981   5.945   5.847
10049TIP3   OH254341   0.569   6.310   7.638
10049TIP3    H154342   0.485   6.279   7.518
10049TIP3    H254343   0.630   6.286   7.422
10050TIP3   OH254344   1.144   6.362   7.239
10050TIP3    H154345   1.123   6.452   7.125
10050TIP3    H254346   1.213   6.334   7.050
10051TIP3   OH254347   1.164   6.381   8.160
10051TIP3    H154348   1.197   6.450   7.977
10051TIP3    H254349   1.198   6.304   8.022
10052TIP3   OH254350   0.652   6.045   5.733
10052TIP3    H154351   0.615   5.995   5.961
10052TIP3    H254352   0.584   6.109   5.667
10053TIP3   OH254353   0.062   6.010   7.968
10053TIP3    H154354   0.140   6.008   8.145
10053TIP3    H254355   0.095   6.035   7.707
10054TIP3   OH254356   0.090   6.155   6.558
10054TIP3    H154357   0.127   6.187   6.306
10054TIP3    H254358   0.130   6.219   6.750
10055TIP3   OH254359   0.863   6.079   7.944
10055TIP3    H154360   0.766   6.062   7.959
10055TIP3    H254361   0.883   6.039   8.205
10056TIP3   OH254362   0.327   6.194   7.527
10056TIP3    H154363   0.260   6.224   7.332
10056TIP3    H254364   0.343   6.100   7.446
10057TIP3   OH254365   0.666   6.219   6.921
10057TIP3    H154366   0.760   6.213   6.849
10057TIP3    H254367   0.634   6.272   6.690
10058TIP3   OH254368   0.598   6.338   6.231
10058TIP3    H154369   0.536   6.287   6.072
10058TIP3    H254370   0.661   6.371   6.024
10059TIP3   OH254371   0.429   5.954   7.449
10059TIP3    H154372   0.388   5.869   7.524
10059TIP3    H254373   0.514   5.926   7.344
10060TIP3   OH254374   0.902   6.770   6.801
10060TIP3    H154375   0.830   6.722   6.663
10060TIP3    H254376   0.851   6.823   6.996
10061TIP3   OH254377   1.272   6.081   6.213
10061TIP3    H154378   1.190   6.082   6.051
10061TIP3    H254379   1.280   6.175   6.288
10062TIP3   OH254380   1.319   6.301   6.639
10062TIP3    H154381   1.397   6.265   6.771
10062TIP3    H254382   1.358   6.363   6.447
10063TIP3   OH254383   1.070   6.931   6.405
10063TIP3    H154384   1.032   7.019   6.471
10063TIP3    H254385   1.012   6.873   6.567
10064TIP3   OH254386   1.826   6.270   6.621
10064TIP3    H154387   1.816   6.239   6.345
10064TIP3    H254388   1.845   6.365   6.576
10065TIP3   OH254389   1.620   7.158   6.717
10065TIP3    H154390   1.585   7.090   6.894
10065TIP3    H254391   1.674   7.111   6.522
10066TIP3   OH254392   1.386   6.643   8.715
10066TIP3    H154393   1.304   6.697   8.739
10066TIP3    H254394   1.406   6.632   8.997
10067TIP3   OH254395   0.213   6.568   6.087
10067TIP3    H154396   0.275   6.614   6.270
10067TIP3    H254397   0.134   6.559   6.255
10068TIP3   OH254398   0.745   6.895   7.377
10068TIP3    H154399   0.755   6.964   7.575
10068TIP3    H254400   0.691   6.827   7.515
10069TIP3   OH254401   1.444   6.967   6.084
10069TIP3    H154402   1.458   6.921   6.342
10069TIP3    H254403   1.352   6.941   6.036
10070TIP3   OH254404   1.871   7.387   6.129
10070TIP3    H154405   1.936   7.458   6.165
10070TIP3    H254406   1.786   7.435   6.180
10071TIP3   OH254407   1.491   6.830   6.807
10071TIP3    H154408   1.479   6.733   6.807
10071TIP3    H254409   1.588   6.835   6.810
10072TIP3   OH254410   0.822   7.081   5.601
10072TIP3    H154411   0.811   7.030   5.358
10072TIP3    H254412   0.773   7.026   5.784
10073TIP3   OH254413   0.354   6.721   6.603
10073TIP3    H154414   0.281   6.776   6.711
10073TIP3    H254415   0.390   6.779   6.396
10074TIP3   OH254416   1.221   5.979   6.933
10074TIP3    H154417   1.242   6.011   6.660
10074TIP3    H254418   1.276   6.040   7.104
10075TIP3   OH254419   0.985   7.173   6.624
10075TIP3    H154420   0.939   7.218   6.840
10075TIP3    H254421   1.043   7.244   6.531
10076TIP3   OH254422   0.947   6.154   7.143
10076TIP3    H154423   1.005   6.232   7.170
10076TIP3    H254424   0.928   6.127   7.422
10077TIP3   OH254425   1.036   5.837   7.299
10077TIP3    H154426   0.998   5.895   7.497
10077TIP3    H254427   1.105   5.898   7.185
10078TIP3   OH254428   0.597   5.964   6.492
10078TIP3    H154429   0.588   6.049   6.636
10078TIP3    H254430   0.689   5.940   6.552
10079TIP3   OH254431   1.456   6.342   8.361
10079TIP3    H154432   1.416   6.431   8.343
10079TIP3    H254433   1.398   6.299   8.562
10080TIP3   OH254434   0.216   6.279   5.937
10080TIP3    H154435   0.246   6.367   6.018
10080TIP3    H254436   0.179   6.297   5.676
10081TIP3   OH254437   0.258   5.765   8.295
10081TIP3    H154438   0.272   5.758   8.007
10081TIP3    H254439   0.289   5.677   8.376
10082TIP3   OH254440   0.225   7.104   7.398
10082TIP3    H154441   0.215   7.158   7.644
10082TIP3    H254442   0.191   7.169   7.206
10083TIP3   OH254443   1.036   7.256   5.688
10083TIP3    H154444   0.977   7.178   5.691
10083TIP3    H254445   1.111   7.225   5.520
10084TIP3   OH254446   1.509   7.239   5.811
10084TIP3    H154447   1.521   7.150   5.925
10084TIP3    H254448   1.574   7.241   5.592
10085TIP3   OH254449   0.581   6.843   5.715
10085TIP3    H154450   0.582   6.763   5.880
10085TIP3    H254451   0.670   6.833   5.598
10086TIP3   OH254452   1.140   6.939   5.583
10086TIP3    H154453   1.104   6.932   5.856
10086TIP3    H254454   1.139   6.843   5.511
10087TIP3   OH254455   0.687   6.627   6.381
10087TIP3    H154456   0.636   6.563   6.543
10087TIP3    H254457   0.737   6.567   6.204
10088TIP3   OH254458   0.792   6.463   5.787
10088TIP3    H154459   0.806   6.508   5.526
10088TIP3    H254460   0.885   6.460   5.880
10089TIP3   OH254461   1.747   6.691   5.655
10089TIP3    H154462   1.710   6.659   5.400
10089TIP3    H254463   1.732   6.788   5.631
10090TIP3   OH254464   0.786   7.511   6.171
10090TIP3    H154465   0.858   7.501   6.363
10090TIP3    H254466   0.812   7.591   6.027
10091TIP3   OH254467   0.162   7.022   6.090
10091TIP3    H154468   0.232   6.957   6.132
10091TIP3    H254469   0.122   6.977   5.862
10092TIP3   OH254470   0.059   7.466   7.341
10092TIP3    H154471  -0.027   7.506   7.398
10092TIP3    H254472   0.110   7.501   7.572
10093TIP3   OH254473   0.144   7.265   8.004
10093TIP3    H154474   0.051   7.280   8.076
10093TIP3    H254475   0.191   7.346   8.073
10094TIP3   OH254476   1.780   6.775   6.825
10094TIP3    H154477   1.870   6.813   6.843
10094TIP3    H254478   1.788   6.701   7.017
10095TIP3   OH254479   1.813   6.564   7.401
10095TIP3    H154480   1.737   6.522   7.542
10095TIP3    H254481   1.868   6.592   7.629
10096TIP3   OH254482   1.866   6.538   6.303
10096TIP3    H154483   1.797   6.538   6.096
10096TIP3    H254484   1.841   6.620   6.441
10097TIP3   OH254485   1.601   6.283   5.967
10097TIP3    H154486   1.686   6.324   5.913
10097TIP3    H254487   1.607   6.202   5.805
10098TIP3   OH254488   1.615   6.420   7.728
10098TIP3    H154489   1.587   6.349   7.542
10098TIP3    H254490   1.566   6.393   7.971
10099TIP3   OH254491   1.618   6.033   5.601
10099TIP3    H154492   1.662   5.990   5.829
10099TIP3    H254493   1.526   6.006   5.634
10100TIP3   OH254494   1.584   6.227   7.185
10100TIP3    H154495   1.591   6.128   7.179
10100TIP3    H254496   1.643   6.245   6.960
10101TIP3   OH254497   1.616   5.962   7.143
10101TIP3    H154498   1.639   5.911   7.380
10101TIP3    H254499   1.566   5.892   6.999
10102TIP3   OH254500   0.198   5.990   8.700
10102TIP3    H154501   0.220   5.904   8.568
10102TIP3    H254502   0.283   6.039   8.691
10103TIP3   OH254503   0.120   6.390   8.964
10103TIP3    H154504   0.146   6.300   8.889
10103TIP3    H254505   0.080   6.428   8.727
10104TIP3   OH254506   1.811   5.924   6.135
10104TIP3    H154507   1.865   5.866   5.955
10104TIP3    H254508   1.834   6.012   6.018
10105TIP3   OH254509   0.111   5.932   6.999
10105TIP3    H154510   0.019   5.918   7.095
10105TIP3    H254511   0.093   6.011   6.834
10106TIP3   OH254512   1.501   7.392   7.539
10106TIP3    H154513   1.588   7.375   7.419
10106TIP3    H254514   1.521   7.430   7.800
10107TIP3   OH254515   1.568   5.770   8.349
10107TIP3    H154516   1.645   5.765   8.169
10107TIP3    H254517   1.516   5.690   8.292
10108TIP3   OH254518   1.751   5.800   7.776
10108TIP3    H154519   1.812   5.732   7.659
10108TIP3    H254520   1.810   5.877   7.764
10109TIP3   OH254521   0.324   5.704   7.545
10109TIP3    H154522   0.240   5.681   7.401
10109TIP3    H254523   0.367   5.615   7.563
10110TIP3   OH254524   0.215   5.710   6.501
10110TIP3    H154525   0.213   5.759   6.252
10110TIP3    H254526   0.177   5.775   6.693
10111TIP3   OH254527   0.742   5.689   7.752
10111TIP3    H154528   0.829   5.689   7.623
10111TIP3    H254529   0.763   5.730   8.010
10112TIP3   OH254530   1.454   5.752   6.930
10112TIP3    H154531   1.377   5.809   6.984
10112TIP3    H254532   1.417   5.664   6.996
10113TIP3   OH254533   0.157   7.281   6.816
10113TIP3    H154534   0.080   7.322   6.687
10113TIP3    H254535   0.172   7.349   7.026
10114TIP3   OH254536   0.318   5.915   5.949
10114TIP3    H154537   0.390   5.863   5.829
10114TIP3    H254538   0.349   5.922   6.225
10115TIP3   OH254539   0.895   5.947   6.627
10115TIP3    H154540   0.938   5.888   6.816
10115TIP3    H254541   0.903   6.031   6.780
10116TIP3   OH254542   1.066   7.426   6.333
10116TIP3    H154543   1.158   7.424   6.234
10116TIP3    H254544   1.020   7.389   6.102
10117TIP3   OH254545   1.728   7.374   7.041
10117TIP3    H154546   1.695   7.288   6.933
10117TIP3    H254547   1.717   7.429   6.801
10118TIP3   OH254548   0.312   7.393   5.808
10118TIP3    H154549   0.260   7.430   6.030
10118TIP3    H254550   0.384   7.350   5.946
10119TIP3   OH254551   3.108   6.662   7.650
10119TIP3    H154552   3.077   6.755   7.647
10119TIP3    H254553   3.055   6.628   7.428
10120TIP3   OH254554   3.320   6.896   8.265
10120TIP3    H154555   3.291   6.815   8.406
10120TIP3    H254556   3.347   6.953   8.487
10121TIP3   OH254557   1.978   6.319   7.425
10121TIP3    H154558   1.966   6.414   7.473
10121TIP3    H254559   1.914   6.305   7.206
10122TIP3   OH254560   1.994   6.590   8.052
10122TIP3    H154561   2.045   6.529   8.217
10122TIP3    H254562   2.043   6.671   8.106
10123TIP3   OH254563   3.056   7.343   8.361
10123TIP3    H154564   3.137   7.314   8.226
10123TIP3    H254565   3.093   7.352   8.637
10124TIP3   OH254566   3.161   6.278   9.024
10124TIP3    H154567   3.092   6.216   9.096
10124TIP3    H254568   3.154   6.283   8.733
10125TIP3   OH254569   2.487   6.066   8.052
10125TIP3    H154570   2.494   6.150   7.899
10125TIP3    H254571   2.412   6.024   7.914
10126TIP3   OH254572   3.220   6.073   7.605
10126TIP3    H154573   3.258   6.042   7.860
10126TIP3    H254574   3.262   6.159   7.578
10127TIP3   OH254575   2.067   6.326   8.424
10127TIP3    H154576   2.139   6.286   8.592
10127TIP3    H254577   2.104   6.304   8.163
10128TIP3   OH254578   2.578   6.458   8.163
10128TIP3    H154579   2.660   6.419   8.265
10128TIP3    H254580   2.534   6.382   8.034
10129TIP3   OH254581   3.016   6.906   7.308
10129TIP3    H154582   3.005   6.910   7.017
10129TIP3    H254583   2.999   7.001   7.371
10130TIP3   OH254584   3.390   6.010   8.247
10130TIP3    H154585   3.474   5.968   8.178
10130TIP3    H254586   3.419   6.083   8.418
10131TIP3   OH254587   2.274   6.174   8.631
10131TIP3    H154588   2.295   6.122   8.871
10131TIP3    H254589   2.351   6.160   8.460
10132TIP3   OH254590   2.041   6.866   6.843
10132TIP3    H154591   2.040   6.927   6.612
10132TIP3    H254592   2.068   6.927   7.056
10133TIP3   OH254593   3.229   7.244   7.731
10133TIP3    H154594   3.267   7.156   7.677
10133TIP3    H254595   3.303   7.306   7.671
10134TIP3   OH254596   3.375   6.991   7.443
10134TIP3    H154597   3.343   6.930   7.236
10134TIP3    H254598   3.361   6.942   7.695
10135TIP3   OH254599   2.967   6.588   6.969
10135TIP3    H154600   2.905   6.661   6.900
10135TIP3    H254601   3.044   6.607   6.795
10136TIP3   OH254602   2.979   6.464   5.994
10136TIP3    H154603   3.030   6.508   6.210
10136TIP3    H254604   2.993   6.373   6.081
10137TIP3   OH254605   3.338   6.586   7.269
10137TIP3    H154606   3.263   6.609   7.449
10137TIP3    H254607   3.397   6.538   7.449
10138TIP3   OH254608   2.476   6.659   7.755
10138TIP3    H154609   2.438   6.603   7.545
10138TIP3    H254610   2.507   6.592   7.950
10139TIP3   OH254611   3.186   6.557   6.552
10139TIP3    H154612   3.249   6.567   6.774
10139TIP3    H254613   3.241   6.590   6.324
10140TIP3   OH254614   2.959   7.176   7.458
10140TIP3    H154615   3.017   7.222   7.650
10140TIP3    H254616   2.924   7.248   7.290
10141TIP3   OH254617   3.582   5.687   6.570
10141TIP3    H154618   3.490   5.698   6.666
10141TIP3    H254619   3.609   5.779   6.513
10142TIP3   OH254620   2.351   6.549   7.077
10142TIP3    H154621   2.329   6.635   6.948
10142TIP3    H254622   2.304   6.485   6.915
10143TIP3   OH254623   3.679   7.128   5.985
10143TIP3    H154624   3.701   7.222   6.024
10143TIP3    H254625   3.763   7.084   6.057
10144TIP3   OH254626   1.986   7.108   8.616
10144TIP3    H154627   2.074   7.115   8.736
10144TIP3    H254628   1.926   7.146   8.817
10145TIP3   OH254629   2.937   7.490   7.053
10145TIP3    H154630   2.940   7.516   6.771
10145TIP3    H254631   2.887   7.565   7.170
10146TIP3   OH254632   2.313   7.328   7.647
10146TIP3    H154633   2.351   7.395   7.830
10146TIP3    H254634   2.275   7.265   7.836
10147TIP3   OH254635   3.197   7.381   6.249
10147TIP3    H154636   3.276   7.329   6.168
10147TIP3    H254637   3.193   7.358   6.540
10148TIP3   OH254638   3.174   7.357   7.032
10148TIP3    H154639   3.092   7.403   7.101
10148TIP3    H254640   3.190   7.304   7.275
10149TIP3   OH254641   3.338   6.657   5.985
10149TIP3    H154642   3.328   6.671   5.694
10149TIP3    H254643   3.432   6.680   6.015
10150TIP3   OH254644   2.911   6.019   6.027
10150TIP3    H154645   2.886   5.995   6.300
10150TIP3    H254646   2.860   5.948   5.892
10151TIP3   OH254647   2.464   6.284   7.620
10151TIP3    H154648   2.373   6.257   7.548
10151TIP3    H254649   2.507   6.289   7.353
10152TIP3   OH254650   3.037   6.360   7.272
10152TIP3    H154651   3.006   6.444   7.143
10152TIP3    H254652   3.097   6.329   7.062
10153TIP3   OH254653   3.139   6.330   8.169
10153TIP3    H154654   3.111   6.410   8.019
10153TIP3    H254655   3.107   6.261   7.992
10154TIP3   OH254656   2.510   6.020   5.691
10154TIP3    H154657   2.482   5.981   5.946
10154TIP3    H254658   2.436   6.079   5.619
10155TIP3   OH254659   1.938   6.014   7.932
10155TIP3    H154660   1.990   6.095   7.965
10155TIP3    H254661   1.960   5.992   7.653
10156TIP3   OH254662   2.029   6.071   6.576
10156TIP3    H154663   2.072   6.103   6.333
10156TIP3    H254664   1.955   6.135   6.594
10157TIP3   OH254665   2.763   6.056   7.938
10157TIP3    H154666   2.666   6.045   7.956
10157TIP3    H254667   2.784   6.056   8.223
10158TIP3   OH254668   2.192   6.171   7.596
10158TIP3    H154669   2.129   6.224   7.437
10158TIP3    H254670   2.186   6.081   7.488
10159TIP3   OH254671   2.563   6.238   6.897
10159TIP3    H154672   2.659   6.230   6.858
10159TIP3    H254673   2.536   6.296   6.678
10160TIP3   OH254674   2.479   6.351   6.204
10160TIP3    H154675   2.429   6.293   6.024
10160TIP3    H254676   2.548   6.384   6.015
10161TIP3   OH254677   2.328   5.926   7.470
10161TIP3    H154678   2.373   5.839   7.464
10161TIP3    H254679   2.360   5.963   7.221
10162TIP3   OH254680   2.796   6.790   6.795
10162TIP3    H154681   2.718   6.746   6.672
10162TIP3    H254682   2.752   6.823   7.044
10163TIP3   OH254683   3.168   6.077   6.204
10163TIP3    H154684   3.070   6.081   6.174
10163TIP3    H254685   3.188   6.162   6.336
10164TIP3   OH254686   3.206   6.295   6.636
10164TIP3    H154687   3.278   6.258   6.804
10164TIP3    H254688   3.251   6.373   6.525
10165TIP3   OH254689   2.976   6.932   6.405
10165TIP3    H154690   2.930   7.015   6.492
10165TIP3    H254691   2.915   6.865   6.510
10166TIP3   OH254692   3.704   6.274   6.639
10166TIP3    H154693   3.651   6.266   6.393
10166TIP3    H254694   3.729   6.369   6.627
10167TIP3   OH254695   3.532   7.138   6.711
10167TIP3    H154696   3.496   7.069   6.888
10167TIP3    H254697   3.566   7.089   6.483
10168TIP3   OH254698   3.300   6.666   8.766
10168TIP3    H154699   3.264   6.628   9.012
10168TIP3    H254700   3.379   6.611   8.724
10169TIP3   OH254701   2.530   7.102   7.719
10169TIP3    H154702   2.558   7.186   7.593
10169TIP3    H254703   2.437   7.097   7.632
10170TIP3   OH254704   2.152   6.571   6.066
10170TIP3    H154705   2.195   6.628   6.270
10170TIP3    H254706   2.057   6.574   6.129
10171TIP3   OH254707   2.643   6.853   7.407
10171TIP3    H154708   2.609   6.928   7.554
10171TIP3    H254709   2.605   6.778   7.554
10172TIP3   OH254710   2.574   7.353   7.341
10172TIP3    H154711   2.476   7.349   7.320
10172TIP3    H254712   2.583   7.438   7.488
10173TIP3   OH254713   3.319   6.979   6.117
10173TIP3    H154714   3.322   6.940   6.387
10173TIP3    H254715   3.232   6.948   6.033
10174TIP3   OH254716   3.746   7.394   6.168
10174TIP3    H154717   3.796   7.479   6.192
10174TIP3    H254718   3.653   7.427   6.183
10175TIP3   OH254719   3.385   6.821   6.780
10175TIP3    H154720   3.366   6.738   6.921
10175TIP3    H254721   3.482   6.821   6.777
10176TIP3   OH254722   2.722   7.075   5.622
10176TIP3    H154723   2.695   7.008   5.430
10176TIP3    H254724   2.656   7.064   5.835
10177TIP3   OH254725   2.598   7.028   6.378
10177TIP3    H154726   2.658   6.985   6.564
10177TIP3    H254727   2.606   7.121   6.468
10178TIP3   OH254728   2.274   6.750   6.561
10178TIP3    H154729   2.190   6.790   6.654
10178TIP3    H254730   2.317   6.827   6.435
10179TIP3   OH254731   3.099   5.969   6.918
10179TIP3    H154732   3.149   6.001   6.687
10179TIP3    H254733   3.153   5.995   7.149
10180TIP3   OH254734   2.866   7.169   6.657
10180TIP3    H154735   2.778   7.203   6.726
10180TIP3    H254736   2.917   7.250   6.618
10181TIP3   OH254737   2.818   6.161   7.173
10181TIP3    H154738   2.888   6.227   7.224
10181TIP3    H254739   2.804   6.122   7.437
10182TIP3   OH254740   2.902   5.844   7.329
10182TIP3    H154741   2.891   5.898   7.569
10182TIP3    H254742   2.972   5.896   7.194
10183TIP3   OH254743   2.619   7.288   6.579
10183TIP3    H154744   2.634   7.374   6.438
10183TIP3    H254745   2.595   7.325   6.843
10184TIP3   OH254746   2.475   5.960   6.492
10184TIP3    H154747   2.469   6.049   6.603
10184TIP3    H254748   2.570   5.942   6.546
10185TIP3   OH254749   3.386   6.429   8.292
10185TIP3    H154750   3.293   6.401   8.319
10185TIP3    H254751   3.431   6.374   8.493
10186TIP3   OH254752   2.294   6.995   6.156
10186TIP3    H154753   2.364   7.052   6.261
10186TIP3    H254754   2.347   6.941   5.961
10187TIP3   OH254755   2.181   6.269   6.030
10187TIP3    H154756   2.179   6.365   6.081
10187TIP3    H254757   2.089   6.250   5.949
10188TIP3   OH254758   2.098   7.107   7.329
10188TIP3    H154759   2.026   7.138   7.497
10188TIP3    H254760   2.105   7.179   7.134
10189TIP3   OH254761   2.916   7.273   5.685
10189TIP3    H154762   2.869   7.187   5.706
10189TIP3    H254763   2.997   7.249   5.532
10190TIP3   OH254764   3.389   7.240   5.817
10190TIP3    H154765   3.400   7.151   5.928
10190TIP3    H254766   3.459   7.242   5.610
10191TIP3   OH254767   2.449   6.829   5.649
10191TIP3    H154768   2.471   6.775   5.880
10191TIP3    H254769   2.533   6.820   5.499
10192TIP3   OH254770   3.027   6.937   5.517
10192TIP3    H154771   2.981   6.937   5.769
10192TIP3    H254772   3.026   6.841   5.454
10193TIP3   OH254773   2.584   6.650   6.453
10193TIP3    H154774   2.525   6.595   6.621
10193TIP3    H254775   2.615   6.585   6.258
10194TIP3   OH254776   2.696   6.477   5.832
10194TIP3    H154777   2.684   6.503   5.553
10194TIP3    H254778   2.793   6.480   5.859
10195TIP3   OH254779   3.615   6.680   5.691
10195TIP3    H154780   3.597   6.650   5.415
10195TIP3    H254781   3.611   6.778   5.658
10196TIP3   OH254782   2.669   7.527   6.267
10196TIP3    H154783   2.767   7.535   6.267
10196TIP3    H254784   2.643   7.584   6.051
10197TIP3   OH254785   2.018   6.963   6.075
10197TIP3    H154786   2.116   6.966   6.054
10197TIP3    H254787   1.993   6.918   5.826
10198TIP3   OH254788   1.896   7.519   7.473
10198TIP3    H154789   1.834   7.459   7.329
10198TIP3    H254790   1.890   7.487   7.743
10199TIP3   OH254791   3.662   6.768   6.840
10199TIP3    H154792   3.751   6.806   6.873
10199TIP3    H254793   3.658   6.703   7.062
10200TIP3   OH254794   3.699   6.584   7.446
10200TIP3    H154795   3.628   6.528   7.563
10200TIP3    H254796   3.753   6.602   7.686
10201TIP3   OH254797   3.687   6.843   8.979
10201TIP3    H154798   3.756   6.776   8.982
10201TIP3    H254799   3.724   6.911   9.156
10202TIP3   OH254800   3.740   6.559   6.342
10202TIP3    H154801   3.679   6.574   6.117
10202TIP3    H254802   3.712   6.633   6.519
10203TIP3   OH254803   3.551   6.274   5.868
10203TIP3    H154804   3.575   6.333   5.652
10203TIP3    H254805   3.539   6.191   5.727
10204TIP3   OH254806   3.524   6.389   7.629
10204TIP3    H154807   3.474   6.316   7.503
10204TIP3    H254808   3.475   6.401   7.881
10205TIP3   OH254809   3.513   6.017   5.580
10205TIP3    H154810   3.550   5.981   5.829
10205TIP3    H254811   3.420   5.991   5.583
10206TIP3   OH254812   3.429   6.207   7.062
10206TIP3    H154813   3.456   6.116   7.125
10206TIP3    H254814   3.518   6.243   7.014
10207TIP3   OH254815   3.497   6.234   8.775
10207TIP3    H154816   3.592   6.260   8.751
10207TIP3    H254817   3.493   6.235   9.066
10208TIP3   OH254818   3.525   5.946   7.173
10208TIP3    H154819   3.553   5.906   7.425
10208TIP3    H254820   3.464   5.877   7.080
10209TIP3   OH254821   3.702   5.920   6.177
10209TIP3    H154822   3.738   5.866   5.955
10209TIP3    H254823   3.776   5.982   6.231
10210TIP3   OH254824   1.917   5.937   7.149
10210TIP3    H154825   1.828   5.937   7.038
10210TIP3    H254826   1.965   5.972   6.912
10211TIP3   OH254827   3.409   7.423   7.533
10211TIP3    H154828   3.490   7.412   7.377
10211TIP3    H254829   3.435   7.456   7.797
10212TIP3   OH254830   3.629   5.802   7.824
10212TIP3    H154831   3.687   5.736   7.695
10212TIP3    H254832   3.694   5.874   7.872
10213TIP3   OH254833   2.063   5.721   6.414
10213TIP3    H154834   2.114   5.770   6.216
10213TIP3    H254835   2.004   5.792   6.507
10214TIP3   OH254836   2.595   5.730   7.590
10214TIP3    H154837   2.681   5.753   7.479
10214TIP3    H254838   2.613   5.734   7.875
10215TIP3   OH254839   3.354   5.732   6.948
10215TIP3    H154840   3.288   5.768   6.765
10215TIP3    H254841   3.310   5.650   7.044
10216TIP3   OH254842   2.057   7.297   6.768
10216TIP3    H154843   1.962   7.302   6.720
10216TIP3    H254844   2.087   7.378   6.630
10217TIP3   OH254845   2.201   5.930   5.943
10217TIP3    H154846   2.268   5.872   5.820
10217TIP3    H254847   2.244   5.957   6.189
10218TIP3   OH254848   2.749   5.960   6.672
10218TIP3    H154849   2.804   5.902   6.831
10218TIP3    H254850   2.763   6.043   6.822
10219TIP3   OH254851   2.934   7.481   6.225
10219TIP3    H154852   3.026   7.453   6.168
10219TIP3    H254853   2.890   7.409   6.075
10220TIP3   OH254854   3.600   7.376   6.975
10220TIP3    H154855   3.578   7.285   6.873
10220TIP3    H254856   3.582   7.429   6.732
10221TIP3   OH254857   2.234   7.418   5.847
10221TIP3    H154858   2.178   7.438   6.078
10221TIP3    H254859   2.287   7.346   5.952
10222TIP3   OH254860   4.978   6.662   7.644
10222TIP3    H154861   4.983   6.757   7.710
10222TIP3    H254862   4.884   6.649   7.626
10223TIP3   OH254863   4.204   6.990   8.652
10223TIP3    H154864   4.162   6.903   8.646
10223TIP3    H254865   4.295   6.969   8.562
10224TIP3   OH254866   3.877   6.328   7.395
10224TIP3    H154867   3.837   6.413   7.464
10224TIP3    H254868   3.798   6.275   7.344
10225TIP3   OH254869   3.876   6.587   8.067
10225TIP3    H154870   3.921   6.508   8.175
10225TIP3    H254871   3.941   6.627   7.890
10226TIP3   OH254872   4.345   6.096   8.202
10226TIP3    H154873   4.351   6.170   8.013
10226TIP3    H254874   4.284   6.036   8.064
10227TIP3   OH254875   5.129   6.078   7.515
10227TIP3    H154876   5.160   6.043   7.773
10227TIP3    H254877   5.182   6.158   7.494
10228TIP3   OH254878   3.976   6.329   8.385
10228TIP3    H154879   3.980   6.242   8.529
10228TIP3    H254880   3.999   6.295   8.121
10229TIP3   OH254881   4.414   6.454   8.220
10229TIP3    H154882   4.501   6.419   8.292
10229TIP3    H254883   4.386   6.389   8.016
10230TIP3   OH254884   4.937   6.938   7.401
10230TIP3    H154885   4.841   6.932   7.413
10230TIP3    H254886   4.951   7.032   7.347
10231TIP3   OH254887   5.268   6.031   8.211
10231TIP3    H154888   5.299   5.960   8.385
10231TIP3    H254889   5.348   6.084   8.208
10232TIP3   OH254890   3.931   6.881   6.822
10232TIP3    H154891   3.919   6.936   6.579
10232TIP3    H254892   3.938   6.951   7.029
10233TIP3   OH254893   4.599   5.713   8.478
10233TIP3    H154894   4.608   5.620   8.550
10233TIP3    H254895   4.506   5.731   8.565
10234TIP3   OH254896   5.094   7.180   7.911
10234TIP3    H154897   5.161   7.122   7.803
10234TIP3    H254898   5.137   7.267   7.908
10235TIP3   OH254899   4.855   6.431   6.009
10235TIP3    H154900   4.889   6.408   6.270
10235TIP3    H254901   4.904   6.366   5.847
10236TIP3   OH254902   4.343   6.683   7.833
10236TIP3    H154903   4.330   6.622   7.611
10236TIP3    H254904   4.374   6.620   8.040
10237TIP3   OH254905   4.744   7.207   8.028
10237TIP3    H154906   4.838   7.189   8.079
10237TIP3    H254907   4.749   7.220   7.740
10238TIP3   OH254908   5.450   5.685   6.558
10238TIP3    H154909   5.359   5.698   6.663
10238TIP3    H254910   5.479   5.777   6.516
10239TIP3   OH254911   4.228   6.544   6.996
10239TIP3    H154912   4.203   6.629   6.870
10239TIP3    H254913   4.177   6.481   6.843
10240TIP3   OH254914   5.568   7.134   6.024
10240TIP3    H154915   5.602   7.227   6.039
10240TIP3    H254916   5.651   7.083   6.066
10241TIP3   OH254917   4.720   7.537   6.924
10241TIP3    H154918   4.744   7.443   6.924
10241TIP3    H254919   4.745   7.556   7.197
10242TIP3   OH254920   4.187   7.327   7.578
10242TIP3    H154921   4.194   7.310   7.869
10242TIP3    H254922   4.091   7.323   7.551
10243TIP3   OH254923   5.092   7.350   6.168
10243TIP3    H154924   5.158   7.296   6.027
10243TIP3    H254925   5.128   7.354   6.441
10244TIP3   OH254926   5.123   7.395   6.945
10244TIP3    H154927   5.027   7.376   6.999
10244TIP3    H254928   5.159   7.355   7.185
10245TIP3   OH254929   4.322   5.794   8.694
10245TIP3    H154930   4.237   5.766   8.592
10245TIP3    H254931   4.293   5.859   8.892
10246TIP3   OH254932   4.801   6.015   5.967
10246TIP3    H154933   4.776   6.008   6.246
10246TIP3    H254934   4.741   5.949   5.850
10247TIP3   OH254935   4.360   6.274   7.617
10247TIP3    H154936   4.264   6.256   7.572
10247TIP3    H254937   4.398   6.245   7.359
10248TIP3   OH254938   4.894   6.368   7.272
10248TIP3    H154939   4.881   6.446   7.104
10248TIP3    H254940   4.982   6.339   7.182
10249TIP3   OH254941   4.407   6.014   5.694
10249TIP3    H154942   4.369   5.997   5.961
10249TIP3    H254943   4.371   6.100   5.610
10250TIP3   OH254944   3.808   6.012   7.911
10250TIP3    H154945   3.883   6.017   8.094
10250TIP3    H254946   3.850   5.993   7.656
10251TIP3   OH254947   3.885   6.087   6.450
10251TIP3    H154948   3.940   6.131   6.246
10251TIP3    H254949   3.825   6.160   6.522
10252TIP3   OH254950   4.658   6.021   7.845
10252TIP3    H154951   4.567   6.048   7.914
10252TIP3    H254952   4.686   5.983   8.097
10253TIP3   OH254953   4.101   6.199   7.557
10253TIP3    H154954   4.019   6.229   7.419
10253TIP3    H254955   4.112   6.104   7.470
10254TIP3   OH254956   4.457   6.222   6.873
10254TIP3    H154957   4.548   6.222   6.771
10254TIP3    H254958   4.413   6.289   6.705
10255TIP3   OH254959   4.343   6.344   6.150
10255TIP3    H154960   4.297   6.294   5.943
10255TIP3    H254961   4.416   6.383   5.997
10256TIP3   OH254962   4.690   6.324   8.541
10256TIP3    H154963   4.764   6.326   8.358
10256TIP3    H254964   4.724   6.354   8.796
10257TIP3   OH254965   4.181   5.954   7.431
10257TIP3    H154966   4.137   5.882   7.587
10257TIP3    H254967   4.245   5.903   7.281
10258TIP3   OH254968   4.677   6.758   6.882
10258TIP3    H154969   4.602   6.712   6.750
10258TIP3    H254970   4.629   6.804   7.101
10259TIP3   OH254971   5.032   6.097   6.273
10259TIP3    H154972   4.951   6.078   6.117
10259TIP3    H254973   5.020   6.191   6.348
10260TIP3   OH254974   5.080   6.324   6.630
10260TIP3    H154975   5.145   6.267   6.777
10260TIP3    H254976   5.140   6.357   6.426
10261TIP3   OH254977   4.164   6.698   8.469
10261TIP3    H154978   4.213   6.729   8.235
10261TIP3    H254979   4.142   6.609   8.379
10262TIP3   OH254980   4.862   6.906   6.477
10262TIP3    H154981   4.828   6.998   6.489
10262TIP3    H254982   4.794   6.854   6.624
10263TIP3   OH254983   5.600   6.279   6.645
10263TIP3    H154984   5.531   6.275   6.441
10263TIP3    H254985   5.611   6.375   6.681
10264TIP3   OH254986   5.392   7.163   6.687
10264TIP3    H154987   5.389   7.131   6.963
10264TIP3    H254988   5.463   7.111   6.561
10265TIP3   OH254989   4.397   7.055   7.827
10265TIP3    H154990   4.435   7.144   7.824
10265TIP3    H254991   4.310   7.064   7.701
10266TIP3   OH254992   4.024   6.576   6.120
10266TIP3    H154993   4.067   6.650   6.261
10266TIP3    H254994   3.928   6.591   6.165
10267TIP3   OH254995   4.545   6.844   7.518
10267TIP3    H154996   4.499   6.926   7.605
10267TIP3    H254997   4.511   6.784   7.725
10268TIP3   OH254998   4.483   7.320   7.407
10268TIP3    H154999   4.392   7.323   7.512
10268TIP3    H255000   4.526   7.399   7.530
10269TIP3   OH255001   5.660   7.380   6.129
10269TIP3    H155002   5.725   7.453   6.105
10269TIP3    H255003   5.575   7.429   6.162
10270TIP3   OH255004   4.587   7.085   5.613
10270TIP3    H155005   4.592   7.022   5.394
10270TIP3    H255006   4.540   7.033   5.811
10271TIP3   OH255007   4.481   7.027   6.417
10271TIP3    H155008   4.553   6.979   6.546
10271TIP3    H255009   4.508   7.120   6.480
10272TIP3   OH255010   4.154   6.760   6.555
10272TIP3    H155011   4.070   6.799   6.654
10272TIP3    H255012   4.204   6.839   6.477
10273TIP3   OH255013   5.010   5.931   6.921
10273TIP3    H155014   5.037   5.987   6.696
10273TIP3    H255015   5.057   5.973   7.149
10274TIP3   OH255016   4.755   7.153   6.426
10274TIP3    H155017   4.674   7.200   6.504
10274TIP3    H255018   4.815   7.196   6.621
10275TIP3   OH255019   4.723   6.157   7.083
10275TIP3    H155020   4.771   6.239   7.164
10275TIP3    H255021   4.686   6.128   7.341
10276TIP3   OH255022   4.781   5.851   7.329
10276TIP3    H155023   4.735   5.914   7.509
10276TIP3    H255024   4.854   5.904   7.206
10277TIP3   OH255025   4.530   7.293   6.627
10277TIP3    H155026   4.566   7.377   6.522
10277TIP3    H255027   4.530   7.308   6.921
10278TIP3   OH255028   4.350   5.958   6.471
10278TIP3    H155029   4.346   6.036   6.645
10278TIP3    H255030   4.443   5.930   6.522
10279TIP3   OH255031   4.197   7.008   6.135
10279TIP3    H155032   4.278   7.034   6.285
10279TIP3    H255033   4.239   6.956   5.922
10280TIP3   OH255034   4.011   6.290   5.922
10280TIP3    H155035   4.053   6.372   6.018
10280TIP3    H255036   3.942   6.327   5.748
10281TIP3   OH255037   3.961   7.110   7.293
10281TIP3    H155038   3.897   7.177   7.380
10281TIP3    H255039   4.008   7.162   7.092
10282TIP3   OH255040   4.797   7.263   5.649
10282TIP3    H155041   4.734   7.193   5.739
10282TIP3    H255042   4.880   7.213   5.640
10283TIP3   OH255043   5.263   7.209   5.715
10283TIP3    H155044   5.328   7.169   5.895
10283TIP3    H255045   5.317   7.227   5.475
10284TIP3   OH255046   4.363   6.818   5.679
10284TIP3    H155047   4.407   6.810   5.940
10284TIP3    H255048   4.435   6.791   5.499
10285TIP3   OH255049   4.924   6.940   5.697
10285TIP3    H155050   4.885   6.933   5.967
10285TIP3    H255051   4.911   6.848   5.604
10286TIP3   OH255052   4.466   6.638   6.477
10286TIP3    H155053   4.398   6.584   6.612
10286TIP3    H255054   4.499   6.575   6.276
10287TIP3   OH255055   4.579   6.468   5.850
10287TIP3    H155056   4.561   6.480   5.562
10287TIP3    H255057   4.675   6.453   5.856
10288TIP3   OH255058   5.505   6.677   5.694
10288TIP3    H155059   5.486   6.645   5.421
10288TIP3    H255060   5.494   6.774   5.655
10289TIP3   OH255061   4.582   7.503   6.075
10289TIP3    H155062   4.679   7.508   6.129
10289TIP3    H255063   4.564   7.597   6.063
10290TIP3   OH255064   3.911   6.969   6.066
10290TIP3    H155065   4.009   6.970   6.054
10290TIP3    H255066   3.888   6.920   5.817
10291TIP3   OH255067   3.772   7.497   7.425
10291TIP3    H155068   3.698   7.455   7.278
10291TIP3    H255069   3.776   7.440   7.665
10292TIP3   OH255070   3.864   7.319   8.007
10292TIP3    H155071   3.921   7.245   8.082
10292TIP3    H255072   3.837   7.346   8.271
10293TIP3   OH255073   5.627   6.555   6.366
10293TIP3    H155074   5.565   6.586   6.156
10293TIP3    H255075   5.614   6.617   6.585
10294TIP3   OH255076   5.435   6.265   5.883
10294TIP3    H155077   5.466   6.325   5.679
10294TIP3    H255078   5.420   6.186   5.718
10295TIP3   OH255079   3.901   6.661   8.880
10295TIP3    H155080   3.840   6.648   8.655
10295TIP3    H255081   3.968   6.595   8.817
10296TIP3   OH255082   5.405   6.010   5.541
10296TIP3    H155083   5.444   5.974   5.787
10296TIP3    H255084   5.310   5.997   5.580
10297TIP3   OH255085   5.314   6.218   6.981
10297TIP3    H155086   5.351   6.128   6.984
10297TIP3    H255087   5.388   6.268   7.092
10298TIP3   OH255088   5.442   5.943   7.119
10298TIP3    H155089   5.452   5.902   7.383
10298TIP3    H255090   5.367   5.893   7.014
10299TIP3   OH255091   3.757   6.272   8.880
10299TIP3    H155092   3.804   6.186   8.910
10299TIP3    H255093   3.824   6.318   8.721
10300TIP3   OH255094   5.573   5.916   6.189
10300TIP3    H155095   5.611   5.866   5.964
10300TIP3    H255096   5.639   5.987   6.234
10301TIP3   OH255097   3.822   5.933   7.104
10301TIP3    H155098   3.726   5.942   7.083
10301TIP3    H255099   3.848   5.979   6.855
10302TIP3   OH255100   5.315   7.394   7.695
10302TIP3    H155101   5.375   7.407   7.470
10302TIP3    H255102   5.338   7.470   7.863
10303TIP3   OH255103   4.178   7.237   8.319
10303TIP3    H155104   4.182   7.142   8.400
10303TIP3    H255105   4.256   7.269   8.466
10304TIP3   OH255106   4.457   7.283   8.511
10304TIP3    H155107   4.515   7.205   8.484
10304TIP3    H255108   4.496   7.325   8.748
10305TIP3   OH255109   5.530   5.783   7.836
10305TIP3    H155110   5.598   5.730   7.707
10305TIP3    H255111   5.583   5.863   7.896
10306TIP3   OH255112   4.081   5.731   7.692
10306TIP3    H155113   4.003   5.714   7.530
10306TIP3    H255114   4.115   5.641   7.740
10307TIP3   OH255115   3.948   5.709   6.411
10307TIP3    H155116   3.978   5.780   6.228
10307TIP3    H255117   3.880   5.756   6.567
10308TIP3   OH255118   4.496   5.681   7.704
10308TIP3    H155119   4.582   5.685   7.575
10308TIP3    H255120   4.518   5.698   7.983
10309TIP3   OH255121   5.223   5.754   6.990
10309TIP3    H155122   5.143   5.807   6.936
10309TIP3    H255123   5.182   5.667   7.062
10310TIP3   OH255124   3.918   7.308   6.732
10310TIP3    H155125   3.850   7.318   6.522
10310TIP3    H255126   3.890   7.382   6.900
10311TIP3   OH255127   4.082   5.920   5.964
10311TIP3    H155128   4.152   5.871   5.820
10311TIP3    H255129   4.127   5.938   6.216
10312TIP3   OH255130   4.626   5.933   6.711
10312TIP3    H155131   4.673   5.878   6.912
10312TIP3    H255132   4.656   6.022   6.792
10313TIP3   OH255133   4.849   7.487   6.060
10313TIP3    H155134   4.937   7.448   6.114
10313TIP3    H255135   4.806   7.407   5.943
10314TIP3   OH255136   5.509   7.397   6.984
10314TIP3    H155137   5.482   7.313   6.855
10314TIP3    H255138   5.496   7.462   6.768
10315TIP3   OH255139   4.052   7.361   5.739
10315TIP3    H155140   4.022   7.361   6.018
10315TIP3    H255141   4.144   7.333   5.766
10316TIP3   OH255142   6.881   6.713   7.602
10316TIP3    H155143   6.847   6.765   7.821
10316TIP3    H255144   6.813   6.721   7.398
10317TIP3   OH255145   6.746   6.551   8.625
10317TIP3    H155146   6.756   6.531   8.907
10317TIP3    H255147   6.781   6.469   8.514
10318TIP3   OH255148   5.900   6.556   7.944
10318TIP3    H155149   5.849   6.485   8.076
10318TIP3    H255150   5.832   6.596   7.773
10319TIP3   OH255151   6.255   6.061   8.157
10319TIP3    H155152   6.237   6.141   7.995
10319TIP3    H255153   6.192   5.997   8.040
10320TIP3   OH255154   7.010   6.120   7.611
10320TIP3    H155155   7.055   6.065   7.815
10320TIP3    H255156   7.083   6.170   7.488
10321TIP3   OH255157   5.886   6.298   8.328
10321TIP3    H155158   5.960   6.256   8.463
10321TIP3    H255159   5.900   6.267   8.052
10322TIP3   OH255160   7.134   5.993   8.211
10322TIP3    H155161   7.063   5.963   8.391
10322TIP3    H255162   7.185   6.052   8.391
10323TIP3   OH255163   5.816   6.853   6.843
10323TIP3    H155164   5.778   6.891   6.600
10323TIP3    H255165   5.830   6.931   7.014
10324TIP3   OH255166   6.707   6.579   6.891
10324TIP3    H155167   6.655   6.659   6.819
10324TIP3    H255168   6.794   6.601   6.762
10325TIP3   OH255169   6.724   6.495   6.000
10325TIP3    H155170   6.805   6.533   6.120
10325TIP3    H255171   6.747   6.400   6.003
10326TIP3   OH255172   7.089   6.566   7.251
10326TIP3    H155173   7.031   6.638   7.347
10326TIP3    H255174   7.150   6.551   7.473
10327TIP3   OH255175   6.368   7.053   8.565
10327TIP3    H155176   6.381   6.990   8.349
10327TIP3    H255177   6.414   7.010   8.787
10328TIP3   OH255178   6.946   6.560   6.516
10328TIP3    H155179   7.014   6.527   6.702
10328TIP3    H255180   7.002   6.584   6.279
10329TIP3   OH255181   7.355   5.679   6.534
10329TIP3    H155182   7.267   5.696   6.657
10329TIP3    H255183   7.379   5.769   6.447
10330TIP3   OH255184   6.117   6.548   7.065
10330TIP3    H155185   6.088   6.634   6.948
10330TIP3    H255186   6.042   6.493   6.993
10331TIP3   OH255187   7.463   7.127   6.015
10331TIP3    H155188   7.475   7.224   6.054
10331TIP3    H255189   7.552   7.100   6.099
10332TIP3   OH255190   5.700   7.131   8.826
10332TIP3    H155191   5.790   7.094   8.781
10332TIP3    H255192   5.718   7.164   9.096
10333TIP3   OH255193   6.057   7.343   7.593
10333TIP3    H155194   6.046   7.334   7.881
10333TIP3    H255195   6.023   7.259   7.485
10334TIP3   OH255196   6.981   7.391   6.255
10334TIP3    H155197   7.022   7.325   6.075
10334TIP3    H255198   6.976   7.338   6.498
10335TIP3   OH255199   7.071   6.680   5.919
10335TIP3    H155200   7.060   6.659   5.634
10335TIP3    H255201   7.169   6.676   5.922
10336TIP3   OH255202   6.687   6.010   6.006
10336TIP3    H155203   6.659   5.985   6.273
10336TIP3    H255204   6.623   5.956   5.856
10337TIP3   OH255205   6.228   6.288   7.698
10337TIP3    H155206   6.142   6.283   7.566
10337TIP3    H255207   6.287   6.276   7.464
10338TIP3   OH255208   6.813   6.389   7.290
10338TIP3    H155209   6.795   6.465   7.107
10338TIP3    H255210   6.881   6.345   7.125
10339TIP3   OH255211   6.826   6.306   8.025
10339TIP3    H155212   6.828   6.340   7.752
10339TIP3    H255213   6.895   6.238   7.995
10340TIP3   OH255214   6.319   6.051   5.781
10340TIP3    H155215   6.272   6.006   6.000
10340TIP3    H255216   6.246   6.092   5.631
10341TIP3   OH255217   5.712   5.988   7.884
10341TIP3    H155218   5.733   6.082   7.923
10341TIP3    H255219   5.747   5.971   7.614
10342TIP3   OH255220   5.775   6.089   6.480
10342TIP3    H155221   5.829   6.128   6.264
10342TIP3    H255222   5.714   6.165   6.528
10343TIP3   OH255223   6.541   6.044   7.914
10343TIP3    H155224   6.450   6.023   8.001
10343TIP3    H255225   6.575   6.083   8.163
10344TIP3   OH255226   5.933   6.200   7.548
10344TIP3    H155227   5.882   6.201   7.302
10344TIP3    H255228   5.981   6.114   7.518
10345TIP3   OH255229   6.347   6.252   6.960
10345TIP3    H155230   6.428   6.225   6.825
10345TIP3    H255231   6.295   6.290   6.741
10346TIP3   OH255232   6.219   6.342   6.165
10346TIP3    H155233   6.191   6.282   5.952
10346TIP3    H255234   6.302   6.375   6.048
10347TIP3   OH255235   6.615   6.272   8.514
10347TIP3    H155236   6.698   6.273   8.355
10347TIP3    H255237   6.656   6.274   8.781
10348TIP3   OH255238   6.069   5.974   7.497
10348TIP3    H155239   6.014   5.904   7.623
10348TIP3    H255240   6.131   5.918   7.350
10349TIP3   OH255241   6.558   6.803   6.822
10349TIP3    H155242   6.482   6.764   6.675
10349TIP3    H255243   6.515   6.820   7.086
10350TIP3   OH255244   6.943   6.067   6.282
10350TIP3    H155245   6.858   6.080   6.144
10350TIP3    H255246   6.978   6.158   6.288
10351TIP3   OH255247   6.994   6.297   6.723
10351TIP3    H155248   7.082   6.274   6.828
10351TIP3    H255249   7.023   6.347   6.483
10352TIP3   OH255250   6.731   6.948   6.318
10352TIP3    H155251   6.750   7.022   6.498
10352TIP3    H255252   6.678   6.893   6.501
10353TIP3   OH255253   7.461   6.337   6.621
10353TIP3    H155254   7.449   6.288   6.369
10353TIP3    H255255   7.478   6.426   6.501
10354TIP3   OH255256   7.289   7.119   6.732
10354TIP3    H155257   7.223   7.050   6.780
10354TIP3    H255258   7.339   7.087   6.501
10355TIP3   OH255259   6.305   7.101   7.581
10355TIP3    H155260   6.319   7.177   7.752
10355TIP3    H255261   6.210   7.104   7.536
10356TIP3   OH255262   5.907   6.583   6.075
10356TIP3    H155263   5.954   6.640   6.270
10356TIP3    H255264   5.814   6.591   6.159
10357TIP3   OH255265   6.420   6.852   7.491
10357TIP3    H155266   6.406   6.949   7.461
10357TIP3    H255267   6.370   6.835   7.728
10358TIP3   OH255268   7.087   6.970   6.120
10358TIP3    H155269   7.102   6.938   6.396
10358TIP3    H255270   6.997   6.937   6.096
10359TIP3   OH255271   7.540   7.373   6.204
10359TIP3    H155272   7.604   7.444   6.192
10359TIP3    H255273   7.456   7.422   6.162
10360TIP3   OH255274   7.157   6.849   6.786
10360TIP3    H155275   7.111   6.766   6.729
10360TIP3    H255276   7.249   6.822   6.723
10361TIP3   OH255277   6.484   7.070   5.601
10361TIP3    H155278   6.491   6.986   5.460
10361TIP3    H255279   6.421   7.046   5.811
10362TIP3   OH255280   6.374   7.043   6.438
10362TIP3    H155281   6.446   6.986   6.531
10362TIP3    H255282   6.401   7.126   6.564
10363TIP3   OH255283   6.037   6.744   6.546
10363TIP3    H155284   5.954   6.788   6.633
10363TIP3    H255285   6.083   6.816   6.411
10364TIP3   OH255286   6.868   5.987   7.020
10364TIP3    H155287   6.901   6.014   6.756
10364TIP3    H255288   6.928   6.036   7.203
10365TIP3   OH255289   6.632   6.173   7.281
10365TIP3    H155290   6.724   6.142   7.326
10365TIP3    H255291   6.589   6.123   7.503
10366TIP3   OH255292   6.665   5.842   7.362
10366TIP3    H155293   6.633   5.900   7.578
10366TIP3    H255294   6.740   5.894   7.257
10367TIP3   OH255295   6.240   5.955   6.474
10367TIP3    H155296   6.219   6.027   6.657
10367TIP3    H255297   6.335   5.940   6.525
10368TIP3   OH255298   6.058   6.995   6.135
10368TIP3    H155299   6.115   7.036   6.336
10368TIP3    H255300   6.124   6.957   5.949
10369TIP3   OH255301   5.896   6.291   5.928
10369TIP3    H155302   5.938   6.375   6.012
10369TIP3    H255303   5.818   6.321   5.781
10370TIP3   OH255304   6.011   5.748   8.562
10370TIP3    H155305   5.995   5.754   8.277
10370TIP3    H255306   5.994   5.656   8.622
10371TIP3   OH255307   5.904   7.109   7.257
10371TIP3    H155308   5.846   7.119   7.485
10371TIP3    H255309   5.860   7.168   7.059
10372TIP3   OH255310   6.680   7.263   5.682
10372TIP3    H155311   6.630   7.178   5.700
10372TIP3    H255312   6.771   7.231   5.622
10373TIP3   OH255313   7.128   7.222   5.751
10373TIP3    H155314   7.175   7.155   5.907
10373TIP3    H255315   7.175   7.215   5.493
10374TIP3   OH255316   6.232   6.834   5.652
10374TIP3    H155317   6.265   6.780   5.874
10374TIP3    H255318   6.308   6.822   5.466
10375TIP3   OH255319   6.762   6.939   5.460
10375TIP3    H155320   6.737   6.942   5.742
10375TIP3    H255321   6.771   6.842   5.433
10376TIP3   OH255322   6.353   6.642   6.426
10376TIP3    H155323   6.285   6.582   6.537
10376TIP3    H255324   6.398   6.583   6.237
10377TIP3   OH255325   6.462   6.474   5.853
10377TIP3    H155326   6.427   6.508   5.601
10377TIP3    H255327   6.558   6.496   5.820
10378TIP3   OH255328   7.348   6.670   5.685
10378TIP3    H155329   7.330   6.630   5.424
10378TIP3    H255330   7.373   6.761   5.622
10379TIP3   OH255331   5.789   6.961   6.075
10379TIP3    H155332   5.887   6.972   6.072
10379TIP3    H255333   5.774   6.905   5.838
10380TIP3   OH255334   5.670   7.547   7.512
10380TIP3    H155335   5.611   7.521   7.290
10380TIP3    H255336   5.675   7.461   7.650
10381TIP3   OH255337   5.760   7.297   8.049
10381TIP3    H155338   5.739   7.217   8.205
10381TIP3    H255339   5.787   7.357   8.259
10382TIP3   OH255340   7.441   6.787   6.765
10382TIP3    H155341   7.495   6.858   6.876
10382TIP3    H255342   7.448   6.715   6.963
10383TIP3   OH255343   7.468   6.594   7.455
10383TIP3    H155344   7.384   6.550   7.530
10383TIP3    H255345   7.499   6.625   7.716
10384TIP3   OH255346   7.526   6.568   6.297
10384TIP3    H155347   7.456   6.578   6.096
10384TIP3    H255348   7.507   6.644   6.471
10385TIP3   OH255349   7.416   6.211   5.877
10385TIP3    H155350   7.347   6.279   5.952
10385TIP3    H255351   7.365   6.166   5.664
10386TIP3   OH255352   7.264   6.434   7.755
10386TIP3    H155353   7.274   6.368   7.536
10386TIP3    H255354   7.222   6.381   7.962
10387TIP3   OH255355   5.822   6.610   8.805
10387TIP3    H155356   5.759   6.637   8.604
10387TIP3    H255357   5.825   6.684   8.991
10388TIP3   OH255358   7.259   5.993   5.571
10388TIP3    H155359   7.254   6.000   5.862
10388TIP3    H255360   7.164   5.993   5.508
10389TIP3   OH255361   7.239   6.214   7.149
10389TIP3    H155362   7.252   6.117   7.122
10389TIP3    H255363   7.304   6.243   6.948
10390TIP3   OH255364   7.235   6.221   8.688
10390TIP3    H155365   7.329   6.241   8.748
10390TIP3    H255366   7.196   6.219   8.958
10391TIP3   OH255367   7.256   5.924   7.197
10391TIP3    H155368   7.281   5.927   7.476
10391TIP3    H255369   7.233   5.829   7.173
10392TIP3   OH255370   7.492   5.919   6.186
10392TIP3    H155371   7.544   5.867   5.994
10392TIP3    H255372   7.490   6.008   6.063
10393TIP3   OH255373   5.715   5.910   7.065
10393TIP3    H155374   5.617   5.912   7.059
10393TIP3    H255375   5.732   5.971   6.840
10394TIP3   OH255376   6.412   7.321   8.610
10394TIP3    H155377   6.414   7.224   8.580
10394TIP3    H255378   6.333   7.335   8.772
10395TIP3   OH255379   7.247   5.744   8.268
10395TIP3    H155380   7.171   5.786   8.130
10395TIP3    H255381   7.200   5.698   8.481
10396TIP3   OH255382   5.968   5.739   7.728
10396TIP3    H155383   5.887   5.739   7.566
10396TIP3    H255384   5.999   5.647   7.689
10397TIP3   OH255385   5.835   5.715   6.417
10397TIP3    H155386   5.871   5.775   6.213
10397TIP3    H255387   5.796   5.778   6.606
10398TIP3   OH255388   6.401   5.709   7.800
10398TIP3    H155389   6.484   5.704   7.653
10398TIP3    H255390   6.430   5.723   8.073
10399TIP3   OH255391   6.962   5.730   7.839
10399TIP3    H155392   6.919   5.704   7.590
10399TIP3    H255393   6.939   5.657   8.019
10400TIP3   OH255394   7.119   5.711   6.906
10400TIP3    H155395   7.034   5.757   6.891
10400TIP3    H255396   7.088   5.623   7.005
10401TIP3   OH255397   5.815   7.296   6.747
10401TIP3    H155398   5.734   7.315   6.591
10401TIP3    H255399   5.860   7.381   6.708
10402TIP3   OH255400   5.969   5.926   6.021
10402TIP3    H155401   6.029   5.867   5.871
10402TIP3    H255402   6.024   5.948   6.255
10403TIP3   OH255403   6.521   5.950   6.729
10403TIP3    H155404   6.570   5.896   6.924
10403TIP3    H255405   6.547   6.039   6.807
10404TIP3   OH255406   7.407   7.387   6.987
10404TIP3    H155407   7.375   7.295   6.963
10404TIP3    H255408   7.361   7.430   6.765
10405TIP3   OH255409   6.019   7.444   5.811
10405TIP3    H155410   5.943   7.458   5.988
10405TIP3    H255411   6.061   7.368   5.940
10406TIP3   OH255412   7.561   6.321   7.389
10406TIP3    H155413   7.542   6.415   7.419
10406TIP3    H255414   7.526   6.307   7.116
10407TIP3   OH255415   7.507   7.575   7.596
10407TIP3    H155416   7.458   7.554   7.350
10407TIP3    H255417   7.500   7.486   7.716
10408TIP3   OH255418   7.537   7.318   8.082
10408TIP3    H155419   7.533   7.246   8.286
10408TIP3    H255420   7.553   7.393   8.253
10409TIP3   OH255421  -0.025   6.625   8.769
10409TIP3    H155422   0.001   6.677   8.541
10409TIP3    H255423   0.034   6.661   8.976
10410TIP3   OH255424   7.520   6.310   8.721
10410TIP3    H155425   7.580   6.316   8.496
10410TIP3    H255426   7.554   6.379   8.901
10411TIP3   OH255427   7.526   5.959   7.005
10411TIP3    H155428   7.428   5.960   7.005
10411TIP3    H255429   7.547   5.953   6.720
10412TIP3   OH255430   1.656   7.525   6.309
10412TIP3    H155431   1.584   7.522   6.504
10412TIP3    H255432   1.675   7.621   6.330
10413TIP3   OH255433   0.240   7.567   7.815
10413TIP3    H155434   0.210   7.660   7.794
10413TIP3    H255435   0.308   7.571   8.025
10414TIP3   OH255436   1.576   7.514   8.241
10414TIP3    H155437   1.662   7.478   8.310
10414TIP3    H255438   1.587   7.609   8.286
10415TIP3   OH255439   0.322   7.503   7.044
10415TIP3    H155440   0.252   7.522   7.242
10415TIP3    H255441   0.402   7.531   7.185
10416TIP3   OH255442   0.193   7.568   6.348
10416TIP3    H155443   0.260   7.636   6.297
10416TIP3    H255444   0.213   7.548   6.630
10417TIP3   OH255445   1.455   7.580   6.864
10417TIP3    H155446   1.376   7.559   6.708
10417TIP3    H255447   1.440   7.518   7.086
10418TIP3   OH255448   2.655   7.471   8.361
10418TIP3    H155449   2.721   7.529   8.487
10418TIP3    H255450   2.574   7.475   8.526
10419TIP3   OH255451   3.514   7.522   6.360
10419TIP3    H155452   3.437   7.538   6.534
10419TIP3    H255453   3.539   7.616   6.315
10420TIP3   OH255454   3.469   7.477   8.361
10420TIP3    H155455   3.509   7.564   8.415
10420TIP3    H255456   3.375   7.504   8.376
10421TIP3   OH255457   2.164   7.554   7.377
10421TIP3    H155458   2.070   7.524   7.380
10421TIP3    H255459   2.205   7.485   7.539
10422TIP3   OH255460   2.073   7.543   6.453
10422TIP3    H155461   2.138   7.614   6.423
10422TIP3    H255462   2.017   7.589   6.645
10423TIP3   OH255463   2.534   7.592   7.680
10423TIP3    H155464   2.604   7.649   7.563
10423TIP3    H255465   2.578   7.562   7.926
10424TIP3   OH255466   3.232   7.575   8.178
10424TIP3    H155467   3.171   7.602   7.965
10424TIP3    H255468   3.178   7.515   8.343
10425TIP3   OH255469   3.287   7.588   6.816
10425TIP3    H155470   3.214   7.556   6.648
10425TIP3    H255471   3.292   7.516   7.017
10426TIP3   OH255472   4.663   7.567   8.406
10426TIP3    H155473   4.691   7.503   8.202
10426TIP3    H255474   4.637   7.508   8.622
10427TIP3   OH255475   5.442   7.524   6.240
10427TIP3    H155476   5.368   7.518   6.429
10427TIP3    H255477   5.472   7.615   6.300
10428TIP3   OH255478   4.490   7.488   9.084
10428TIP3    H155479   4.413   7.461   8.925
10428TIP3    H255480   4.446   7.551   9.258
10429TIP3   OH255481   3.903   7.606   8.682
10429TIP3    H155482   3.915   7.623   8.397
10429TIP3    H255483   3.951   7.523   8.709
10430TIP3   OH255484   3.968   7.603   7.881
10430TIP3    H155485   3.894   7.578   7.701
10430TIP3    H255486   4.042   7.614   7.701
10431TIP3   OH255487   3.862   7.632   6.435
10431TIP3    H155488   3.862   7.693   6.210
10431TIP3    H255489   3.840   7.691   6.657
10432TIP3   OH255490   4.581   7.575   7.620
10432TIP3    H155491   4.592   7.664   7.494
10432TIP3    H255492   4.567   7.601   7.896
10433TIP3   OH255493   5.275   7.609   6.864
10433TIP3    H155494   5.218   7.642   6.648
10433TIP3    H255495   5.215   7.539   6.969
10434TIP3   OH255496   6.472   7.645   8.388
10434TIP3    H155497   6.510   7.555   8.379
10434TIP3    H255498   6.395   7.628   8.559
10435TIP3   OH255499   7.308   7.524   6.270
10435TIP3    H155500   7.233   7.505   6.453
10435TIP3    H255501   7.327   7.615   6.354
10436TIP3   OH255502   6.248   7.606   8.919
10436TIP3    H155503   6.164   7.587   8.778
10436TIP3    H255504   6.209   7.640   9.162
10437TIP3   OH255505   5.908   7.550   7.935
10437TIP3    H155506   5.823   7.555   7.791
10437TIP3    H255507   5.956   7.486   7.767
10438TIP3   OH255508   5.853   7.541   6.402
10438TIP3    H155509   5.903   7.615   6.288
10438TIP3    H255510   5.816   7.597   6.615
10439TIP3   OH255511   7.129   7.551   6.870
10439TIP3    H155512   7.071   7.619   6.759
10439TIP3    H255513   7.068   7.501   7.041
   7.68049   7.68049  30.00000
